 Gaussian 16, Revision A.03,
 Gaussian 16:  ES64L-G16RevA.03 25-Dec-2016

 --------------------------------------
 #P UB3LYP/6-311++G(d,p) nosym opt freq
 --------------------------------------

 -------
 Reduced
 -------
 Symbolic Z-matrix:
 Charge = -2 Multiplicity = 1

 SCF Done:  E(UB3LYP) =  -1458.04524448     A.U. after   42 cycles
 SCF Done:  E(UB3LYP) =  -1458.08506863     A.U. after   34 cycles
 SCF Done:  E(UB3LYP) =  -1458.09793994     A.U. after   27 cycles
 SCF Done:  E(UB3LYP) =  -1458.10082177     A.U. after   23 cycles
 SCF Done:  E(UB3LYP) =  -1458.10313480     A.U. after   22 cycles
 SCF Done:  E(UB3LYP) =  -1458.10531816     A.U. after   20 cycles
 SCF Done:  E(UB3LYP) =  -1458.10543590     A.U. after   20 cycles
 SCF Done:  E(UB3LYP) =  -1458.10575215     A.U. after   18 cycles
 SCF Done:  E(UB3LYP) =  -1458.10577111     A.U. after   18 cycles
 SCF Done:  E(UB3LYP) =  -1458.10578766     A.U. after   20 cycles
 SCF Done:  E(UB3LYP) =  -1458.10578961     A.U. after   17 cycles
 SCF Done:  E(UB3LYP) =  -1458.10579011     A.U. after   16 cycles
 Optimization completed.
    -- Stationary point found.
 Normal termination of Gaussian 16 at Sun Dec 17 21:55:31 2023.

 ----------------------------------------------------------------------
 #P Geom=AllCheck Guess=TCheck SCRF=Check GenChk UB3LYP/6-311++G(d,p) F
 req
 ----------------------------------------------------------------------

 Structure from the checkpoint file:  "014-an.chk"
 -------
 Reduced
 -------
 Charge = -2 Multiplicity = 1

                          Input orientation:
 ---------------------------------------------------------------------
 Center     Atomic      Atomic             Coordinates (Angstroms)
 Number     Number       Type             X           Y           Z
 ---------------------------------------------------------------------
      1          6           0       -1.556667   -1.543521   -0.638499
      2          6           0       -1.162499   -0.132938   -0.134144
      3          6           0       -1.548027   -0.005556    1.360723
      4          6           0       -1.997572    0.895677   -0.921713
      5          6           0        0.361221    0.063903   -0.292525
      6          6           0        0.875908    1.091220   -1.087179
      7          6           0        2.262414    1.378933   -1.315490
      8          8           0        2.667676    2.348072   -2.063396
      9          6           0        3.109467    0.465021   -0.615086
     10          6           0        2.617894   -0.578345    0.191744
     11         17           0        3.763521   -1.673515    1.028250
     12          6           0        1.233117   -0.854779    0.411197
     13          8           0        0.807713   -1.825537    1.160336
     14         17           0        4.874868    0.709218   -0.809364
     15          1           0       -0.961076   -2.287297   -0.104284
     16          1           0       -2.629323   -1.735150   -0.473300
     17          1           0       -1.355533   -1.628027   -1.712961
     18          1           0       -0.952403   -0.715370    1.939262
     19          1           0       -2.620790   -0.209687    1.509113
     20          1           0       -1.340576    1.010400    1.716888
     21          1           0       -3.066314    0.695333   -0.762443
     22          1           0       -1.798411    0.841619   -1.996606
     23          1           0       -1.791664    1.919897   -0.595205
     24          1           0        0.207057    1.770428   -1.606909
 ---------------------------------------------------------------------

 SCF Done:  E(UB3LYP) =  -1458.10579011     A.U. after    2 cycles

 Alpha  occ. eigenvalues -- -101.27735-101.27720 -18.75805 -18.75313  -9.94868
 Alpha  occ. eigenvalues --   -9.93913  -9.93682  -9.93441  -9.92654  -9.92347
 Alpha  occ. eigenvalues --   -9.92113  -9.92111  -9.89275  -9.87616  -9.19163
 Alpha  occ. eigenvalues --   -9.19143  -6.95566  -6.95542  -6.94714  -6.94695
 Alpha  occ. eigenvalues --   -6.94625  -6.94610  -0.67825  -0.66975  -0.59719
 Alpha  occ. eigenvalues --   -0.58248  -0.56049  -0.51380  -0.45949  -0.44905
 Alpha  occ. eigenvalues --   -0.43284  -0.39776  -0.33438  -0.29261  -0.26999
 Alpha  occ. eigenvalues --   -0.21912  -0.21590  -0.20858  -0.18722  -0.17448
 Alpha  occ. eigenvalues --   -0.16768  -0.16435  -0.14528  -0.13660  -0.12375
 Alpha  occ. eigenvalues --   -0.11380  -0.10016  -0.09954  -0.09133  -0.08239
 Alpha  occ. eigenvalues --   -0.07510  -0.07493  -0.05867  -0.04664  -0.03772
 Alpha  occ. eigenvalues --   -0.02679   0.03316   0.04307   0.06091   0.06615
 Alpha  occ. eigenvalues --    0.13544
 Alpha virt. eigenvalues --    0.15715   0.18068   0.18370   0.19541   0.21345
 Alpha virt. eigenvalues --    0.21394   0.21598   0.22494   0.23027   0.23857
 Alpha virt. eigenvalues --    0.24922   0.25343   0.26150   0.26815   0.27639

  Beta  occ. eigenvalues -- -101.27735-101.27720 -18.75805 -18.75313  -9.94868
  Beta  occ. eigenvalues --   -9.93913  -9.93682  -9.93441  -9.92654  -9.92347
  Beta  occ. eigenvalues --   -9.92113  -9.92111  -9.89275  -9.87616  -9.19163
  Beta  occ. eigenvalues --   -9.19143  -6.95566  -6.95542  -6.94714  -6.94695
  Beta  occ. eigenvalues --   -6.94625  -6.94610  -0.67825  -0.66975  -0.59719
  Beta  occ. eigenvalues --   -0.58248  -0.56049  -0.51380  -0.45949  -0.44905
  Beta  occ. eigenvalues --   -0.43284  -0.39776  -0.33438  -0.29261  -0.26999
  Beta  occ. eigenvalues --   -0.21912  -0.21590  -0.20858  -0.18722  -0.17448
  Beta  occ. eigenvalues --   -0.16768  -0.16435  -0.14528  -0.13660  -0.12375
  Beta  occ. eigenvalues --   -0.11380  -0.10016  -0.09954  -0.09133  -0.08239
  Beta  occ. eigenvalues --   -0.07510  -0.07493  -0.05867  -0.04664  -0.03772
  Beta  occ. eigenvalues --   -0.02679   0.03316   0.04307   0.06091   0.06615
  Beta  occ. eigenvalues --    0.13544
  Beta virt. eigenvalues --    0.15715   0.18068   0.18370   0.19541   0.21345
  Beta virt. eigenvalues --    0.21394   0.21598   0.22494   0.23027   0.23857
  Beta virt. eigenvalues --    0.24922   0.25343   0.26150   0.26815   0.27639

 Mulliken charges and spin densities:
               1          2
     1  C   -0.696633  -0.000000
     2  C    0.673445   0.000000
     3  C   -0.695707  -0.000000
     4  C   -0.591858  -0.000000
     5  C    0.678059  -0.000000
     6  C   -0.295081   0.000000
     7  C   -1.464144  -0.000000
     8  O   -0.514989  -0.000000
     9  C    0.936577   0.000000
    10  C    0.234603  -0.000000
    11  Cl   0.267767   0.000000
    12  C   -1.413151  -0.000000
    13  O   -0.467008  -0.000000
    14  Cl   0.223841  -0.000000
    15  H    0.203825  -0.000000
    16  H    0.059658   0.000000
    17  H    0.086514   0.000000
    18  H    0.203978  -0.000000
    19  H    0.059756   0.000000
    20  H    0.086352   0.000000
    21  H    0.106156  -0.000000
    22  H    0.108424   0.000000
    23  H    0.108445   0.000000
    24  H    0.101172  -0.000000
 Sum of Mulliken charges =  -2.00000   0.00000

 Dipole moment (field-independent basis, Debye):
    X=            -19.0686    Y=             -1.1703    Z=              3.3161  Tot=             19.3902
 Quadrupole moment (field-independent basis, Debye-Ang):
   XX=           -188.2011   YY=           -143.4896   ZZ=           -131.0792
   XY=            -12.9646   XZ=             14.9632   YZ=             25.9998

  Exact polarizability: 265.771   5.804 179.164  -5.029 -35.949 160.163
 Approx polarizability: 354.730   6.832 280.794  -5.986 -70.946 243.362

                      1                      2                      3
                      A                      A                      A
 Frequencies --     60.1521                63.7902                89.2394
 Red. masses --      6.3847                 4.3018                 7.8081
 Frc consts  --      0.0136                 0.0103                 0.0366
 IR Inten    --      6.4321                 0.0786                 0.0768

                      4                      5                      6
                      A                      A                      A
 Frequencies --    172.9074               173.3816               204.8201
 Red. masses --      5.0468                 6.7088                25.2243
 Frc consts  --      0.0889                 0.1188                 0.6235
 IR Inten    --      5.1604                 7.8303                 1.1186

                      7                      8                      9
                      A                      A                      A
 Frequencies --    235.1411               254.8264               260.3503
 Red. masses --      4.5959                 1.0680                 6.0762
 Frc consts  --      0.1497                 0.0409                 0.2427
 IR Inten    --      0.0052                 0.0007                 5.2736

                     10                     11                     12
                      A                      A                      A
 Frequencies --    262.2225               290.9865               291.2529
 Red. masses --      4.3214                 1.3733                 5.0907
 Frc consts  --      0.1751                 0.0685                 0.2544
 IR Inten    --      2.7166                 0.5848                 1.0175

                     13                     14                     15
                      A                      A                      A
 Frequencies --    311.3130               319.7256               344.3720
 Red. masses --      2.4465                 1.0735                 9.4760
 Frc consts  --      0.1397                 0.0647                 0.6621
 IR Inten    --      3.6356                 0.0126                 2.9154

                     16                     17                     18
                      A                      A                      A
 Frequencies --    351.7723               357.8415               410.0572
 Red. masses --      3.1808                11.1216                 2.9258
 Frc consts  --      0.2319                 0.8391                 0.2899
 IR Inten    --      0.0788                 1.8242                 0.0074

                     19                     20                     21
                      A                      A                      A
 Frequencies --    417.3203               476.5955               511.7838
 Red. masses --      2.6362                 5.5598                 4.9166
 Frc consts  --      0.2705                 0.7441                 0.7587
 IR Inten    --      2.4068                 1.0365                14.8339

                     22                     23                     24
                      A                      A                      A
 Frequencies --    547.5162               591.8628               673.3748
 Red. masses --      4.8437                 5.2557                 3.7663
 Frc consts  --      0.8555                 1.0847                 1.0062
 IR Inten    --      2.9347                 8.4490                 0.0800

                     25                     26                     27
                      A                      A                      A
 Frequencies --    682.8593               747.1717               755.9992
 Red. masses --      6.2785                 8.1026                 6.4991
 Frc consts  --      1.7249                 2.6651                 2.1885
 IR Inten    --      2.7039                 4.2662                18.1580

                     28                     29                     30
                      A                      A                      A
 Frequencies --    825.2143               833.1514               848.3242
 Red. masses --      4.6990                 1.7321                 5.1205
 Frc consts  --      1.8853                 0.7084                 2.1711
 IR Inten    --    105.4097                11.3938               122.4197

                     31                     32                     33
                      A                      A                      A
 Frequencies --    913.5934               926.7538               951.8166
 Red. masses --      1.7992                 1.7493                 1.2140
 Frc consts  --      0.8848                 0.8852                 0.6480
 IR Inten    --      0.6092                10.0914                 0.2112

                     34                     35                     36
                      A                      A                      A
 Frequencies --    984.8217              1035.7526              1045.7820
 Red. masses --      5.4339                 1.4686                 1.3822
 Frc consts  --      3.1051                 0.9283                 0.8906
 IR Inten    --     37.3199                12.5052                 0.0246

                     37                     38                     39
                      A                      A                      A
 Frequencies --   1099.3437              1133.4537              1206.2458
 Red. masses --      3.0464                 9.8238                 2.6095
 Frc consts  --      2.1692                 7.4359                 2.2371
 IR Inten    --     83.3597               175.9699                 8.8326

                     40                     41                     42
                      A                      A                      A
 Frequencies --   1211.2743              1252.0460              1271.4406
 Red. masses --      2.3359                 2.1793                 2.6582
 Frc consts  --      2.0192                 2.0128                 2.5318
 IR Inten    --     25.0396                70.1711                31.9563

                     43                     44                     45
                      A                      A                      A
 Frequencies --   1347.2281              1348.4112              1366.9540
 Red. masses --      2.2859                 1.2137                 2.2692
 Frc consts  --      2.4445                 1.3002                 2.4983
 IR Inten    --    101.2115                18.5122                 3.2077

                     46                     47                     48
                      A                      A                      A
 Frequencies --   1383.5530              1388.0710              1425.1911
 Red. masses --      5.0058                 1.4140                 6.3745
 Frc consts  --      5.6457                 1.6052                 7.6286
 IR Inten    --     13.7935               100.6961                47.9083

                     49                     50                     51
                      A                      A                      A
 Frequencies --   1442.2129              1456.1115              1484.2161
 Red. masses --      3.2916                 1.0474                 1.0484
 Frc consts  --      4.0339                 1.3085                 1.3607
 IR Inten    --    796.0379                 1.9018                 0.4738

                     52                     53                     54
                      A                      A                      A
 Frequencies --   1485.5524              1493.5298              1511.0482
 Red. masses --      1.2033                 1.0523                 1.0540
 Frc consts  --      1.5646                 1.3830                 1.4179
 IR Inten    --     66.6657                 1.8155                 1.2291

                     55                     56                     57
                      A                      A                      A
 Frequencies --   1528.6362              1595.7139              2936.1417
 Red. masses --      1.0583                 7.5228                 1.0515
 Frc consts  --      1.4571                11.2860                 5.3410
 IR Inten    --      3.6310                58.3242                82.4407

                     58                     59                     60
                      A                      A                      A
 Frequencies --   2948.6207              2982.5862              3020.5388
 Red. masses --      1.0494                 1.0441                 1.0824
 Frc consts  --      5.3756                 5.4725                 5.8184
 IR Inten    --    333.1628               199.9499                51.3125

                     61                     62                     63
                      A                      A                      A
 Frequencies --   3026.1432              3043.1929              3069.5224
 Red. masses --      1.0843                 1.0881                 1.1011
 Frc consts  --      5.8503                 5.9373                 6.1122
 IR Inten    --     25.0336                77.6476                63.7540

                     64                     65                     66
                      A                      A                      A
 Frequencies --   3082.1794              3085.8207              3144.9897
 Red. masses --      1.1004                 1.0996                 1.0856
 Frc consts  --      6.1592                 6.1690                 6.3262
 IR Inten    --      0.0875                15.1461                39.5955

 - Thermochemistry -
 -------------------
 Temperature   298.150 Kelvin.  Pressure   1.00000 Atm.
 Atom     1 has atomic number  6 and mass  12.00000

 Molecular mass:   232.00579 amu.
 Principal axes and moments of inertia in atomic units:
                           1         2         3
     Eigenvalues --  2148.039124636.518176386.82648
           X            0.99503  -0.09949   0.00365
           Y            0.07661   0.78860   0.61011
           Z           -0.06357  -0.60680   0.79231
 This molecule is an asymmetric top.
 Rotational symmetry number  1.
 Warning -- assumption of classical behavior for rotation
           may cause significant error
 Rotational temperatures (Kelvin)      0.04032     0.01868     0.01356
 Rotational constants (GHZ):           0.84018     0.38924     0.28257
 Zero-point vibrational energy     454544.0 (Joules/Mol)
                                  108.63861 (Kcal/Mol)
 Warning -- explicit consideration of  23 degrees of freedom as
           vibrations may cause significant error
 Vibrational temperatures:     86.55    91.78   128.40   248.78   249.46
          (Kelvin)            294.69   338.32   366.64   374.59   377.28
                              418.66   419.05   447.91   460.01   495.47
                              506.12   514.85   589.98   600.43   685.71
                              736.34   787.75   851.56   968.84   982.48
                             1075.01  1087.71  1187.30  1198.72  1220.55
                             1314.46  1333.39  1369.45  1416.94  1490.22
                             1504.65  1581.71  1630.79  1735.52  1742.75
                             1801.41  1829.32  1938.36  1940.06  1966.74
                             1990.62  1997.12  2050.53  2075.02  2095.02
                             2135.46  2137.38  2148.86  2174.06  2199.37
                             2295.88  4224.45  4242.41  4291.28  4345.88
                             4353.95  4378.48  4416.36  4434.57  4439.81
                             4524.94

 Zero-point correction=                           0.173127 (Hartree/Particle)
 Thermal correction to Energy=                    0.187254
 Thermal correction to Enthalpy=                  0.188198
 Thermal correction to Gibbs Free Energy=         0.132592
 Sum of electronic and zero-point Energies=          -1457.932663
 Sum of electronic and thermal Energies=             -1457.918536
 Sum of electronic and thermal Enthalpies=           -1457.917592
 Sum of electronic and thermal Free Energies=        -1457.973198

                     E (Thermal)             CV                S
                      KCal/Mol        Cal/Mol-Kelvin    Cal/Mol-Kelvin
 Total                  117.504             53.465            117.033
 Electronic               0.000              0.000              0.000
 Translational            0.889              2.981             42.227
 Rotational               0.889              2.981             32.520
 Vibrational            115.726             47.504             42.286
 Vibration     1          0.597              1.973              4.452
 Vibration     2          0.597              1.972              4.336
 Vibration     3          0.602              1.957              3.677
 Vibration     4          0.626              1.876              2.404
 Vibration     5          0.627              1.875              2.399
 Vibration     6          0.640              1.833              2.089
 Vibration     7          0.655              1.787              1.839
 Vibration     8          0.665              1.755              1.697
 Vibration     9          0.668              1.745              1.659
 Vibration    10          0.670              1.742              1.647
 Vibration    11          0.687              1.691              1.468
 Vibration    12          0.687              1.690              1.467
 Vibration    13          0.700              1.652              1.355
 Vibration    14          0.706              1.636              1.312
 Vibration    15          0.723              1.587              1.192
 Vibration    16          0.728              1.572              1.158
 Vibration    17          0.733              1.559              1.131
 Vibration    18          0.774              1.448              0.926
 Vibration    19          0.780              1.433              0.901
 Vibration    20          0.833              1.302              0.719
 Vibration    21          0.867              1.224              0.629
 Vibration    22          0.903              1.145              0.549
 Vibration    23          0.949              1.049              0.464

 Optimization completed.
    -- Stationary point found.
 Normal termination of Gaussian 16 at Sun Dec 17 22:28:21 2023.
