 Q-Chem 5.4, Q-Chem, Inc., Pleasanton, CA (2021)
 Q-Chem 5.4.0 for Intel X86 EM64T Linux

User input:
--------------------------------------------------------------
$molecule
0 1
O                 -2.2907030000     -2.6673530000     -0.4306210000
C                 -2.3536740000     -1.3350140000     -0.2024930000
C                 -3.5969180000     -0.7012190000     -0.0806290000
C                 -3.6836890000      0.6629790000      0.1532190000
C                 -2.5257420000      1.4241690000      0.2704640000
C                 -1.2813190000      0.8113630000      0.1521870000
C                 -0.0721210000      1.6853390000      0.2882060000
O                 -0.1902870000      2.8823960000      0.4937890000
C                  1.2644670000      1.0472030000      0.1649890000
C                  2.3990470000      1.8396440000      0.2882980000
C                  3.6638060000      1.2560590000      0.1751880000
C                  3.7979370000     -0.1018270000     -0.0581870000
C                  2.6616210000     -0.9171610000     -0.1854240000
O                  2.8553520000     -2.2216590000     -0.4103660000
C                  1.3700300000     -0.3416350000     -0.0733460000
C                  0.1791560000     -1.1996270000     -0.2071610000
O                  0.3130280000     -2.4121900000     -0.4159650000
C                 -1.1630730000     -0.5782350000     -0.0863570000
H                 -3.1859190000     -3.0219800000     -0.4813140000
H                 -4.5004160000     -1.2973940000     -0.1724970000
H                 -4.6572580000      1.1307800000      0.2437690000
H                 -2.5622560000      2.4898280000      0.4527930000
H                  2.2786330000      2.8993250000      0.4706040000
H                  4.5513480000      1.8713790000      0.2708790000
H                  4.7709540000     -0.5693560000     -0.1483820000
H                  1.9579970000     -2.6358150000     -0.4716420000
$end
$rem
MAX_SCF_CYCLES=200
BASIS  =  6-311++G(d,p)
GUI  =  2
JOB_TYPE  =  SP
METHOD  =  B3LYP
SOLVENT_METHOD = COSMO
$end
$solvent
dielectric 37.219
opticaldielectric 1.43
$end

--------------------------------------------------------------

             Standard Nuclear Orientation (Angstroms)
    I     Atom           X                Y                Z
 ----------------------------------------------------------------
    1      O       2.5828180027    -2.3683639955    -0.0001964212
    2      C       2.5223442260    -1.0165216012    -0.0001217876
    3      C       3.7016830083    -0.2606363046    -0.0003086750
    4      C       3.6619620862     1.1256077296    -0.0002558606
    5      C       2.4385882890     1.7869354581    -0.0000353352
    6      C       1.2561350096     1.0521474221     0.0001363083
    7      C      -0.0286984440     1.8226654252     0.0002901069
    8      O      -0.0217057633     3.0429621613     0.0004038781
    9      C      -1.3005832129     1.0537853579     0.0000851753
   10      C      -2.5035813041     1.7489365326    -0.0001621454
   11      C      -3.7089871896     1.0418458345    -0.0003816268
   12      C      -3.7170071164    -0.3424392099    -0.0003429142
   13      C      -2.5101637731    -1.0605630860    -0.0000587862
   14      O      -2.5824647666    -2.3964591134     0.0000190268
   15      C      -1.2772956734    -0.3591108872     0.0001073375
   16      C      -0.0121841086    -1.1152393883     0.0002763149
   17      O      -0.0333802026    -2.3527289829     0.0005600069
   18      C       1.2668636917    -0.3626857314     0.0001013910
   19      H       3.5069957565    -2.6433862149    -0.0003814493
   20      H       4.6564388525    -0.7789163885    -0.0004784202
   21      H       4.5881240905     1.6887219269    -0.0003918375
   22      H       2.3764252244     2.8669086021     0.0000118367
   23      H      -2.4816504313     2.8306841307    -0.0002044355
   24      H      -4.6496270096     1.5810146005    -0.0005875286
   25      H      -4.6426461011    -0.9051762976    -0.0005051852
   26      H      -1.6506514759    -2.7314962243     0.0002680770
 ----------------------------------------------------------------

    9    -839.4517470948      4.83e-06  Convergence criterion met
 Total energy in the final basis set =     -839.4517470948
    5    -839.4742037727      3.53e-06  Convergence criterion met
 Total energy in the final basis set =     -839.4742037727

                    Orbital Energies (a.u.)
 --------------------------------------------------------------

 Alpha MOs
 -- Occupied --
-19.1733 -19.1617 -19.1361 -19.1313 -10.2904 -10.2843 -10.2702 -10.2656
-10.2122 -10.2112 -10.2091 -10.2080 -10.2005 -10.1991 -10.1976 -10.1929
-10.1916 -10.1915  -1.0944  -1.0884  -1.0674  -1.0599  -0.8928  -0.8784
 -0.8149  -0.7774  -0.7730  -0.7679  -0.6941  -0.6736  -0.6597  -0.6287
 -0.6049  -0.5825  -0.5615  -0.5395  -0.5259  -0.5102  -0.4959  -0.4889
 -0.4776  -0.4674  -0.4634  -0.4527  -0.4525  -0.4369  -0.4286  -0.4142
 -0.4130  -0.4052  -0.3978  -0.3829  -0.3796  -0.3761  -0.3631  -0.3547
 -0.2935  -0.2911  -0.2790  -0.2756  -0.2555  -0.2485

          Ground-State Mulliken Net Atomic Charges

     Atom                 Charge (a.u.)
  ----------------------------------------
      1 O                    -0.236397
      2 C                     0.104098
      3 C                    -0.185700
      4 C                    -0.325147
      5 C                     0.052423
      6 C                     0.320864
      7 C                    -0.453900
      8 O                    -0.293678
      9 C                     0.263045
     10 C                     0.015229
     11 C                    -0.403718
     12 C                    -0.224863
     13 C                    -0.036899
     14 O                    -0.347248
     15 C                     0.426432
     16 C                    -0.330421
     17 O                    -0.338656
     18 C                    -0.014537
     19 H                     0.330303
     20 H                     0.206505
     21 H                     0.241063
     22 H                     0.188324
     23 H                     0.193014
     24 H                     0.236278
     25 H                     0.232627
     26 H                     0.380958
  ----------------------------------------
  Sum of atomic charges =     0.000000

                    Cartesian Multipole Moments
 -----------------------------------------------------------------
    Charge (ESU x 10^10)
                 0.0000
    Dipole Moment (Debye)
         X       4.4018      Y       0.3482      Z      -0.0020
       Tot       4.4155
    Quadrupole Moments (Debye-Ang)
        XX     -62.4984     XY     -11.1458     YY    -118.0533
        XZ      -0.0014     YZ      -0.0004     ZZ    -105.2264

 Total job time:  56.21s(wall), 426.38s(cpu)
        *  Thank you very much for using Q-Chem.  Have a nice day.  *
