 Gaussian 16, Revision A.03,
 Gaussian 16:  ES64L-G16RevA.03 25-Dec-2016

 ----------------------------------------------------------------
 #P UB3LYP/6-311++G(d,p) SCRF=(PCM,Solvent=n,n-DiMethylFormamide)
 ----------------------------------------------------------------

 -------
 Reduced
 -------
 Symbolic Z-matrix:
 Charge = -2 Multiplicity = 1

                         Standard orientation:
 ---------------------------------------------------------------------
 Center     Atomic      Atomic             Coordinates (Angstroms)
 Number     Number       Type             X           Y           Z
 ---------------------------------------------------------------------
      1          6           0       -2.334974   -1.210709   -0.116626
      2          6           0       -3.123861   -0.039614    0.195789
      3          6           0       -2.592023    1.226587    0.293893
      4          6           0       -1.192688    1.546261    0.083943
      5          6           0       -0.371372    0.376340   -0.227068
      6          6           0       -0.958058   -0.921495   -0.295666
      7          8           0       -2.863710   -2.388385   -0.230757
      8          8           0       -0.770298    2.739088    0.234550
      9          1           0       -4.191852   -0.199753    0.353120
     10          1           0       -3.230151    2.075851    0.538883
     11          6           0        1.065967    0.553537   -0.455678
     12          6           0        2.125334   -0.449257    0.185686
     13          6           0        1.648527   -1.097703    1.497474
     14          6           0        2.484254   -1.537936   -0.850328
     15          6           0        3.404710    0.357668    0.486962
     16          8           0        1.547665    1.471760   -1.124071
     17          1           0        1.407474   -0.327990    2.237987
     18          1           0        2.443156   -1.734851    1.911563
     19          1           0        0.751482   -1.700118    1.356428
     20          1           0        1.636889   -2.192371   -1.064648
     21          1           0        3.312472   -2.163137   -0.481845
     22          1           0        2.803181   -1.074256   -1.789394
     23          1           0        3.204512    1.143580    1.222068
     24          1           0        3.779193    0.843393   -0.415362
     25          1           0        4.184042   -0.303219    0.890736
     26          1           0       -0.344553   -1.768919   -0.587607
 ---------------------------------------------------------------------

 SCF Done:  E(UB3LYP) =  -652.488332028     A.U. after   19 cycles

 The electronic state is 1-A.
 Alpha  occ. eigenvalues --  -19.07922 -19.02103 -19.01280 -10.22703 -10.18227
 Alpha  occ. eigenvalues --  -10.17326 -10.16802 -10.15117 -10.14402 -10.14351
 Alpha  occ. eigenvalues --  -10.13160 -10.13153 -10.12708 -10.12069  -1.00805
 Alpha  occ. eigenvalues --   -0.94169  -0.92492  -0.80052  -0.77790  -0.71519
 Alpha  occ. eigenvalues --   -0.67643  -0.66936  -0.64993  -0.60417  -0.56377
 Alpha  occ. eigenvalues --   -0.53295  -0.47942  -0.45903  -0.43569  -0.43177
 Alpha  occ. eigenvalues --   -0.42559  -0.41999  -0.41268  -0.39129  -0.38122
 Alpha  occ. eigenvalues --   -0.37103  -0.36059  -0.35845  -0.35541  -0.34812
 Alpha  occ. eigenvalues --   -0.34105  -0.33470  -0.32033  -0.31568  -0.31187
 Alpha  occ. eigenvalues --   -0.30730  -0.23098  -0.22677  -0.21735  -0.19511
 Alpha  occ. eigenvalues --   -0.18916  -0.11981
 Alpha virt. eigenvalues --   -0.02079   0.00016   0.01114   0.01755   0.02216
 Alpha virt. eigenvalues --    0.03074   0.03085   0.03857   0.04566   0.04689
 Alpha virt. eigenvalues --    0.04977   0.05689   0.05927   0.07059   0.07365

  Beta  occ. eigenvalues --  -19.07922 -19.02103 -19.01280 -10.22703 -10.18227
  Beta  occ. eigenvalues --  -10.17326 -10.16802 -10.15117 -10.14402 -10.14351
  Beta  occ. eigenvalues --  -10.13160 -10.13153 -10.12708 -10.12069  -1.00805
  Beta  occ. eigenvalues --   -0.94169  -0.92492  -0.80052  -0.77790  -0.71519
  Beta  occ. eigenvalues --   -0.67643  -0.66936  -0.64993  -0.60417  -0.56377
  Beta  occ. eigenvalues --   -0.53295  -0.47942  -0.45903  -0.43569  -0.43177
  Beta  occ. eigenvalues --   -0.42559  -0.41999  -0.41268  -0.39129  -0.38122
  Beta  occ. eigenvalues --   -0.37103  -0.36059  -0.35845  -0.35541  -0.34812
  Beta  occ. eigenvalues --   -0.34105  -0.33470  -0.32033  -0.31568  -0.31187
  Beta  occ. eigenvalues --   -0.30730  -0.23098  -0.22677  -0.21735  -0.19511
  Beta  occ. eigenvalues --   -0.18916  -0.11981
  Beta virt. eigenvalues --   -0.02079   0.00016   0.01114   0.01755   0.02216
  Beta virt. eigenvalues --    0.03074   0.03085   0.03857   0.04566   0.04689
  Beta virt. eigenvalues --    0.04977   0.05689   0.05927   0.07059   0.07365

 Mulliken charges and spin densities:
               1          2
     1  C   -0.564738  -0.000000
     2  C    0.023044  -0.000000
     3  C    0.056659   0.000000
     4  C   -0.612543  -0.000000
     5  C    1.718438   0.000000
     6  C   -0.645631  -0.000000
     7  O   -0.731116   0.000000
     8  O   -0.645491   0.000000
     9  H    0.145250   0.000000
    10  H    0.140873  -0.000000
    11  C   -1.139849  -0.000000
    12  C    0.860870   0.000000
    13  C   -0.651469   0.000000
    14  C   -0.492269  -0.000000
    15  C   -0.589357  -0.000000
    16  O   -0.328478   0.000000
    17  H    0.139175  -0.000000
    18  H    0.133828  -0.000000
    19  H    0.160738   0.000000
    20  H    0.120973  -0.000000
    21  H    0.155085   0.000000
    22  H    0.164219   0.000000
    23  H    0.149234  -0.000000
    24  H    0.166823  -0.000000
    25  H    0.136889   0.000000
    26  H    0.128844   0.000000
 Sum of Mulliken charges =  -2.00000   0.00000

 Dipole moment (field-independent basis, Debye):
    X=             12.8204    Y=             -3.3841    Z=              2.4686  Tot=             13.4874
 Quadrupole moment (field-independent basis, Debye-Ang):
   XX=           -134.2820   YY=           -148.5149   ZZ=            -97.1391
   XY=            -25.5129   XZ=              1.3767   YZ=              0.1862

 Normal termination of Gaussian 16 at Wed Jan 24 22:52:44 2024.
