 Q-Chem 5.4, Q-Chem, Inc., Pleasanton, CA (2021)
 Q-Chem 5.4.0 for Intel X86 EM64T Linux

User input:
--------------------------------------------------------------
$molecule
-1 2
Br                -1.6227190000      2.5312440000      1.3383520000
C                 -0.7274530000      1.0415630000      0.4890760000
C                 -1.4398090000      0.0212930000     -0.0904960000
C                 -0.7307380000     -1.0469320000     -0.8131740000
O                 -1.3485240000     -1.9668210000     -1.3901890000
C                  0.7216900000     -0.9507750000     -0.7995230000
C                  1.4353370000      0.0482490000     -0.1855520000
C                  0.7244380000      1.1471500000      0.4873960000
O                  1.3404480000      2.0957220000      1.0180050000
C                  2.9224210000      0.1088510000     -0.1490890000
C                  3.6062660000      1.1939090000     -0.7114200000
C                  4.9964580000      1.2609050000     -0.6694050000
C                  5.7312650000      0.2529550000     -0.0453450000
C                  5.0605650000     -0.8223300000      0.5352730000
C                  3.6700810000     -0.8922650000      0.4819940000
Br                 1.6112160000     -2.3448010000     -1.8031830000
C                 -2.9236070000     -0.0907140000     -0.0443870000
C                 -3.6755700000     -0.0991450000     -1.2258090000
C                 -5.0625470000     -0.2164830000     -1.1884220000
C                 -5.7252340000     -0.3484810000      0.0317300000
C                 -4.9857190000     -0.3610470000      1.2133220000
C                 -3.5990010000     -0.2323650000      1.1735340000
H                  3.0386960000      1.9905890000     -1.1754620000
H                  5.5066390000      2.1079990000     -1.1167300000
H                  6.8144890000      0.3080350000     -0.0072650000
H                  5.6195030000     -1.6094050000      1.0313470000
H                  3.1542320000     -1.7310510000      0.9341020000
H                 -3.1633390000     -0.0215390000     -2.1764620000
H                 -5.6263970000     -0.2149310000     -2.1157960000
H                 -6.8057410000     -0.4460730000      0.0606540000
H                 -5.4878520000     -0.4713860000      2.1691900000
H                 -3.0294940000     -0.2419200000      2.0952810000
$end
$rem
MAX_SCF_CYCLES=200
BASIS  =  6-311++G(d,p)
GUI  =  2
JOB_TYPE  =  SP
METHOD  =  B3LYP
SOLVENT_METHOD = PCM
$end
$pcm
theory = CPCM
$end
$solvent
dielectric 37.219
opticaldielectric 1.43
$end

--------------------------------------------------------------

             Standard Nuclear Orientation (Angstroms)
    I     Atom           X                Y                Z
 ----------------------------------------------------------------
    1      Br     -1.6227190000     2.5312440000     1.3383520000
    2      C      -0.7274530000     1.0415630000     0.4890760000
    3      C      -1.4398090000     0.0212930000    -0.0904960000
    4      C      -0.7307380000    -1.0469320000    -0.8131740000
    5      O      -1.3485240000    -1.9668210000    -1.3901890000
    6      C       0.7216900000    -0.9507750000    -0.7995230000
    7      C       1.4353370000     0.0482490000    -0.1855520000
    8      C       0.7244380000     1.1471500000     0.4873960000
    9      O       1.3404480000     2.0957220000     1.0180050000
   10      C       2.9224210000     0.1088510000    -0.1490890000
   11      C       3.6062660000     1.1939090000    -0.7114200000
   12      C       4.9964580000     1.2609050000    -0.6694050000
   13      C       5.7312650000     0.2529550000    -0.0453450000
   14      C       5.0605650000    -0.8223300000     0.5352730000
   15      C       3.6700810000    -0.8922650000     0.4819940000
   16      Br      1.6112160000    -2.3448010000    -1.8031830000
   17      C      -2.9236070000    -0.0907140000    -0.0443870000
   18      C      -3.6755700000    -0.0991450000    -1.2258090000
   19      C      -5.0625470000    -0.2164830000    -1.1884220000
   20      C      -5.7252340000    -0.3484810000     0.0317300000
   21      C      -4.9857190000    -0.3610470000     1.2133220000
   22      C      -3.5990010000    -0.2323650000     1.1735340000
   23      H       3.0386960000     1.9905890000    -1.1754620000
   24      H       5.5066390000     2.1079990000    -1.1167300000
   25      H       6.8144890000     0.3080350000    -0.0072650000
   26      H       5.6195030000    -1.6094050000     1.0313470000
   27      H       3.1542320000    -1.7310510000     0.9341020000
   28      H      -3.1633390000    -0.0215390000    -2.1764620000
   29      H      -5.6263970000    -0.2149310000    -2.1157960000
   30      H      -6.8057410000    -0.4460730000     0.0606540000
   31      H      -5.4878520000    -0.4713860000     2.1691900000
   32      H      -3.0294940000    -0.2419200000     2.0952810000
 ----------------------------------------------------------------

    8   -5991.0280338373      6.86e-06  Convergence criterion met
 Total energy in the final basis set =    -5991.0280338373

                    Orbital Energies (a.u.)
 --------------------------------------------------------------

 Alpha MOs
 -- Occupied --
********-482.8262 -62.4790 -62.4790 -56.2994 -56.2994 -56.2958 -56.2958
-56.2955 -56.2954 -19.0922 -19.0921 -10.2454 -10.2454 -10.2284 -10.2284
-10.1979 -10.1979 -10.1896 -10.1895 -10.1757 -10.1757 -10.1751 -10.1750
-10.1749 -10.1748 -10.1743 -10.1743 -10.1740 -10.1740  -8.6876  -8.6876
 -6.5188  -6.5188  -6.5068  -6.5067  -6.5056  -6.5056  -2.6300  -2.6298
 -2.6265  -2.6263  -2.6256  -2.6255  -2.6161  -2.6161  -2.6161  -2.6160
 -1.0244  -1.0217  -0.8740  -0.8665  -0.8488  -0.8236  -0.7794  -0.7740
 -0.7529  -0.7488  -0.7486  -0.7110  -0.6835  -0.6393  -0.6096  -0.6084
 -0.5972  -0.5711  -0.5688  -0.5236  -0.5139  -0.5101  -0.4740  -0.4641
 -0.4618  -0.4552  -0.4428  -0.4365  -0.4284  -0.4226  -0.4213  -0.4195
 -0.4087  -0.4064  -0.3959  -0.3860  -0.3720  -0.3661  -0.3530  -0.3530
 -0.3473  -0.3463  -0.3308  -0.3218  -0.2941  -0.2907  -0.2815  -0.2703
 -0.2653  -0.2616  -0.2553  -0.2530  -0.2439  -0.2379  -0.1744

 Beta MOs
 -- Occupied --
********-482.8262 -62.4790 -62.4790 -56.2995 -56.2994 -56.2958 -56.2958
-56.2955 -56.2954 -19.0858 -19.0857 -10.2440 -10.2440 -10.2272 -10.2272
-10.1968 -10.1967 -10.1897 -10.1896 -10.1756 -10.1756 -10.1750 -10.1749
-10.1748 -10.1748 -10.1743 -10.1743 -10.1740 -10.1740  -8.6876  -8.6876
 -6.5189  -6.5188  -6.5067  -6.5066  -6.5056  -6.5056  -2.6300  -2.6298
 -2.6265  -2.6263  -2.6256  -2.6256  -2.6161  -2.6160  -2.6160  -2.6160
 -1.0133  -1.0103  -0.8714  -0.8660  -0.8462  -0.8222  -0.7783  -0.7721
 -0.7517  -0.7487  -0.7485  -0.7094  -0.6748  -0.6372  -0.6091  -0.6082
 -0.5965  -0.5692  -0.5647  -0.5231  -0.5128  -0.5079  -0.4718  -0.4634
 -0.4592  -0.4544  -0.4413  -0.4325  -0.4229  -0.4219  -0.4189  -0.4117
 -0.4044  -0.4038  -0.3845  -0.3727  -0.3698  -0.3648  -0.3521  -0.3520
 -0.3468  -0.3456  -0.3251  -0.3084  -0.2935  -0.2904  -0.2686  -0.2669
 -0.2624  -0.2573  -0.2511  -0.2501  -0.2391  -0.2337

          Ground-State Mulliken Net Atomic Charges

     Atom                 Charge (a.u.)    Spin (a.u.)
  --------------------------------------------------------
      1 Br                   -0.153275       0.005292
      2 C                    -0.281487       0.066649
      3 C                     0.936857       0.094029
      4 C                    -1.141479       0.089881
      5 O                    -0.365458       0.244270
      6 C                    -0.284717       0.066623
      7 C                     0.938518       0.094413
      8 C                    -1.145262       0.089603
      9 O                    -0.365665       0.244337
     10 C                     1.196483      -0.039344
     11 C                    -0.114909       0.021937
     12 C                    -0.333058      -0.001452
     13 C                    -0.400553       0.004614
     14 C                    -0.426143      -0.002042
     15 C                    -0.497074       0.017801
     16 Br                   -0.153167       0.005269
     17 C                     1.191134      -0.039081
     18 C                    -0.103263       0.022427
     19 C                    -0.333371      -0.001545
     20 C                    -0.399495       0.004703
     21 C                    -0.428362      -0.002083
     22 C                    -0.498629       0.017476
     23 H                     0.238895      -0.001484
     24 H                     0.209599       0.000318
     25 H                     0.198080      -0.000339
     26 H                     0.210936       0.000207
     27 H                     0.223320      -0.000607
     28 H                     0.238974      -0.001450
     29 H                     0.209719       0.000331
     30 H                     0.198137      -0.000339
     31 H                     0.210819       0.000203
     32 H                     0.223893      -0.000617
  --------------------------------------------------------
  Sum of atomic charges =    -1.000005

                    Cartesian Multipole Moments
 -----------------------------------------------------------------
    Charge (ESU x 10^10)
                -4.8032
    Dipole Moment (Debye)
         X       0.0254      Y      -0.3997      Z       1.0384
       Tot       1.1130
    Quadrupole Moments (Debye-Ang)
        XX    -152.8003     XY      -7.2807     YY    -182.7172
        XZ      -4.3458     YZ     -20.9469     ZZ    -161.2673

 Total job time:  101.73s(wall), 719.15s(cpu)
        *  Thank you very much for using Q-Chem.  Have a nice day.  *
