 Gaussian 16, Revision A.03,
 Gaussian 16:  ES64L-G16RevA.03 25-Dec-2016

 ----------------------------------------------------------------
 #P UB3LYP/6-311++G(d,p) SCRF=(PCM,Solvent=n,n-DiMethylFormamide)
 ----------------------------------------------------------------

 ------------------
 Quinone PCM in DMF
 ------------------
 Symbolic Z-matrix:
 Charge =  0 Multiplicity = 1

                         Standard orientation:
 ---------------------------------------------------------------------
 Center     Atomic      Atomic             Coordinates (Angstroms)
 Number     Number       Type             X           Y           Z
 ---------------------------------------------------------------------
      1          8           0        0.820087   -2.646382   -0.577249
      2          6           0        0.801595   -1.477925   -0.246977
      3          6           0        2.089149   -0.741344    0.005327
      4          8           0        2.130346    0.000046    1.227941
      5          6           0        2.089147    0.741170    0.005271
      6          6           0        0.801589    1.477895   -0.246945
      7          8           0        0.820244    2.646462   -0.576836
      8          6           0       -0.461740    0.704781   -0.065756
      9          6           0       -1.669809    1.397058    0.053197
     10          6           0       -2.863828    0.698748    0.191343
     11          6           0       -2.863800   -0.698707    0.191611
     12          6           0       -1.669758   -1.397041    0.053670
     13          6           0       -0.461720   -0.704784   -0.065563
     14          1           0        2.993995   -1.285692   -0.247697
     15          1           0        2.993930    1.285539   -0.247953
     16          1           0       -1.651996    2.479895    0.032426
     17          1           0       -3.797180    1.240298    0.293742
     18          1           0       -3.797113   -1.240270    0.294299
     19          1           0       -1.651995   -2.479882    0.033269
 ---------------------------------------------------------------------

 SCF Done:  E(UB3LYP) =  -610.479486104     A.U. after   14 cycles

 The electronic state is 1-A.
 Alpha  occ. eigenvalues --  -19.18332 -19.14699 -19.14699 -10.29434 -10.29433
 Alpha  occ. eigenvalues --  -10.26457 -10.26426 -10.21797 -10.21748 -10.20464
 Alpha  occ. eigenvalues --  -10.20457 -10.20401 -10.20356  -1.12717  -1.08020
 Alpha  occ. eigenvalues --   -1.07879  -0.89505  -0.80887  -0.78688  -0.73974
 Alpha  occ. eigenvalues --   -0.72794  -0.65981  -0.65383  -0.60268  -0.55928
 Alpha  occ. eigenvalues --   -0.55373  -0.53803  -0.50451  -0.48785  -0.47499
 Alpha  occ. eigenvalues --   -0.46173  -0.45839  -0.45777  -0.44832  -0.44617
 Alpha  occ. eigenvalues --   -0.41200  -0.39003  -0.38700  -0.37918  -0.35627
 Alpha  occ. eigenvalues --   -0.33406  -0.29302  -0.28986  -0.28413  -0.28335
 Alpha virt. eigenvalues --   -0.10972  -0.07446  -0.01020  -0.00999  -0.00429
 Alpha virt. eigenvalues --    0.00653   0.01161   0.02350   0.02768   0.03627
 Alpha virt. eigenvalues --    0.04681   0.05276   0.05658   0.06206   0.06509

  Beta  occ. eigenvalues --  -19.18332 -19.14699 -19.14699 -10.29434 -10.29433
  Beta  occ. eigenvalues --  -10.26457 -10.26426 -10.21797 -10.21748 -10.20464
  Beta  occ. eigenvalues --  -10.20457 -10.20401 -10.20356  -1.12717  -1.08020
  Beta  occ. eigenvalues --   -1.07879  -0.89505  -0.80887  -0.78688  -0.73974
  Beta  occ. eigenvalues --   -0.72794  -0.65981  -0.65383  -0.60268  -0.55928
  Beta  occ. eigenvalues --   -0.55373  -0.53803  -0.50451  -0.48785  -0.47499
  Beta  occ. eigenvalues --   -0.46173  -0.45839  -0.45777  -0.44832  -0.44617
  Beta  occ. eigenvalues --   -0.41200  -0.39003  -0.38700  -0.37918  -0.35627
  Beta  occ. eigenvalues --   -0.33406  -0.29302  -0.28986  -0.28413  -0.28335
  Beta virt. eigenvalues --   -0.10972  -0.07446  -0.01020  -0.00999  -0.00429
  Beta virt. eigenvalues --    0.00653   0.01161   0.02350   0.02768   0.03627
  Beta virt. eigenvalues --    0.04681   0.05276   0.05658   0.06206   0.06509

 Mulliken charges and spin densities:
               1          2
     1  O   -0.283206   0.000000
     2  C   -0.059260  -0.000000
     3  C   -0.169396   0.000000
     4  O   -0.098134   0.000000
     5  C   -0.169039  -0.000000
     6  C   -0.058536   0.000000
     7  O   -0.283182  -0.000000
     8  C   -0.089641  -0.000000
     9  C    0.235402   0.000000
    10  C   -0.267282  -0.000000
    11  C   -0.266667  -0.000000
    12  C    0.234717   0.000000
    13  C   -0.091248   0.000000
    14  H    0.272438   0.000000
    15  H    0.272401   0.000000
    16  H    0.198447   0.000000
    17  H    0.211862  -0.000000
    18  H    0.211854  -0.000000
    19  H    0.198471   0.000000
 Sum of Mulliken charges =  -0.00000  -0.00000

 Dipole moment (field-independent basis, Debye):
    X=             -2.5336    Y=             -0.0005    Z=             -0.1190  Tot=              2.5364
 Quadrupole moment (field-independent basis, Debye-Ang):
   XX=            -56.1223   YY=            -87.9055   ZZ=            -78.8159
   XY=             -0.0019   XZ=             -4.3214   YZ=             -0.0043

 Normal termination of Gaussian 16 at Thu Jan 25 05:44:10 2024.
