 Gaussian 16, Revision A.03,
 Gaussian 16:  ES64L-G16RevA.03 25-Dec-2016

 --------------------------------------
 #P UB3LYP/6-311++G(d,p) nosym opt freq
 --------------------------------------

 --------
 Oxidized
 --------
 Symbolic Z-matrix:
 Charge =  0 Multiplicity = 1

 SCF Done:  E(UB3LYP) =  -610.468890834     A.U. after   15 cycles
 Optimization completed.
    -- Stationary point found.
 Normal termination of Gaussian 16 at Mon Jan  8 21:23:46 2024.

 ----------------------------------------------------------------------
 #P Geom=AllCheck Guess=TCheck SCRF=Check GenChk UB3LYP/6-311++G(d,p) F
 req
 ----------------------------------------------------------------------

 Structure from the checkpoint file:  "316.chk"
 --------
 Oxidized
 --------
 Charge =  0 Multiplicity = 1

                          Input orientation:
 ---------------------------------------------------------------------
 Center     Atomic      Atomic             Coordinates (Angstroms)
 Number     Number       Type             X           Y           Z
 ---------------------------------------------------------------------
      1          8           0       -1.329558   -2.393126    1.173391
      2          6           0       -1.198966   -1.334814    0.592327
      3          6           0       -2.400919   -0.626300    0.029016
      4          8           0       -2.262668   -0.187657   -1.325466
      5          6           0       -2.303141    0.814598   -0.305795
      6          6           0       -1.004000    1.538000   -0.075353
      7          8           0       -0.980571    2.751008   -0.022555
      8          6           0        0.217683    0.694399    0.074195
      9          6           0        1.474564    1.291672   -0.053645
     10          6           0        2.627832    0.533510    0.112389
     11          6           0        2.535661   -0.824766    0.427779
     12          6           0        1.290274   -1.424078    0.577013
     13          6           0        0.124713   -0.675630    0.392394
     14          1           0       -3.361490   -1.060744    0.289102
     15          1           0       -3.191863    1.438345   -0.291423
     16          1           0        1.526099    2.349628   -0.280265
     17          1           0        3.600456    0.999037    0.001959
     18          1           0        3.436838   -1.412004    0.561714
     19          1           0        1.199057   -2.471077    0.839216
 ---------------------------------------------------------------------

 SCF Done:  E(UB3LYP) =  -610.468890834     A.U. after    1 cycles

 Alpha  occ. eigenvalues --  -19.18358 -19.14449 -19.14448 -10.29262 -10.29260
 Alpha  occ. eigenvalues --  -10.26759 -10.26729 -10.22164 -10.22115 -10.21191
 Alpha  occ. eigenvalues --  -10.21139 -10.20974 -10.20974  -1.12801  -1.07720
 Alpha  occ. eigenvalues --   -1.07593  -0.89967  -0.81339  -0.79143  -0.74291
 Alpha  occ. eigenvalues --   -0.72982  -0.66429  -0.65891  -0.60647  -0.56138
 Alpha  occ. eigenvalues --   -0.55803  -0.54027  -0.50716  -0.48742  -0.47886
 Alpha  occ. eigenvalues --   -0.46492  -0.45808  -0.45610  -0.44949  -0.44946
 Alpha  occ. eigenvalues --   -0.41247  -0.39371  -0.39194  -0.38501  -0.35604
 Alpha  occ. eigenvalues --   -0.33340  -0.29564  -0.29167  -0.28349  -0.28342
 Alpha virt. eigenvalues --   -0.11017  -0.07708  -0.01431  -0.01285  -0.01264
 Alpha virt. eigenvalues --   -0.00081   0.00820   0.01835   0.02481   0.03440
 Alpha virt. eigenvalues --    0.04333   0.04805   0.05104   0.06310   0.06494

  Beta  occ. eigenvalues --  -19.18358 -19.14449 -19.14448 -10.29262 -10.29260
  Beta  occ. eigenvalues --  -10.26759 -10.26729 -10.22164 -10.22115 -10.21191
  Beta  occ. eigenvalues --  -10.21139 -10.20974 -10.20974  -1.12801  -1.07720
  Beta  occ. eigenvalues --   -1.07593  -0.89967  -0.81339  -0.79143  -0.74291
  Beta  occ. eigenvalues --   -0.72982  -0.66429  -0.65891  -0.60647  -0.56138
  Beta  occ. eigenvalues --   -0.55803  -0.54027  -0.50716  -0.48742  -0.47886
  Beta  occ. eigenvalues --   -0.46492  -0.45808  -0.45610  -0.44949  -0.44946
  Beta  occ. eigenvalues --   -0.41247  -0.39371  -0.39194  -0.38501  -0.35604
  Beta  occ. eigenvalues --   -0.33340  -0.29564  -0.29167  -0.28349  -0.28342
  Beta virt. eigenvalues --   -0.11017  -0.07708  -0.01431  -0.01285  -0.01264
  Beta virt. eigenvalues --   -0.00081   0.00820   0.01835   0.02481   0.03440
  Beta virt. eigenvalues --    0.04333   0.04805   0.05104   0.06310   0.06494

 Mulliken charges and spin densities:
               1          2
     1  O   -0.225428   0.000000
     2  C   -0.099486   0.000000
     3  C   -0.180680  -0.000000
     4  O   -0.063852  -0.000000
     5  C   -0.180327  -0.000000
     6  C   -0.099006  -0.000000
     7  O   -0.225407  -0.000000
     8  C   -0.097482  -0.000000
     9  C    0.233503   0.000000
    10  C   -0.218625   0.000000
    11  C   -0.218138   0.000000
    12  C    0.232973   0.000000
    13  C   -0.099128  -0.000000
    14  H    0.246822  -0.000000
    15  H    0.246790  -0.000000
    16  H    0.193441  -0.000000
    17  H    0.180296   0.000000
    18  H    0.180287   0.000000
    19  H    0.193447  -0.000000
 Sum of Mulliken charges =  -0.00000  -0.00000

 Dipole moment (field-independent basis, Debye):
    X=              1.9287    Y=             -0.0611    Z=              0.3019  Tot=              1.9531
 Quadrupole moment (field-independent basis, Debye-Ang):
   XX=            -60.0819   YY=            -85.0745   ZZ=            -79.3522
   XY=             -2.0182   XZ=             -0.9734   YZ=              1.5037

  Exact polarizability: 148.111   0.128 137.171   2.658 -16.149  72.216
 Approx polarizability: 218.595   2.518 248.593  -0.075 -31.504 120.489

                      1                      2                      3
                      A                      A                      A
 Frequencies --     68.8088               117.4003               160.7581
 Red. masses --      9.3123                 4.7779                 7.0708
 Frc consts  --      0.0260                 0.0388                 0.1077
 IR Inten    --      9.7344                 0.3277                 0.5359

                      4                      5                      6
                      A                      A                      A
 Frequencies --    196.6351               263.7559               290.7619
 Red. masses --      5.9622                 6.2368                 7.4298
 Frc consts  --      0.1358                 0.2556                 0.3701
 IR Inten    --      2.2121                 1.1988                 8.8105

                      7                      8                      9
                      A                      A                      A
 Frequencies --    372.3672               427.5967               441.9819
 Red. masses --      9.4147                 7.8433                 3.6848
 Frc consts  --      0.7691                 0.8449                 0.4241
 IR Inten    --     12.0159                 1.0587                 1.2839

                     10                     11                     12
                      A                      A                      A
 Frequencies --    461.3966               488.3708               533.8807
 Red. masses --      4.4809                12.2896                 5.9113
 Frc consts  --      0.5620                 1.7270                 0.9927
 IR Inten    --      0.3020                 8.5723                 0.3707

                     13                     14                     15
                      A                      A                      A
 Frequencies --    551.4436               652.3763               692.0016
 Red. masses --      5.5196                 5.3225                 5.3910
 Frc consts  --      0.9889                 1.3346                 1.5210
 IR Inten    --     36.1983                 1.8270                 1.9310

                     16                     17                     18
                      A                      A                      A
 Frequencies --    727.6741               737.0677               783.4166
 Red. masses --      5.5732                 2.2885                 5.6722
 Frc consts  --      1.7387                 0.7325                 2.0511
 IR Inten    --      0.9445                98.9700                 1.1024

                     19                     20                     21
                      A                      A                      A
 Frequencies --    806.8400               808.4806               873.6787
 Red. masses --      2.0584                 4.9734                 7.0529
 Frc consts  --      0.7895                 1.9153                 3.1719
 IR Inten    --      7.1195                 0.0090                 1.1327

                     22                     23                     24
                      A                      A                      A
 Frequencies --    879.3080               914.6142               997.0479
 Red. masses --      3.0442                 1.4204                 1.4368
 Frc consts  --      1.3868                 0.7001                 0.8415
 IR Inten    --     50.2529                 0.0656                 9.5122

                     25                     26                     27
                      A                      A                      A
 Frequencies --   1007.6417              1016.6533              1054.9077
 Red. masses --      2.4949                 1.3339                 2.6587
 Frc consts  --      1.4925                 0.8123                 1.7432
 IR Inten    --     35.4385                 0.0055                 1.8234

                     28                     29                     30
                      A                      A                      A
 Frequencies --   1054.9268              1114.8335              1122.8576
 Red. masses --      2.5488                 1.7020                 2.0535
 Frc consts  --      1.6712                 1.2463                 1.5254
 IR Inten    --      1.7325                 0.0612                 6.5179

                     31                     32                     33
                      A                      A                      A
 Frequencies --   1147.3520              1186.9878              1240.0635
 Red. masses --      1.4695                 1.1261                 1.4560
 Frc consts  --      1.1397                 0.9348                 1.3191
 IR Inten    --      4.3632                 0.6702                12.1033

                     34                     35                     36
                      A                      A                      A
 Frequencies --   1252.5107              1304.3465              1306.9765
 Red. masses --      2.0045                 1.6344                 3.9400
 Frc consts  --      1.8527                 1.6383                 3.9653
 IR Inten    --      0.0814                 3.2099               236.4494

                     37                     38                     39
                      A                      A                      A
 Frequencies --   1343.3230              1352.9720              1407.6264
 Red. masses --      1.8095                 6.9548                 3.9803
 Frc consts  --      1.9238                 7.5009                 4.6467
 IR Inten    --      5.7110                 6.5844                12.2355

                     40                     41                     42
                      A                      A                      A
 Frequencies --   1481.8979              1504.5273              1609.5961
 Red. masses --      2.3721                 2.5692                 6.3860
 Frc consts  --      3.0692                 3.4265                 9.7479
 IR Inten    --      0.8486                 0.7119                 0.1722

                     43                     44                     45
                      A                      A                      A
 Frequencies --   1630.3314              1755.7661              1757.3314
 Red. masses --      5.7028                12.1190                11.7305
 Frc consts  --      8.9307                22.0115                21.3440
 IR Inten    --     59.9234                67.2362               419.0624

                     46                     47                     48
                      A                      A                      A
 Frequencies --   3150.5048              3158.6687              3172.7713
 Red. masses --      1.0889                 1.0933                 1.0870
 Frc consts  --      6.3680                 6.4267                 6.4470
 IR Inten    --      2.6448                13.9433                 2.2273

                     49                     50                     51
                      A                      A                      A
 Frequencies --   3186.0154              3198.0198              3201.2478
 Red. masses --      1.0910                 1.0929                 1.0960
 Frc consts  --      6.5246                 6.5855                 6.6179
 IR Inten    --      5.5230                 0.4235                 8.8757

 - Thermochemistry -
 -------------------
 Temperature   298.150 Kelvin.  Pressure   1.00000 Atm.
 Atom     1 has atomic number  8 and mass  15.99491

 Molecular mass:   174.03169 amu.
 Principal axes and moments of inertia in atomic units:
                           1         2         3
     Eigenvalues --  1487.407082047.037423266.20584
           X            0.99128   0.06596  -0.11406
           Y           -0.03795   0.97192   0.23224
           Z            0.12618  -0.22588   0.96595
 This molecule is an asymmetric top.
 Rotational symmetry number  1.
 Warning -- assumption of classical behavior for rotation
           may cause significant error
 Rotational temperatures (Kelvin)      0.05823     0.04231     0.02652
 Rotational constants (GHZ):           1.21335     0.88164     0.55255
 Zero-point vibrational energy     358690.2 (Joules/Mol)
                                   85.72902 (Kcal/Mol)
 Warning -- explicit consideration of  13 degrees of freedom as
           vibrations may cause significant error
 Vibrational temperatures:     99.00   168.91   231.30   282.91   379.49
          (Kelvin)            418.34   535.75   615.22   635.91   663.85
                              702.66   768.14   793.40   938.62   995.64
                             1046.96  1060.48  1127.16  1160.86  1163.22
                             1257.03  1265.13  1315.93  1434.53  1449.77
                             1462.74  1517.78  1517.80  1604.00  1615.54
                             1650.78  1707.81  1784.17  1802.08  1876.66
                             1880.45  1932.74  1946.62  2025.26  2132.12
                             2164.68  2315.85  2345.68  2526.16  2528.41
                             4532.87  4544.62  4564.91  4583.97  4601.24
                             4605.88

 Zero-point correction=                           0.136618 (Hartree/Particle)
 Thermal correction to Energy=                    0.146007
 Thermal correction to Enthalpy=                  0.146951
 Thermal correction to Gibbs Free Energy=         0.101499
 Sum of electronic and zero-point Energies=           -610.332273
 Sum of electronic and thermal Energies=              -610.322884
 Sum of electronic and thermal Enthalpies=            -610.321939
 Sum of electronic and thermal Free Energies=         -610.367392

                     E (Thermal)             CV                S
                      KCal/Mol        Cal/Mol-Kelvin    Cal/Mol-Kelvin
 Total                   91.621             37.123             95.662
 Electronic               0.000              0.000              0.000
 Translational            0.889              2.981             41.370
 Rotational               0.889              2.981             30.676
 Vibrational             89.843             31.161             23.617
 Vibration     1          0.598              1.969              4.187
 Vibration     2          0.608              1.935              3.143
 Vibration     3          0.622              1.890              2.541
 Vibration     4          0.636              1.845              2.164
 Vibration     5          0.670              1.739              1.637
 Vibration     6          0.687              1.691              1.470
 Vibration     7          0.744              1.529              1.070
 Vibration     8          0.789              1.410              0.867
 Vibration     9          0.802              1.379              0.820
 Vibration    10          0.819              1.336              0.762
 Vibration    11          0.844              1.276              0.688
 Vibration    12          0.889              1.175              0.579
 Vibration    13          0.907              1.137              0.541

 Optimization completed.
    -- Stationary point found.
 Normal termination of Gaussian 16 at Mon Jan  8 21:39:59 2024.
