 Q-Chem 5.4, Q-Chem, Inc., Pleasanton, CA (2021)
 Q-Chem 5.4.0 for Intel X86 EM64T Linux

User input:
--------------------------------------------------------------
$molecule
-1 2
C                 -0.9400550000      2.0907850000     -0.2181370000
C                 -1.3410870000      2.2042650000      1.1000680000
C                 -0.6839640000      1.4641910000      2.1037800000
C                  0.1258220000      1.2383260000     -0.5791590000
C                  0.7914130000      0.4898770000      0.4338370000
C                  0.3644180000      0.6234380000      1.7665310000
C                  0.5449320000      1.1201330000     -1.9597250000
C                  1.6443590000      0.2228910000     -2.2303740000
C                  2.3048380000     -0.5217950000     -1.2761280000
C                  1.9146070000     -0.4166360000      0.1132870000
O                  0.0216970000      1.7420210000     -2.9420700000
O                  2.4996560000     -1.0676920000      1.0181760000
H                 -1.4298750000      2.6495420000     -1.0076770000
H                 -2.1628820000      2.8639870000      1.3634040000
H                 -0.9997090000      1.5538530000      3.1389490000
H                  0.8882270000      0.0432340000      2.5178060000
O                  1.9862140000      0.1652380000     -3.5507050000
C                  3.4467710000     -1.4353670000     -1.6390720000
C                  4.8275760000     -0.7690020000     -1.4863740000
C                  5.9906930000     -1.7087390000     -1.8217010000
C                  7.3697460000     -1.0563000000     -1.6719750000
C                  8.5379290000     -1.9912460000     -2.0061720000
C                  9.9145980000     -1.3343740000     -1.8527160000
C                 11.0839640000     -2.2673550000     -2.1870860000
C                 12.4576270000     -1.6031160000     -2.0301270000
C                 13.6243890000     -2.5452810000     -2.3696460000
C                 14.9626840000     -1.8490300000     -2.2005140000
Br                16.4967680000     -3.0423890000     -2.6352100000
H                  1.3385770000      0.7851890000     -3.9538450000
H                  3.3271050000     -1.7798290000     -2.6714280000
H                  3.4097890000     -2.3076240000     -0.9784430000
H                  4.9278870000     -0.4139190000     -0.4552120000
H                  4.8719700000      0.1141720000     -2.1349940000
H                  5.8758460000     -2.0773430000     -2.8503980000
H                  5.9374030000     -2.5929980000     -1.1726770000
H                  7.4836200000     -0.6891230000     -0.6437140000
H                  7.4212120000     -0.1696860000     -2.3177330000
H                  8.4251870000     -2.3578990000     -3.0350810000
H                  8.4869840000     -2.8781850000     -1.3609750000
H                 10.0269050000     -0.9685750000     -0.8237660000
H                  9.9648450000     -0.4468340000     -2.4969880000
H                 10.9748110000     -2.6320070000     -3.2164420000
H                 11.0363270000     -3.1546010000     -1.5429710000
H                 12.5678370000     -1.2411300000     -1.0001430000
H                 12.5051400000     -0.7158300000     -2.6740070000
H                 13.5251880000     -2.9013600000     -3.3997510000
H                 13.5875240000     -3.4282400000     -1.7240790000
H                 15.1416930000     -1.5331130000     -1.1745930000
H                 15.0776050000     -0.9982910000     -2.8693990000
$end

$rem
BASIS  =  6-311++G(d,p)
GUI  =  2
JOB_TYPE  =  SP
METHOD  =  B3LYP
SCF_CONVERGENCE  = 8
SOLVENT_METHOD = sm12
$end

$smx
solvent dimethylformamide
charges CM5
$end

--------------------------------------------------------------

             Standard Nuclear Orientation (Angstroms)
    I     Atom           X                Y                Z
 ----------------------------------------------------------------
    1      C      -0.9400550000     2.0907850000    -0.2181370000
    2      C      -1.3410870000     2.2042650000     1.1000680000
    3      C      -0.6839640000     1.4641910000     2.1037800000
    4      C       0.1258220000     1.2383260000    -0.5791590000
    5      C       0.7914130000     0.4898770000     0.4338370000
    6      C       0.3644180000     0.6234380000     1.7665310000
    7      C       0.5449320000     1.1201330000    -1.9597250000
    8      C       1.6443590000     0.2228910000    -2.2303740000
    9      C       2.3048380000    -0.5217950000    -1.2761280000
   10      C       1.9146070000    -0.4166360000     0.1132870000
   11      O       0.0216970000     1.7420210000    -2.9420700000
   12      O       2.4996560000    -1.0676920000     1.0181760000
   13      H      -1.4298750000     2.6495420000    -1.0076770000
   14      H      -2.1628820000     2.8639870000     1.3634040000
   15      H      -0.9997090000     1.5538530000     3.1389490000
   16      H       0.8882270000     0.0432340000     2.5178060000
   17      O       1.9862140000     0.1652380000    -3.5507050000
   18      C       3.4467710000    -1.4353670000    -1.6390720000
   19      C       4.8275760000    -0.7690020000    -1.4863740000
   20      C       5.9906930000    -1.7087390000    -1.8217010000
   21      C       7.3697460000    -1.0563000000    -1.6719750000
   22      C       8.5379290000    -1.9912460000    -2.0061720000
   23      C       9.9145980000    -1.3343740000    -1.8527160000
   24      C      11.0839640000    -2.2673550000    -2.1870860000
   25      C      12.4576270000    -1.6031160000    -2.0301270000
   26      C      13.6243890000    -2.5452810000    -2.3696460000
   27      C      14.9626840000    -1.8490300000    -2.2005140000
   28      Br     16.4967680000    -3.0423890000    -2.6352100000
   29      H       1.3385770000     0.7851890000    -3.9538450000
   30      H       3.3271050000    -1.7798290000    -2.6714280000
   31      H       3.4097890000    -2.3076240000    -0.9784430000
   32      H       4.9278870000    -0.4139190000    -0.4552120000
   33      H       4.8719700000     0.1141720000    -2.1349940000
   34      H       5.8758460000    -2.0773430000    -2.8503980000
   35      H       5.9374030000    -2.5929980000    -1.1726770000
   36      H       7.4836200000    -0.6891230000    -0.6437140000
   37      H       7.4212120000    -0.1696860000    -2.3177330000
   38      H       8.4251870000    -2.3578990000    -3.0350810000
   39      H       8.4869840000    -2.8781850000    -1.3609750000
   40      H      10.0269050000    -0.9685750000    -0.8237660000
   41      H       9.9648450000    -0.4468340000    -2.4969880000
   42      H      10.9748110000    -2.6320070000    -3.2164420000
   43      H      11.0363270000    -3.1546010000    -1.5429710000
   44      H      12.5678370000    -1.2411300000    -1.0001430000
   45      H      12.5051400000    -0.7158300000    -2.6740070000
   46      H      13.5251880000    -2.9013600000    -3.3997510000
   47      H      13.5875240000    -3.4282400000    -1.7240790000
   48      H      15.1416930000    -1.5331130000    -1.1745930000
   49      H      15.0776050000    -0.9982910000    -2.8693990000
 ----------------------------------------------------------------

   18   -3577.3840944266      5.13e-09  Convergence criterion met
 Total energy in the final basis set =    -3577.4756297346

                    Orbital Energies (a.u.)
 --------------------------------------------------------------

 Alpha MOs
 -- Occupied --
******** -62.4645 -56.2848 -56.2811 -56.2811 -19.1444 -19.0861 -19.0733
-10.2241 -10.2238 -10.2235 -10.2217 -10.1818 -10.1805 -10.1804 -10.1789
-10.1782 -10.1776 -10.1763 -10.1708 -10.1659 -10.1652 -10.1647 -10.1638
-10.1634 -10.1633 -10.1631 -10.1628  -8.6731  -6.5040  -6.4918  -6.4917
 -2.6150  -2.6116  -2.6114  -2.6018  -2.6017  -1.0640  -0.9983  -0.9955
 -0.8641  -0.8272  -0.8190  -0.8075  -0.7899  -0.7696  -0.7575  -0.7482
 -0.7231  -0.6935  -0.6714  -0.6479  -0.6243  -0.6137  -0.5957  -0.5856
 -0.5782  -0.5773  -0.5725  -0.5415  -0.5080  -0.4944  -0.4883  -0.4802
 -0.4674  -0.4599  -0.4553  -0.4406  -0.4360  -0.4338  -0.4303  -0.4300
 -0.4190  -0.4114  -0.4072  -0.4047  -0.3936  -0.3894  -0.3872  -0.3810
 -0.3781  -0.3681  -0.3628  -0.3591  -0.3500  -0.3458  -0.3445  -0.3430
 -0.3401  -0.3332  -0.3319  -0.3270  -0.3254  -0.3239  -0.3078  -0.2751
 -0.2748  -0.2709  -0.2640  -0.2588  -0.2382  -0.2310  -0.1522

 Beta MOs
 -- Occupied --
******** -62.4645 -56.2848 -56.2811 -56.2811 -19.1440 -19.0794 -19.0677
-10.2235 -10.2231 -10.2229 -10.2191 -10.1818 -10.1801 -10.1796 -10.1785
-10.1781 -10.1768 -10.1763 -10.1708 -10.1659 -10.1649 -10.1643 -10.1638
-10.1634 -10.1633 -10.1631 -10.1627  -8.6731  -6.5040  -6.4918  -6.4917
 -2.6150  -2.6116  -2.6114  -2.6018  -2.6017  -1.0619  -0.9887  -0.9843
 -0.8618  -0.8272  -0.8173  -0.8061  -0.7888  -0.7685  -0.7555  -0.7474
 -0.7223  -0.6914  -0.6652  -0.6465  -0.6231  -0.6123  -0.5947  -0.5850
 -0.5780  -0.5770  -0.5703  -0.5399  -0.5058  -0.4944  -0.4866  -0.4790
 -0.4662  -0.4590  -0.4549  -0.4365  -0.4349  -0.4333  -0.4297  -0.4243
 -0.4168  -0.4069  -0.4045  -0.4032  -0.3916  -0.3867  -0.3811  -0.3790
 -0.3740  -0.3676  -0.3589  -0.3527  -0.3486  -0.3441  -0.3411  -0.3386
 -0.3326  -0.3325  -0.3283  -0.3268  -0.3247  -0.3233  -0.3071  -0.2751
 -0.2748  -0.2568  -0.2528  -0.2506  -0.2329  -0.2209

          Ground-State Mulliken Net Atomic Charges

     Atom                 Charge (a.u.)    Spin (a.u.)
  --------------------------------------------------------
      1 C                     0.050517       0.072329
      2 C                     0.826375       0.001396
      3 C                     0.830263       0.075047
      4 C                    -0.514444       0.006429
      5 C                    -1.186954       0.072736
      6 C                    -0.192000      -0.000492
      7 C                    -1.547444       0.136548
      8 C                    -0.570184       0.058366
      9 C                     1.208143       0.059728
     10 C                    -2.007438       0.049982
     11 O                    -0.377442       0.248306
     12 O                    -0.290044       0.210697
     13 H                     0.169540      -0.004009
     14 H                     0.354036      -0.000712
     15 H                     0.339266      -0.005327
     16 H                     0.139811      -0.000266
     17 O                    -0.140437       0.015858
     18 C                    -0.821980       0.013267
     19 C                    -2.914368       0.001134
     20 C                    -1.405610      -0.000978
     21 C                    -0.460389      -0.007559
     22 C                     0.777042      -0.001799
     23 C                     1.484105      -0.000130
     24 C                     1.327725       0.000439
     25 C                     1.162614       0.000019
     26 C                     0.292779       0.000013
     27 C                    -0.183639      -0.000021
     28 Br                   -0.226426       0.000002
     29 H                     0.296011      -0.004034
     30 H                     0.183467      -0.000900
     31 H                     0.122880       0.002930
     32 H                     0.056159      -0.001786
     33 H                     0.073713       0.002731
     34 H                     0.181928      -0.000480
     35 H                     0.185818       0.000667
     36 H                     0.131167      -0.000030
     37 H                     0.140038      -0.000090
     38 H                     0.098249      -0.000001
     39 H                     0.090579      -0.000001
     40 H                     0.101180       0.000003
     41 H                     0.099467      -0.000002
     42 H                     0.132092      -0.000012
     43 H                     0.131193       0.000004
     44 H                     0.136593      -0.000002
     45 H                     0.138275       0.000001
     46 H                     0.103429       0.000001
     47 H                     0.102871      -0.000001
     48 H                     0.185590      -0.000000
     49 H                     0.185885       0.000002
  --------------------------------------------------------
  Sum of atomic charges =    -1.000000

                    Cartesian Multipole Moments
 -----------------------------------------------------------------
    Charge (ESU x 10^10)
                -4.8032
    Dipole Moment (Debye)
         X      -9.1297      Y       0.1945      Z       4.9442
       Tot      10.3844
    Quadrupole Moments (Debye-Ang)
        XX    -259.8341     XY      32.5416     YY    -181.3729
        XZ      13.7160     YZ       4.6831     ZZ    -188.1046

 Total job time:  2826.44s(wall), 20847.55s(cpu)
        *  Thank you very much for using Q-Chem.  Have a nice day.  *
