 Q-Chem 5.4, Q-Chem, Inc., Pleasanton, CA (2021)
 Q-Chem 5.4.0 for Intel X86 EM64T Linux

User input:
--------------------------------------------------------------
$molecule
-2 1
C                  7.0974530000     -1.8451810000     -0.5879930000
C                  7.6251970000     -0.8160340000     -1.4556560000
C                  6.7586740000      0.2527410000     -1.8964250000
C                  5.4532470000      0.2597420000     -1.4760260000
C                  4.8759160000     -0.7150210000     -0.6288640000
C                  5.7053240000     -1.8175850000     -0.1532830000
C                  5.1501350000     -2.8261860000      0.7095420000
C                  3.7360590000     -2.6562320000      1.0540670000
C                  2.9340960000     -1.5670670000      0.5785600000
C                  3.4844460000     -0.5395580000     -0.2945990000
C                  3.1238700000     -3.6130050000      1.8994260000
C                  1.7951630000     -3.5228000000      2.2699910000
C                  1.0052880000     -2.4445690000      1.7978960000
C                  1.5770520000     -1.4959410000      0.9712410000
O                  5.7891150000     -3.8369770000      1.1839720000
O                  2.7639630000      0.4324490000     -0.7174160000
H                  4.7808360000      1.0528140000     -1.7934280000
H                  3.7566820000     -4.4249310000      2.2425890000
H                  1.0067520000     -0.6553140000      0.5883900000
C                  7.2791750000      1.3398430000     -2.8011290000
H                 -0.0420050000     -2.3659960000      2.0848390000
C                  8.9770670000     -0.8707840000     -1.8593270000
C                  8.0048770000     -2.8641470000     -0.1952640000
C                  9.3342570000     -2.8799820000     -0.6177180000
C                  9.8489010000     -1.8880470000     -1.4556280000
C                 11.2890040000     -1.9021400000     -1.9116760000
H                  1.3561480000     -4.2764770000      2.9217780000
H                  8.1156530000      1.8998740000     -2.3519290000
H                  6.4822000000      2.0552810000     -3.0249940000
H                  7.6564900000      0.9478940000     -3.7598770000
H                  9.3585870000     -0.0897830000     -2.5116630000
H                  7.6112890000     -3.6349030000      0.4536130000
H                  9.9843220000     -3.6884240000     -0.2833780000
H                 11.8383270000     -1.0083520000     -1.5797890000
H                 11.3758700000     -1.9339970000     -3.0079470000
H                 11.8162410000     -2.7767440000     -1.5152360000
$end
$rem
MAX_SCF_CYCLES=200
BASIS  =  6-311++G(d,p)
GUI  =  2
JOB_TYPE  =  SP
METHOD  =  B3LYP
SOLVENT_METHOD = COSMO
$end
$solvent
dielectric 37.219
opticaldielectric 1.43
$end

--------------------------------------------------------------

             Standard Nuclear Orientation (Angstroms)
    I     Atom           X                Y                Z
 ----------------------------------------------------------------
    1      C       1.3659812442    -0.5028801358     0.0002084720
    2      C       2.3152959144     0.5876692427    -0.0000533510
    3      C       1.8312632412     1.9489670647    -0.0002343525
    4      C       0.4773841881     2.1679085269     0.0001280529
    5      C      -0.5023231583     1.1474523414     0.0004925188
    6      C      -0.0699763440    -0.2463979068     0.0005920745
    7      C      -1.0398530359    -1.3090911161     0.0009512639
    8      C      -2.4427480362    -0.8859148586     0.0004565855
    9      C      -2.8517750472     0.4882135348     0.0003132676
   10      C      -1.8798980246     1.5728892674     0.0006521370
   11      C      -3.4512906302    -1.8797274377     0.0000350410
   12      C      -4.7965050045    -1.5614262987    -0.0005350389
   13      C      -5.1972123742    -0.2017234395    -0.0007154681
   14      C      -4.2338647379     0.7893006589    -0.0002559818
   15      O      -0.7692209054    -2.5668014932     0.0001975578
   16      O      -2.2498929638     2.7999880010     0.0005120101
   17      H       0.0876095832     3.1827580397     0.0000700425
   18      H      -3.1100570424    -2.9097737049     0.0002005639
   19      H      -4.4989843714     1.8420030363    -0.0003825688
   20      C       2.7957095000     3.1070018644    -0.0006742625
   21      H      -6.2545726791     0.0577405196    -0.0012341422
   22      C       3.6990045735     0.3068665131    -0.0007670794
   23      C       1.9123223304    -1.8133979949    -0.0004631196
   24      C       3.2877396847    -2.0461985814    -0.0010127160
   25      C       4.2088194288    -0.9961991700    -0.0010042313
   26      C       5.6985777479    -1.2465783799     0.0013288607
   27      H      -5.5460251948    -2.3512419867    -0.0009188568
   28      H       3.4597903560     3.1050348841     0.8791572857
   29      H       2.2460608715     4.0530581353    -0.0003023137
   30      H       3.4587190365     3.1051564580    -0.8813576927
   31      H       4.3997268003     1.1375593752    -0.0010100047
   32      H       1.2032276750    -2.6302226030    -0.0005880302
   33      H       3.6485863785    -3.0746613186    -0.0015313719
   34      H       6.1885507943    -0.8276427779     0.8930581376
   35      H       6.1956527254    -0.7952989573    -0.8702410020
   36      H       5.9147172590    -2.3203633326    -0.0172526267
 ----------------------------------------------------------------

   11    -921.2736306840      7.99e-06  Convergence criterion met
 Total energy in the final basis set =     -921.2736306840
    6    -921.5345046338      2.99e-06  Convergence criterion met
 Total energy in the final basis set =     -921.5345046338

                    Orbital Energies (a.u.)
 --------------------------------------------------------------

 Alpha MOs
 -- Occupied --
-19.0296 -19.0269 -10.1820 -10.1818 -10.1635 -10.1632 -10.1628 -10.1551
-10.1539 -10.1535 -10.1534 -10.1512 -10.1507 -10.1504 -10.1500 -10.1489
-10.1439 -10.1431 -10.1425 -10.1408 -10.1406 -10.1344  -0.9507  -0.9471
 -0.8499  -0.8308  -0.8060  -0.7691  -0.7508  -0.7269  -0.7256  -0.7103
 -0.6838  -0.6626  -0.6338  -0.6029  -0.5932  -0.5761  -0.5607  -0.5306
 -0.5122  -0.4877  -0.4749  -0.4622  -0.4450  -0.4351  -0.4195  -0.4150
 -0.4106  -0.4091  -0.4030  -0.4019  -0.3900  -0.3843  -0.3814  -0.3728
 -0.3679  -0.3642  -0.3602  -0.3520  -0.3463  -0.3350  -0.3296  -0.3216
 -0.3154  -0.3123  -0.3020  -0.2857  -0.2507  -0.2349  -0.2310  -0.2244
 -0.2097  -0.1982  -0.1929  -0.1152

          Ground-State Mulliken Net Atomic Charges

     Atom                 Charge (a.u.)
  ----------------------------------------
      1 C                     0.657167
      2 C                     0.520010
      3 C                     0.523485
      4 C                    -0.257954
      5 C                     0.250303
      6 C                     0.417965
      7 C                    -0.718290
      8 C                     0.142785
      9 C                     0.247526
     10 C                    -0.473313
     11 C                     0.022959
     12 C                    -0.537467
     13 C                    -0.419846
     14 C                    -0.067833
     15 O                    -0.639091
     16 O                    -0.674656
     17 H                     0.100965
     18 H                     0.156999
     19 H                     0.154824
     20 C                    -0.402666
     21 H                     0.185063
     22 C                    -0.359459
     23 C                    -0.881054
     24 C                    -1.061986
     25 C                    -0.096380
     26 C                    -0.410291
     27 H                     0.183744
     28 H                     0.157513
     29 H                     0.174371
     30 H                     0.157593
     31 H                     0.111390
     32 H                     0.150144
     33 H                     0.170495
     34 H                     0.175677
     35 H                     0.173657
     36 H                     0.165645
  ----------------------------------------
  Sum of atomic charges =    -2.000006

                    Cartesian Multipole Moments
 -----------------------------------------------------------------
    Charge (ESU x 10^10)
                -9.6064
    Dipole Moment (Debye)
         X      11.4691      Y      -0.6069      Z      -0.0012
       Tot      11.4852
    Quadrupole Moments (Debye-Ang)
        XX    -172.5675     XY      14.9800     YY    -185.1012
        XZ       0.0230     YZ      -0.0098     ZZ    -143.0939

 Total job time:  144.97s(wall), 1121.67s(cpu)
        *  Thank you very much for using Q-Chem.  Have a nice day.  *
