 Gaussian 16, Revision A.03,
 Gaussian 16:  ES64L-G16RevA.03 25-Dec-2016

 ----------------------------------------------------------------
 #P UB3LYP/6-311++G(d,p) SCRF=(PCM,Solvent=n,n-DiMethylFormamide)
 ----------------------------------------------------------------

 -------
 Reduced
 -------
 Symbolic Z-matrix:
 Charge = -2 Multiplicity = 1

                         Standard orientation:
 ---------------------------------------------------------------------
 Center     Atomic      Atomic             Coordinates (Angstroms)
 Number     Number       Type             X           Y           Z
 ---------------------------------------------------------------------
      1          8           0        2.660562   -2.227246   -0.000832
      2          6           0        2.485320   -0.934050   -0.000037
      3          6           0        3.559504   -0.025977    0.000796
      4          6           0        3.350278    1.372277    0.000852
      5          6           0        2.079643    1.909357    0.000259
      6          6           0        0.939036    1.059236   -0.000241
      7          6           0       -0.389031    1.661170   -0.000324
      8          8           0       -0.564943    2.926635   -0.000869
      9          6           0       -1.498767    0.726791   -0.000270
     10          6           0       -2.825723    1.211921    0.000121
     11          6           0       -3.925255    0.374440    0.000530
     12          6           0       -3.722885   -1.037977    0.000475
     13          6           0       -2.449265   -1.555978    0.000080
     14          6           0       -1.292021   -0.713048   -0.000306
     15          6           0        0.005514   -1.237931   -0.000360
     16          8           0        0.181319   -2.606313    0.000255
     17          6           0        1.125010   -0.368698   -0.000316
     18          1           0        1.194273   -2.704043   -0.000641
     19          1           0        4.565030   -0.441371    0.000948
     20          1           0        4.216714    2.035497    0.001502
     21          1           0        1.903141    2.978686    0.000112
     22          1           0       -2.939924    2.292084    0.000142
     23          1           0       -4.933804    0.782979    0.000860
     24          1           0       -4.581197   -1.708672    0.000910
     25          1           0       -2.287882   -2.628950    0.000184
 ---------------------------------------------------------------------

 SCF Done:  E(UB3LYP) =  -764.463834137     A.U. after   16 cycles

 The electronic state is 1-A.
 Alpha  occ. eigenvalues --  -19.09417 -19.04797 -19.03005 -10.19697 -10.18701
 Alpha  occ. eigenvalues --  -10.18585 -10.15611 -10.15333 -10.15178 -10.15118
 Alpha  occ. eigenvalues --  -10.15007 -10.14702 -10.14503 -10.14171 -10.13913
 Alpha  occ. eigenvalues --  -10.12920 -10.12646  -1.00955  -0.95502  -0.95032
 Alpha  occ. eigenvalues --   -0.83452  -0.80910  -0.76087  -0.73191  -0.70873
 Alpha  occ. eigenvalues --   -0.69680  -0.64728  -0.60841  -0.59511  -0.55268
 Alpha  occ. eigenvalues --   -0.54213  -0.50638  -0.49325  -0.47905  -0.44537
 Alpha  occ. eigenvalues --   -0.43640  -0.43214  -0.41672  -0.40293  -0.39591
 Alpha  occ. eigenvalues --   -0.38579  -0.38421  -0.37128  -0.35813  -0.35563
 Alpha  occ. eigenvalues --   -0.35048  -0.34428  -0.32426  -0.32022  -0.31846
 Alpha  occ. eigenvalues --   -0.30591  -0.28545  -0.25100  -0.23536  -0.22483
 Alpha  occ. eigenvalues --   -0.21890  -0.20250  -0.18239  -0.12091
 Alpha virt. eigenvalues --   -0.02548   0.00108   0.00131   0.00845   0.01536
 Alpha virt. eigenvalues --    0.02405   0.02721   0.03074   0.04641   0.04795
 Alpha virt. eigenvalues --    0.04907   0.05123   0.06672   0.06895   0.07082

  Beta  occ. eigenvalues --  -19.09417 -19.04797 -19.03005 -10.19697 -10.18701
  Beta  occ. eigenvalues --  -10.18585 -10.15611 -10.15333 -10.15178 -10.15118
  Beta  occ. eigenvalues --  -10.15007 -10.14702 -10.14503 -10.14171 -10.13913
  Beta  occ. eigenvalues --  -10.12920 -10.12646  -1.00955  -0.95502  -0.95032
  Beta  occ. eigenvalues --   -0.83452  -0.80910  -0.76087  -0.73191  -0.70873
  Beta  occ. eigenvalues --   -0.69680  -0.64728  -0.60841  -0.59511  -0.55268
  Beta  occ. eigenvalues --   -0.54213  -0.50638  -0.49325  -0.47905  -0.44537
  Beta  occ. eigenvalues --   -0.43640  -0.43214  -0.41672  -0.40293  -0.39591
  Beta  occ. eigenvalues --   -0.38579  -0.38421  -0.37128  -0.35813  -0.35563
  Beta  occ. eigenvalues --   -0.35048  -0.34428  -0.32426  -0.32022  -0.31846
  Beta  occ. eigenvalues --   -0.30591  -0.28545  -0.25100  -0.23536  -0.22483
  Beta  occ. eigenvalues --   -0.21890  -0.20250  -0.18239  -0.12091
  Beta virt. eigenvalues --   -0.02548   0.00108   0.00131   0.00845   0.01536
  Beta virt. eigenvalues --    0.02405   0.02721   0.03074   0.04641   0.04795
  Beta virt. eigenvalues --    0.04907   0.05123   0.06672   0.06895   0.07082

 Mulliken charges and spin densities:
               1          2
     1  O   -0.646314   0.000000
     2  C   -0.404660  -0.000000
     3  C   -0.281024  -0.000000
     4  C   -0.375684   0.000000
     5  C   -0.220860   0.000000
     6  C    0.502353  -0.000000
     7  C   -0.396116  -0.000000
     8  O   -0.615112  -0.000000
     9  C   -0.051188   0.000000
    10  C   -0.037007  -0.000000
    11  C   -0.501846   0.000000
    12  C   -0.448636   0.000000
    13  C   -0.149462   0.000000
    14  C    0.192052  -0.000000
    15  C   -0.030274   0.000000
    16  O   -0.522284   0.000000
    17  C    0.534154   0.000000
    18  H    0.404052  -0.000000
    19  H    0.138982  -0.000000
    20  H    0.154537   0.000000
    21  H    0.133417   0.000000
    22  H    0.147618   0.000000
    23  H    0.161300   0.000000
    24  H    0.161841   0.000000
    25  H    0.150161  -0.000000
 Sum of Mulliken charges =  -2.00000   0.00000

 Dipole moment (field-independent basis, Debye):
    X=             -5.3067    Y=             -1.2768    Z=              0.0033  Tot=              5.4582
 Quadrupole moment (field-independent basis, Debye-Ang):
   XX=           -143.4924   YY=           -157.0573   ZZ=           -111.0639
   XY=             16.7019   XZ=             -0.0002   YZ=              0.0067

 Normal termination of Gaussian 16 at Sun Jan 14 01:35:19 2024.
