 Gaussian 16, Revision A.03,
 Gaussian 16:  ES64L-G16RevA.03 25-Dec-2016

 ----------------------------------------------------------------------
 #P UB3LYP/6-311++G(d,p) nosym opt freq SCRF=(PCM,Solvent=n,n-DiMethylF
 ormamide)
 ----------------------------------------------------------------------

 -------
 Radical
 -------
 Symbolic Z-matrix:
 Charge = -1 Multiplicity = 2

 SCF Done:  E(UB3LYP) =  -1505.95115538     A.U. after   22 cycles
 SCF Done:  E(UB3LYP) =  -1505.95151466     A.U. after   23 cycles
 SCF Done:  E(UB3LYP) =  -1505.95094573     A.U. after   23 cycles
 SCF Done:  E(UB3LYP) =  -1505.95194978     A.U. after   23 cycles
 SCF Done:  E(UB3LYP) =  -1505.95189440     A.U. after   19 cycles
 SCF Done:  E(UB3LYP) =  -1505.95220522     A.U. after   18 cycles
 SCF Done:  E(UB3LYP) =  -1505.95222215     A.U. after   18 cycles
 SCF Done:  E(UB3LYP) =  -1505.95225404     A.U. after   17 cycles
 SCF Done:  E(UB3LYP) =  -1505.95225620     A.U. after   20 cycles
 SCF Done:  E(UB3LYP) =  -1505.95226257     A.U. after   15 cycles
 SCF Done:  E(UB3LYP) =  -1505.95226356     A.U. after   15 cycles
 SCF Done:  E(UB3LYP) =  -1505.95226368     A.U. after   13 cycles
 SCF Done:  E(UB3LYP) =  -1505.95226370     A.U. after   11 cycles
 SCF Done:  E(UB3LYP) =  -1505.95226372     A.U. after   13 cycles
 SCF Done:  E(UB3LYP) =  -1505.95226372     A.U. after   13 cycles
 SCF Done:  E(UB3LYP) =  -1505.95226373     A.U. after   11 cycles
 Optimization completed.
    -- Stationary point found.
 Normal termination of Gaussian 16 at Sat Feb 10 15:23:11 2024.

 ----------------------------------------------------------------------
 #P Geom=AllCheck Guess=TCheck SCRF=Check GenChk UB3LYP/6-311++G(d,p) F
 req
 ----------------------------------------------------------------------

 Structure from the checkpoint file:  "069-rad.chk"
 -------
 Radical
 -------
 Charge = -1 Multiplicity = 2

                          Input orientation:
 ---------------------------------------------------------------------
 Center     Atomic      Atomic             Coordinates (Angstroms)
 Number     Number       Type             X           Y           Z
 ---------------------------------------------------------------------
      1          6           0        1.222900    1.441528   -0.204335
      2          6           0        0.091511    0.998195    0.586344
      3          6           0       -0.095601   -0.304742    0.924112
      4          6           0        0.828323   -1.345725    0.530038
      5          6           0        1.976901   -0.936582   -0.269910
      6          6           0        2.138058    0.389813   -0.626330
      7          8           0        1.399922    2.652757   -0.489932
      8          8           0        0.657239   -2.553781    0.860384
      9         16           0        3.500210    0.900827   -1.690866
     10          6           0        4.508724    2.038924   -0.722424
     11          6           0        4.514392    3.393264   -1.041849
     12          6           0        5.293322    1.522759    0.308652
     13          6           0        6.099421    2.393127    1.038813
     14          6           0        5.333589    4.251854   -0.310561
     15          6           0        6.120956    3.753928    0.727907
     16          8           0        2.984826    1.621291   -2.869706
     17          8           0        4.324927   -0.300478   -1.944358
     18          1           0       -0.605556    1.767418    0.902262
     19          1           0       -0.950470   -0.612289    1.517818
     20          1           0        3.888964    3.760739   -1.843729
     21          1           0        5.279394    0.463475    0.534806
     22          1           0        6.713849    2.007582    1.843722
     23          1           0        5.352955    5.308343   -0.550797
     24          1           0        6.752793    4.426614    1.296359
     25          6           0        2.942932   -2.075126   -0.554974
     26          6           0        2.712118   -2.934270   -1.751265
     27          6           0        1.694042   -2.654408   -2.671089
     28          6           0        3.530523   -4.054818   -1.952289
     29          6           0        1.498475   -3.479657   -3.776136
     30          6           0        2.318182   -4.591379   -3.969836
     31          6           0        3.335221   -4.878027   -3.055218
     32          8           0        3.813951   -2.321177    0.263200
     33          1           0        1.055165   -1.791488   -2.525865
     34          1           0        4.314702   -4.267028   -1.235968
     35          1           0        0.708783   -3.256254   -4.484090
     36          1           0        2.165964   -5.233806   -4.829851
     37          1           0        3.971683   -5.742636   -3.205218
 ---------------------------------------------------------------------

 SCF Done:  E(UB3LYP) =  -1505.95226373     A.U. after    2 cycles

 Alpha  occ. eigenvalues --  -89.05662 -19.12281 -19.12094 -19.11995 -19.09552
 Alpha  occ. eigenvalues --  -19.09394 -10.27993 -10.24636 -10.24172 -10.21761
 Alpha  occ. eigenvalues --  -10.21440 -10.20705 -10.19880 -10.19666 -10.19281
 Alpha  occ. eigenvalues --  -10.19232 -10.19096 -10.19038 -10.18922 -10.18864
 Alpha  occ. eigenvalues --  -10.18669 -10.18491 -10.18486 -10.18185 -10.18075
 Alpha  occ. eigenvalues --   -8.12041  -6.08324  -6.08212  -6.08138  -1.11344
 Alpha  occ. eigenvalues --   -1.05716  -1.02074  -1.01649  -1.00686  -0.88131
 Alpha  occ. eigenvalues --   -0.87177  -0.85212  -0.79298  -0.78348  -0.76838
 Alpha  occ. eigenvalues --   -0.76750  -0.75990  -0.72526  -0.68095  -0.65821
 Alpha  occ. eigenvalues --   -0.63007  -0.62682  -0.61983  -0.60681  -0.58172
 Alpha  occ. eigenvalues --   -0.56092  -0.54346  -0.52779  -0.50606  -0.50286
 Alpha  occ. eigenvalues --   -0.48866  -0.48634  -0.47971  -0.46941  -0.46442
 Alpha  occ. eigenvalues --   -0.45967  -0.45458  -0.45017  -0.44303  -0.44043
 Alpha  occ. eigenvalues --   -0.43469  -0.42570  -0.42269  -0.41497  -0.39694
 Alpha  occ. eigenvalues --   -0.39514  -0.39224  -0.38701  -0.38304  -0.37086
 Alpha  occ. eigenvalues --   -0.37043  -0.36566  -0.35491  -0.34519  -0.33215
 Alpha  occ. eigenvalues --   -0.31669  -0.30743  -0.30421  -0.28762  -0.28136
 Alpha  occ. eigenvalues --   -0.27455  -0.27154  -0.26876  -0.26723  -0.26044
 Alpha  occ. eigenvalues --   -0.24832  -0.18340
 Alpha virt. eigenvalues --   -0.07151  -0.05536  -0.03552  -0.02784  -0.02360
 Alpha virt. eigenvalues --   -0.00507   0.00059   0.00399   0.00767   0.01362
 Alpha virt. eigenvalues --    0.01844   0.02051   0.02275   0.02616   0.03211

  Beta  occ. eigenvalues --  -89.05664 -19.12256 -19.12084 -19.11997 -19.08779
  Beta  occ. eigenvalues --  -19.08744 -10.28008 -10.24553 -10.24066 -10.21760
  Beta  occ. eigenvalues --  -10.21325 -10.20447 -10.19878 -10.19664 -10.19279
  Beta  occ. eigenvalues --  -10.19230 -10.19096 -10.19038 -10.18920 -10.18864
  Beta  occ. eigenvalues --  -10.18668 -10.18490 -10.18485 -10.18135 -10.17988
  Beta  occ. eigenvalues --   -8.12043  -6.08326  -6.08214  -6.08141  -1.11326
  Beta  occ. eigenvalues --   -1.05642  -1.01067  -1.00577  -1.00313  -0.88124
  Beta  occ. eigenvalues --   -0.87160  -0.84581  -0.79160  -0.78239  -0.76821
  Beta  occ. eigenvalues --   -0.76673  -0.75980  -0.71886  -0.67661  -0.65648
  Beta  occ. eigenvalues --   -0.62866  -0.62659  -0.61925  -0.60516  -0.58006
  Beta  occ. eigenvalues --   -0.55973  -0.54247  -0.52643  -0.50449  -0.50083
  Beta  occ. eigenvalues --   -0.48739  -0.48570  -0.47943  -0.46867  -0.46245
  Beta  occ. eigenvalues --   -0.45939  -0.45438  -0.44865  -0.44259  -0.43945
  Beta  occ. eigenvalues --   -0.43406  -0.41932  -0.41280  -0.40773  -0.39393
  Beta  occ. eigenvalues --   -0.39094  -0.38777  -0.38339  -0.37168  -0.37045
  Beta  occ. eigenvalues --   -0.36565  -0.36260  -0.35474  -0.34404  -0.33140
  Beta  occ. eigenvalues --   -0.31526  -0.30606  -0.28814  -0.28014  -0.27433
  Beta  occ. eigenvalues --   -0.27008  -0.26813  -0.26613  -0.26344  -0.25392
  Beta  occ. eigenvalues --   -0.24330
  Beta virt. eigenvalues --   -0.11068  -0.07136  -0.05076  -0.03026  -0.02492
  Beta virt. eigenvalues --   -0.02024  -0.00488   0.00088   0.00769   0.01251
  Beta virt. eigenvalues --    0.01847   0.01999   0.02269   0.02404   0.02683

 Mulliken charges and spin densities:
               1          2
     1  C   -0.413891   0.030598
     2  C    0.135345   0.060772
     3  C   -0.309440   0.042502
     4  C   -0.168129   0.077509
     5  C    0.834855   0.179852
     6  C   -0.293912   0.124501
     7  O   -0.384443   0.239316
     8  O   -0.424184   0.283496
     9  S    0.175084  -0.038634
    10  C    0.626347  -0.000456
    11  C    0.023962   0.017800
    12  C   -0.308676   0.002397
    13  C   -0.523482   0.000071
    14  C   -0.450560  -0.002513
    15  C   -0.326618   0.002082
    16  O   -0.167966   0.008168
    17  O   -0.145568  -0.002479
    18  H    0.218919  -0.006167
    19  H    0.209089  -0.004404
    20  H    0.250551   0.000882
    21  H    0.227535   0.000953
    22  H    0.222617   0.000044
    23  H    0.214821   0.000001
    24  H    0.193743  -0.000112
    25  C   -0.190509  -0.025590
    26  C    0.434828  -0.004704
    27  C   -0.919085   0.005998
    28  C    0.563245   0.005815
    29  C   -0.154712  -0.006005
    30  C   -0.410672   0.000269
    31  C   -0.456379   0.002039
    32  O   -0.286804   0.005288
    33  H    0.179534   0.000897
    34  H    0.216360  -0.000051
    35  H    0.221688  -0.000154
    36  H    0.182717   0.000032
    37  H    0.203789  -0.000010
 Sum of Mulliken charges =  -1.00000   1.00000

 Dipole moment (field-independent basis, Debye):
    X=             -9.9811    Y=              2.3293    Z=              3.2650  Tot=             10.7568
 Quadrupole moment (field-independent basis, Debye-Ang):
   XX=           -174.8910   YY=           -168.4704   ZZ=           -163.8635
   XY=             12.9941   XZ=             21.4331   YZ=             25.4153

  Exact polarizability: 345.424  18.192 478.109  15.054  12.101 332.110
 Approx polarizability: 379.468  -0.253 545.451  38.177 -11.546 387.060

                      1                      2                      3
                      A                      A                      A
 Frequencies --     16.5408                31.8657                35.2782
 Red. masses --      6.0478                 6.0959                 4.0565
 Frc consts  --      0.0010                 0.0036                 0.0030
 IR Inten    --      5.8403                 6.8624                 0.0772

                      4                      5                      6
                      A                      A                      A
 Frequencies --     36.7145                46.5891                64.6701
 Red. masses --      5.1299                 6.0502                 6.0672
 Frc consts  --      0.0041                 0.0077                 0.0150
 IR Inten    --      1.9594                 0.1008                 0.6798

                      7                      8                      9
                      A                      A                      A
 Frequencies --    102.1323               117.4095               151.3792
 Red. masses --      6.8430                 8.8643                 7.5948
 Frc consts  --      0.0421                 0.0720                 0.1025
 IR Inten    --      1.8324                16.0685                 2.7303

                     10                     11                     12
                      A                      A                      A
 Frequencies --    159.7100               171.8992               183.2568
 Red. masses --      8.4400                 7.1438                 7.4049
 Frc consts  --      0.1268                 0.1244                 0.1465
 IR Inten    --      2.2810                 8.1953                 1.4023

                     13                     14                     15
                      A                      A                      A
 Frequencies --    196.5641               235.7531               241.0658
 Red. masses --      7.6244                10.2861                 6.4541
 Frc consts  --      0.1736                 0.3368                 0.2210
 IR Inten    --     10.5622                 2.9654                 1.3371

                     16                     17                     18
                      A                      A                      A
 Frequencies --    271.7549               287.2179               307.4083
 Red. masses --     10.2773                11.0666                 8.6725
 Frc consts  --      0.4472                 0.5379                 0.4829
 IR Inten    --     15.5121                 6.5268                 6.9689

                     19                     20                     21
                      A                      A                      A
 Frequencies --    314.4190               357.2706               396.0725
 Red. masses --      5.8922                 6.9987                 8.2887
 Frc consts  --      0.3432                 0.5263                 0.7661
 IR Inten    --      0.1620                 1.9285                18.8038

                     22                     23                     24
                      A                      A                      A
 Frequencies --    410.2023               412.0009               427.1994
 Red. masses --      2.8857                 2.8986                 5.2450
 Frc consts  --      0.2861                 0.2899                 0.5640
 IR Inten    --      0.6202                 0.2951                13.6795

                     25                     26                     27
                      A                      A                      A
 Frequencies --    444.9685               458.5886               464.4599
 Red. masses --      7.8576                 5.8194                 5.6120
 Frc consts  --      0.9166                 0.7211                 0.7133
 IR Inten    --      4.5432                25.5921                15.4036

                     28                     29                     30
                      A                      A                      A
 Frequencies --    488.7616               511.8513               554.1461
 Red. masses --      8.4230                 6.7960                 5.8116
 Frc consts  --      1.1855                 1.0490                 1.0515
 IR Inten    --     15.0633                67.7409                97.4291

                     31                     32                     33
                      A                      A                      A
 Frequencies --    574.4124               584.6867               625.5500
 Red. masses --      6.6653                 6.8748                 6.4478
 Frc consts  --      1.2957                 1.3847                 1.4866
 IR Inten    --     55.5150               281.6971                 0.1801

                     34                     35                     36
                      A                      A                      A
 Frequencies --    629.3462               648.5765               672.9693
 Red. masses --      6.4207                 4.0377                 5.4150
 Frc consts  --      1.4983                 1.0007                 1.4449
 IR Inten    --      0.6961                15.4645                25.7513

                     37                     38                     39
                      A                      A                      A
 Frequencies --    696.4047               700.1965               703.5778
 Red. masses --      4.0437                 2.0669                 1.7199
 Frc consts  --      1.1555                 0.5970                 0.5016
 IR Inten    --      0.5510                71.1436               134.9828

                     40                     41                     42
                      A                      A                      A
 Frequencies --    713.1901               728.4275               762.5937
 Red. masses --      6.8177                 7.3528                 1.6380
 Frc consts  --      2.0432                 2.2987                 0.5612
 IR Inten    --     14.6450               120.4074                37.3623

                     43                     44                     45
                      A                      A                      A
 Frequencies --    774.4865               791.9109               839.8055
 Red. masses --      8.1461                 2.2841                 2.0128
 Frc consts  --      2.8789                 0.8439                 0.8364
 IR Inten    --     20.5598                32.0107                65.0858

                     46                     47                     48
                      A                      A                      A
 Frequencies --    853.5093               862.0562               869.2705
 Red. masses --      1.2465                 1.2535                 7.0754
 Frc consts  --      0.5350                 0.5488                 3.1500
 IR Inten    --      0.1295                 0.5445               130.0092

                     49                     50                     51
                      A                      A                      A
 Frequencies --    894.8112               943.1591               956.6526
 Red. masses --      8.4804                 1.3427                 1.4448
 Frc consts  --      4.0006                 0.7037                 0.7791
 IR Inten    --     28.0875                 1.0896                 5.4150

                     52                     53                     54
                      A                      A                      A
 Frequencies --    983.3925               996.0488              1001.2833
 Red. masses --      1.2933                 1.3785                 5.4751
 Frc consts  --      0.7369                 0.8058                 3.2341
 IR Inten    --      0.5051                 0.1453                64.7463

                     55                     56                     57
                      A                      A                      A
 Frequencies --   1002.7389              1011.7645              1014.4892
 Red. masses --      1.3996                 6.1416                 6.1634
 Frc consts  --      0.8292                 3.7042                 3.7373
 IR Inten    --      1.2342                23.9488                 7.9665

                     58                     59                     60
                      A                      A                      A
 Frequencies --   1016.6582              1018.2023              1034.0685
 Red. masses --      1.3189                 1.3129                 4.5973
 Frc consts  --      0.8032                 0.8019                 2.8964
 IR Inten    --      0.1839                 0.1862               121.8878

                     61                     62                     63
                      A                      A                      A
 Frequencies --   1043.1281              1052.9111              1095.4461
 Red. masses --      2.1383                 3.3156                 2.1264
 Frc consts  --      1.3709                 2.1657                 1.5034
 IR Inten    --      8.5614               178.9550                 8.9002

                     64                     65                     66
                      A                      A                      A
 Frequencies --   1096.8680              1101.4814              1104.3037
 Red. masses --      1.7428                 2.0537                 3.0126
 Frc consts  --      1.2354                 1.4681                 2.1645
 IR Inten    --     19.1525                71.8657               183.3979

                     67                     68                     69
                      A                      A                      A
 Frequencies --   1127.0156              1176.9663              1179.2285
 Red. masses --      1.9027                 1.1124                 1.1129
 Frc consts  --      1.4239                 0.9079                 0.9118
 IR Inten    --     26.8914                 3.6633                 0.1249

                     70                     71                     72
                      A                      A                      A
 Frequencies --   1189.2236              1193.1848              1207.1622
 Red. masses --      1.1697                 1.1566                16.7309
 Frc consts  --      0.9747                 0.9702                14.3649
 IR Inten    --     69.3392                 3.4580               358.5811

                     73                     74                     75
                      A                      A                      A
 Frequencies --   1216.1642              1251.5790              1319.5745
 Red. masses --      2.6345                 4.6610                 2.5274
 Frc consts  --      2.2958                 4.3018                 2.5929
 IR Inten    --     39.5015               338.3313                 8.6180

                     76                     77                     78
                      A                      A                      A
 Frequencies --   1329.2706              1333.9363              1342.0482
 Red. masses --      2.8336                 3.0002                 1.8666
 Frc consts  --      2.9500                 3.1453                 1.9808
 IR Inten    --      0.2440                21.7820                 6.7466

                     79                     80                     81
                      A                      A                      A
 Frequencies --   1347.6823              1406.8182              1456.7884
 Red. masses --      1.9166                 3.5621                 9.0422
 Frc consts  --      2.0509                 4.1537                11.3062
 IR Inten    --      3.7221               175.9007               319.5938

                     82                     83                     84
                      A                      A                      A
 Frequencies --   1473.5797              1475.2133              1504.6073
 Red. masses --      2.1248                 2.2148                 2.0476
 Frc consts  --      2.7184                 2.8398                 2.7311
 IR Inten    --     26.4760                25.2263                12.3685

                     85                     86                     87
                      A                      A                      A
 Frequencies --   1507.8235              1517.5514              1531.9972
 Red. masses --      7.7229                 2.2232                 7.8984
 Frc consts  --     10.3450                 3.0166                10.9221
 IR Inten    --    162.5380                 4.8456               803.6275

                     88                     89                     90
                      A                      A                      A
 Frequencies --   1614.9168              1617.6618              1622.3939
 Red. masses --      5.6126                 5.3950                 5.8837
 Frc consts  --      8.6241                 8.3179                 9.1245
 IR Inten    --     38.8778                 1.3687                 0.4443

                     91                     92                     93
                      A                      A                      A
 Frequencies --   1631.6528              1633.4502              1698.7353
 Red. masses --      5.7968                 7.0612                12.4074
 Frc consts  --      9.0927                11.1005                21.0952
 IR Inten    --     68.1251                25.8529               476.3074

                     94                     95                     96
                      A                      A                      A
 Frequencies --   3160.7949              3168.1279              3173.4521
 Red. masses --      1.0865                 1.0861                 1.0867
 Frc consts  --      6.3954                 6.4230                 6.4477
 IR Inten    --     15.5857                 0.3704                 0.5342

                     97                     98                     99
                      A                      A                      A
 Frequencies --   3177.0296              3178.3697              3183.1628
 Red. masses --      1.0887                 1.0963                 1.0895
 Frc consts  --      6.4742                 6.5249                 6.5039
 IR Inten    --      8.1215                21.6962                13.7227

                    100                    101                    102
                      A                      A                      A
 Frequencies --   3184.9680              3190.9900              3193.2045
 Red. masses --      1.0921                 1.0934                 1.0950
 Frc consts  --      6.5271                 6.5599                 6.5782
 IR Inten    --     23.2118                11.1842                19.9278

                    103                    104                    105
                      A                      A                      A
 Frequencies --   3198.1569              3198.4351              3217.1623
 Red. masses --      1.0953                 1.0969                 1.0931
 Frc consts  --      6.6006                 6.6116                 6.6660
 IR Inten    --     15.3119                15.0299                 4.4128

 - Thermochemistry -
 -------------------
 Temperature   298.150 Kelvin.  Pressure   1.00000 Atm.
 Atom     1 has atomic number  6 and mass  12.00000

 Molecular mass:   352.04055 amu.
 Principal axes and moments of inertia in atomic units:
                           1         2         3
     Eigenvalues --  5039.58427********************
           X            0.32864   0.85305   0.40533
           Y            0.90350  -0.15895  -0.39802
           Z            0.27510  -0.49702   0.82297
 This molecule is an asymmetric top.
 Rotational symmetry number  1.
 Warning -- assumption of classical behavior for rotation
           may cause significant error
 Rotational temperatures (Kelvin)      0.01719     0.00741     0.00649
 Rotational constants (GHZ):           0.35811     0.15438     0.13528
 Zero-point vibrational energy     690398.5 (Joules/Mol)
                                  165.00919 (Kcal/Mol)
 Warning -- explicit consideration of  32 degrees of freedom as
           vibrations may cause significant error
 Vibrational temperatures:     23.80    45.85    50.76    52.82    67.03
          (Kelvin)             93.05   146.95   168.93   217.80   229.79
                              247.32   263.67   282.81   339.20   346.84
                              390.99   413.24   442.29   452.38   514.03
                              569.86   590.19   592.78   614.64   640.21
                              659.81   668.25   703.22   736.44   797.29
                              826.45   841.23   900.03   905.49   933.16
                              968.25  1001.97  1007.43  1012.29  1026.12
                             1048.04  1097.20  1114.31  1139.38  1208.29
                             1228.01  1240.31  1250.69  1287.43  1357.00
                             1376.41  1414.88  1433.09  1440.62  1442.72
                             1455.70  1459.62  1462.74  1464.97  1487.79
                             1500.83  1514.90  1576.10  1578.15  1584.79
                             1588.85  1621.52  1693.39  1696.65  1711.03
                             1716.73  1736.84  1749.79  1800.74  1898.57
                             1912.52  1919.24  1930.91  1939.01  2024.10
                             2095.99  2120.15  2122.50  2164.79  2169.42
                             2183.42  2204.20  2323.51  2327.45  2334.26
                             2347.58  2350.17  2444.10  4547.68  4558.23
                             4565.89  4571.04  4572.97  4579.86  4582.46
                             4591.12  4594.31  4601.43  4601.83  4628.78

 Zero-point correction=                           0.262959 (Hartree/Particle)
 Thermal correction to Energy=                    0.283905
 Thermal correction to Enthalpy=                  0.284849
 Thermal correction to Gibbs Free Energy=         0.210073
 Sum of electronic and zero-point Energies=          -1505.689305
 Sum of electronic and thermal Energies=             -1505.668359
 Sum of electronic and thermal Enthalpies=           -1505.667415
 Sum of electronic and thermal Free Energies=        -1505.742191

                     E (Thermal)             CV                S
                      KCal/Mol        Cal/Mol-Kelvin    Cal/Mol-Kelvin
 Total                  178.153             80.445            157.379
 Electronic               0.000              0.000              1.377
 Translational            0.889              2.981             43.470
 Rotational               0.889              2.981             35.018
 Vibrational            176.375             74.483             77.514
 Vibration     1          0.593              1.986              7.011
 Vibration     2          0.594              1.983              5.710
 Vibration     3          0.594              1.982              5.508
 Vibration     4          0.594              1.982              5.429
 Vibration     5          0.595              1.979              4.957
 Vibration     6          0.597              1.971              4.309
 Vibration     7          0.604              1.947              3.413
 Vibration     8          0.608              1.935              3.143
 Vibration     9          0.619              1.901              2.655
 Vibration    10          0.622              1.892              2.553
 Vibration    11          0.626              1.877              2.415
 Vibration    12          0.631              1.863              2.295
 Vibration    13          0.636              1.845              2.165
 Vibration    14          0.655              1.786              1.835
 Vibration    15          0.658              1.777              1.795
 Vibration    16          0.675              1.725              1.585
 Vibration    17          0.684              1.697              1.490
 Vibration    18          0.697              1.660              1.376
 Vibration    19          0.702              1.646              1.339
 Vibration    20          0.732              1.560              1.134
 Vibration    21          0.763              1.479              0.977
 Vibration    22          0.774              1.448              0.926
 Vibration    23          0.776              1.444              0.920
 Vibration    24          0.789              1.411              0.868
 Vibration    25          0.804              1.372              0.811
 Vibration    26          0.817              1.342              0.770
 Vibration    27          0.822              1.329              0.753
 Vibration    28          0.845              1.275              0.687
 Vibration    29          0.867              1.224              0.629
 Vibration    30          0.910              1.131              0.536
 Vibration    31          0.931              1.087              0.496
 Vibration    32          0.942              1.064              0.477

 Optimization completed.
    -- Stationary point found.
 Normal termination of Gaussian 16 at Sat Feb 10 19:05:22 2024.
