 Q-Chem 5.4, Q-Chem, Inc., Pleasanton, CA (2021)
 Q-Chem 5.4.0 for Intel X86 EM64T Linux

User input:
--------------------------------------------------------------
$molecule
0 1
C                  7.1211830000     -1.8316450000     -0.5948240000
C                  7.6386430000     -0.7953740000     -1.4458740000
C                  6.7954580000      0.2850470000     -1.8595030000
C                  5.4901580000      0.3035390000     -1.4347810000
C                  4.9570000000     -0.7025260000     -0.6029270000
C                  5.7453320000     -1.7702990000     -0.1663250000
C                  5.1331050000     -2.7958070000      0.7347590000
C                  3.6784260000     -2.6674290000      1.0766380000
C                  2.9013930000     -1.5962390000      0.6184270000
C                  3.5142240000     -0.5499260000     -0.2351860000
C                  3.0906950000     -3.6467740000      1.8839870000
C                  1.7456650000     -3.5572570000      2.2235670000
C                  0.9730370000     -2.4864840000      1.7645590000
C                  1.5496950000     -1.5074310000      0.9650950000
O                  5.7595890000     -3.7330400000      1.2094320000
O                  2.8623960000      0.4038570000     -0.6324030000
H                  4.8246120000      1.1040470000     -1.7321640000
H                  3.7052420000     -4.4666520000      2.2328680000
H                  0.9752980000     -0.6662310000      0.5976650000
C                  7.3106670000      1.3899800000     -2.7461550000
H                 -0.0752400000     -2.4193920000      2.0325480000
C                  8.9916250000     -0.8551960000     -1.8715380000
C                  8.0165940000     -2.8773920000     -0.2287840000
C                  9.3178120000     -2.8942610000     -0.6670960000
C                  9.8377330000     -1.8765740000     -1.5018120000
C                 11.2723600000     -1.9289740000     -1.9600100000
H                  1.2956180000     -4.3211140000      2.8475970000
H                  8.1472080000      1.9211740000     -2.2816070000
H                  6.5222480000      2.1158320000     -2.9475630000
H                  7.6656110000      1.0029350000     -3.7063770000
H                  9.3713130000     -0.0689060000     -2.5117600000
H                  7.6575320000     -3.6675620000      0.4084760000
H                  9.9643250000     -3.7119830000     -0.3637240000
H                 11.5206150000     -1.0794950000     -2.5989390000
H                 11.4712120000     -2.8461290000     -2.5234730000
H                 11.9572920000     -1.9218590000     -1.1061350000
$end
$rem
MAX_SCF_CYCLES=200
BASIS  =  6-311++G(d,p)
GUI  =  2
JOB_TYPE  =  SP
METHOD  =  B3LYP
SOLVENT_METHOD = COSMO
$end
$solvent
dielectric 37.219
opticaldielectric 1.43
$end

--------------------------------------------------------------

             Standard Nuclear Orientation (Angstroms)
    I     Atom           X                Y                Z
 ----------------------------------------------------------------
    1      C       1.3858868061    -0.5069693911     0.0088201560
    2      C       2.3286225350     0.5779708437     0.0009099069
    3      C       1.8673024024     1.9331399842     0.0086408375
    4      C       0.5151336993     2.1700678906     0.0152580019
    5      C      -0.4303613755     1.1239187475     0.0193013049
    6      C      -0.0262332992    -0.2135788489     0.0222177904
    7      C      -1.0732962448    -1.2818798729     0.0510802741
    8      C      -2.5145879929    -0.8691739798     0.0085938381
    9      C      -2.8995744505     0.4772016893    -0.0070139999
   10      C      -1.8675249485     1.5418315828     0.0135990456
   11      C      -3.4967032725    -1.8649357692    -0.0076788856
   12      C      -4.8424256874    -1.5182400413    -0.0432713696
   13      C      -5.2231438707    -0.1732431172    -0.0585725816
   14      C      -4.2542198228     0.8222595603    -0.0390144228
   15      O      -0.8137072562    -2.4757458848     0.1102398731
   16      O      -2.1779852338     2.7233339163     0.0190529390
   17      H       0.1326016883     3.1829180472     0.0174953321
   18      H      -3.1832647753    -2.9008386617     0.0080503255
   19      H      -4.5209598020     1.8716998007    -0.0479095855
   20      C       2.8311341612     3.0922325666     0.0073204676
   21      H      -6.2736154629     0.0932415482    -0.0850200072
   22      C       3.7190010506     0.2917749317    -0.0154695951
   23      C       1.9179883850    -1.8283321683    -0.0053660775
   24      C       3.2719232466    -2.0566130368    -0.0232124170
   25      C       4.2080416228    -0.9952820073    -0.0269950515
   26      C       5.6864779636    -1.2864495028    -0.0441202427
   27      H      -5.5986181061    -2.2950150394    -0.0583341634
   28      H       3.4861407314     3.0714197588     0.8838511143
   29      H       2.2892124714     4.0384280121     0.0154376696
   30      H       3.4741741919     3.0798458750    -0.8782084440
   31      H       4.4203751032     1.1166075886    -0.0204372129
   32      H       1.2360392719    -2.6615810342     0.0006498127
   33      H       3.6324369051    -3.0806155837    -0.0346834545
   34      H       6.2761244710    -0.3678855210    -0.0498291087
   35      H       5.9612461648    -1.8708258018    -0.9279826421
   36      H       5.9810016189    -1.8723036082     0.8324159900
 ----------------------------------------------------------------

    9    -921.2815572523      3.42e-06  Convergence criterion met
 Total energy in the final basis set =     -921.2815572523
    5    -921.2956743140      3.01e-06  Convergence criterion met
 Total energy in the final basis set =     -921.2956743140

                    Orbital Energies (a.u.)
 --------------------------------------------------------------

 Alpha MOs
 -- Occupied --
-19.1318 -19.1284 -10.2842 -10.2825 -10.2124 -10.2082 -10.2064 -10.2057
-10.2057 -10.2042 -10.2012 -10.1953 -10.1950 -10.1948 -10.1941 -10.1934
-10.1851 -10.1818 -10.1803 -10.1792 -10.1706 -10.1674  -1.0671  -1.0648
 -0.8984  -0.8856  -0.8515  -0.8188  -0.7923  -0.7754  -0.7740  -0.7490
 -0.7209  -0.7016  -0.6779  -0.6473  -0.6373  -0.6234  -0.6030  -0.5840
 -0.5558  -0.5439  -0.5199  -0.5062  -0.4987  -0.4791  -0.4694  -0.4620
 -0.4567  -0.4561  -0.4513  -0.4487  -0.4348  -0.4326  -0.4267  -0.4228
 -0.4192  -0.4128  -0.3973  -0.3895  -0.3869  -0.3836  -0.3744  -0.3727
 -0.3662  -0.3542  -0.3485  -0.3338  -0.2947  -0.2863  -0.2822  -0.2763
 -0.2702  -0.2598  -0.2364

          Ground-State Mulliken Net Atomic Charges

     Atom                 Charge (a.u.)
  ----------------------------------------
      1 C                     0.825378
      2 C                     0.188050
      3 C                     0.514488
      4 C                    -0.150294
      5 C                     0.172891
      6 C                     0.754152
      7 C                    -1.058930
      8 C                     0.125742
      9 C                     0.060190
     10 C                    -0.688686
     11 C                     0.109726
     12 C                    -0.488023
     13 C                    -0.341250
     14 C                     0.073876
     15 O                    -0.254123
     16 O                    -0.284204
     17 H                     0.138638
     18 H                     0.199160
     19 H                     0.201470
     20 C                    -0.389476
     21 H                     0.226136
     22 C                    -0.819630
     23 C                    -0.513617
     24 C                    -0.454035
     25 C                     0.311382
     26 C                    -0.282560
     27 H                     0.225497
     28 H                     0.187441
     29 H                     0.200888
     30 H                     0.186041
     31 H                     0.099443
     32 H                     0.157220
     33 H                     0.228137
     34 H                     0.181016
     35 H                     0.178142
     36 H                     0.179719
  ----------------------------------------
  Sum of atomic charges =    -0.000005

                    Cartesian Multipole Moments
 -----------------------------------------------------------------
    Charge (ESU x 10^10)
                -0.0000
    Dipole Moment (Debye)
         X       2.2931      Y      -0.2200      Z      -0.2637
       Tot       2.3187
    Quadrupole Moments (Debye-Ang)
        XX     -85.3131     XY      10.1929     YY    -131.3909
        XZ       0.3688     YZ       0.5218     ZZ    -131.5499

 Total job time:  100.95s(wall), 761.57s(cpu)
        *  Thank you very much for using Q-Chem.  Have a nice day.  *
