 Gaussian 16, Revision A.03,
 Gaussian 16:  ES64L-G16RevA.03 25-Dec-2016

 --------------------------------------
 #P UB3LYP/6-311++G(d,p) nosym opt freq
 --------------------------------------

 --------
 Oxidized
 --------
 Symbolic Z-matrix:
 Charge =  0 Multiplicity = 1

 SCF Done:  E(UB3LYP) =  -921.281442365     A.U. after   15 cycles
 SCF Done:  E(UB3LYP) =  -921.281443652     A.U. after   10 cycles
 SCF Done:  E(UB3LYP) =  -921.281418131     A.U. after   12 cycles
 SCF Done:  E(UB3LYP) =  -921.281413062     A.U. after   13 cycles
 SCF Done:  E(UB3LYP) =  -921.281418496     A.U. after   13 cycles
 SCF Done:  E(UB3LYP) =  -921.281418843     A.U. after    9 cycles
 Optimization completed.
    -- Stationary point found.
 Normal termination of Gaussian 16 at Wed Dec 27 20:21:45 2023.

 ----------------------------------------------------------------------
 #P Geom=AllCheck Guess=TCheck SCRF=Check GenChk UB3LYP/6-311++G(d,p) F
 req
 ----------------------------------------------------------------------

 Structure from the checkpoint file:  "134.chk"
 --------
 Oxidized
 --------
 Charge =  0 Multiplicity = 1

                          Input orientation:
 ---------------------------------------------------------------------
 Center     Atomic      Atomic             Coordinates (Angstroms)
 Number     Number       Type             X           Y           Z
 ---------------------------------------------------------------------
      1          6           0        7.121183   -1.831645   -0.594824
      2          6           0        7.638643   -0.795374   -1.445874
      3          6           0        6.795458    0.285047   -1.859503
      4          6           0        5.490158    0.303539   -1.434781
      5          6           0        4.957000   -0.702526   -0.602927
      6          6           0        5.745332   -1.770299   -0.166325
      7          6           0        5.133105   -2.795807    0.734759
      8          6           0        3.678426   -2.667429    1.076638
      9          6           0        2.901393   -1.596239    0.618427
     10          6           0        3.514224   -0.549926   -0.235186
     11          6           0        3.090695   -3.646774    1.883987
     12          6           0        1.745665   -3.557257    2.223567
     13          6           0        0.973037   -2.486484    1.764559
     14          6           0        1.549695   -1.507431    0.965095
     15          8           0        5.759589   -3.733040    1.209432
     16          8           0        2.862396    0.403857   -0.632403
     17          1           0        4.824612    1.104047   -1.732164
     18          1           0        3.705242   -4.466652    2.232868
     19          1           0        0.975298   -0.666231    0.597665
     20          6           0        7.310667    1.389980   -2.746155
     21          1           0       -0.075240   -2.419392    2.032548
     22          6           0        8.991625   -0.855196   -1.871538
     23          6           0        8.016594   -2.877392   -0.228784
     24          6           0        9.317812   -2.894261   -0.667096
     25          6           0        9.837733   -1.876574   -1.501812
     26          6           0       11.272360   -1.928974   -1.960010
     27          1           0        1.295618   -4.321114    2.847597
     28          1           0        8.147208    1.921174   -2.281607
     29          1           0        6.522248    2.115832   -2.947563
     30          1           0        7.665611    1.002935   -3.706377
     31          1           0        9.371313   -0.068906   -2.511760
     32          1           0        7.657532   -3.667562    0.408476
     33          1           0        9.964325   -3.711983   -0.363724
     34          1           0       11.520615   -1.079495   -2.598939
     35          1           0       11.471212   -2.846129   -2.523473
     36          1           0       11.957292   -1.921859   -1.106135
 ---------------------------------------------------------------------

 SCF Done:  E(UB3LYP) =  -921.281418843     A.U. after    1 cycles

 Alpha  occ. eigenvalues --  -19.12269 -19.12115 -10.27726 -10.27387 -10.20978
 Alpha  occ. eigenvalues --  -10.20583 -10.20524 -10.20465 -10.20404 -10.20249
 Alpha  occ. eigenvalues --  -10.20129 -10.19819 -10.19792 -10.19760 -10.19502
 Alpha  occ. eigenvalues --  -10.19381 -10.18456 -10.18334 -10.18295 -10.18129
 Alpha  occ. eigenvalues --  -10.17917 -10.17821  -1.05776  -1.05582  -0.89717
 Alpha  occ. eigenvalues --   -0.88507  -0.85165  -0.81940  -0.79336  -0.77526
 Alpha  occ. eigenvalues --   -0.77483  -0.75002  -0.72418  -0.70574  -0.67741
 Alpha  occ. eigenvalues --   -0.64911  -0.63781  -0.62388  -0.60417  -0.58241
 Alpha  occ. eigenvalues --   -0.55600  -0.54266  -0.52014  -0.50700  -0.49643
 Alpha  occ. eigenvalues --   -0.48085  -0.46998  -0.45754  -0.45552  -0.45255
 Alpha  occ. eigenvalues --   -0.44933  -0.44690  -0.43807  -0.43448  -0.43196
 Alpha  occ. eigenvalues --   -0.42764  -0.41388  -0.41107  -0.40322  -0.39525
 Alpha  occ. eigenvalues --   -0.39057  -0.38906  -0.37706  -0.37078  -0.36726
 Alpha  occ. eigenvalues --   -0.35610  -0.34998  -0.33181  -0.29347  -0.28104
 Alpha  occ. eigenvalues --   -0.27682  -0.27492  -0.26306  -0.25854  -0.23598
 Alpha virt. eigenvalues --   -0.11634  -0.06693  -0.05020  -0.02979  -0.01323
 Alpha virt. eigenvalues --   -0.00576  -0.00550   0.00069   0.01103   0.01524
 Alpha virt. eigenvalues --    0.01880   0.02334   0.02629   0.03313   0.03362

  Beta  occ. eigenvalues --  -19.12269 -19.12115 -10.27726 -10.27387 -10.20978
  Beta  occ. eigenvalues --  -10.20583 -10.20524 -10.20465 -10.20404 -10.20249
  Beta  occ. eigenvalues --  -10.20129 -10.19819 -10.19792 -10.19760 -10.19502
  Beta  occ. eigenvalues --  -10.19381 -10.18456 -10.18334 -10.18295 -10.18129
  Beta  occ. eigenvalues --  -10.17917 -10.17821  -1.05776  -1.05582  -0.89717
  Beta  occ. eigenvalues --   -0.88507  -0.85165  -0.81940  -0.79336  -0.77526
  Beta  occ. eigenvalues --   -0.77483  -0.75002  -0.72418  -0.70574  -0.67741
  Beta  occ. eigenvalues --   -0.64911  -0.63781  -0.62388  -0.60417  -0.58241
  Beta  occ. eigenvalues --   -0.55600  -0.54266  -0.52014  -0.50700  -0.49643
  Beta  occ. eigenvalues --   -0.48085  -0.46998  -0.45754  -0.45552  -0.45255
  Beta  occ. eigenvalues --   -0.44933  -0.44690  -0.43807  -0.43448  -0.43196
  Beta  occ. eigenvalues --   -0.42764  -0.41388  -0.41107  -0.40322  -0.39525
  Beta  occ. eigenvalues --   -0.39057  -0.38906  -0.37706  -0.37078  -0.36726
  Beta  occ. eigenvalues --   -0.35610  -0.34998  -0.33181  -0.29347  -0.28104
  Beta  occ. eigenvalues --   -0.27682  -0.27492  -0.26306  -0.25854  -0.23598
  Beta virt. eigenvalues --   -0.11634  -0.06693  -0.05020  -0.02979  -0.01323
  Beta virt. eigenvalues --   -0.00576  -0.00550   0.00069   0.01103   0.01524
  Beta virt. eigenvalues --    0.01880   0.02334   0.02629   0.03313   0.03362

 Mulliken charges and spin densities:
               1          2
     1  C    0.831632   0.000000
     2  C    0.246022   0.000000
     3  C    0.549387   0.000000
     4  C   -0.134841  -0.000000
     5  C    0.206345   0.000000
     6  C    0.709645  -0.000000
     7  C   -1.165074  -0.000000
     8  C    0.129728   0.000000
     9  C    0.156650   0.000000
    10  C   -0.803105  -0.000000
    11  C    0.085911  -0.000000
    12  C   -0.399755   0.000000
    13  C   -0.288752   0.000000
    14  C    0.080795  -0.000000
    15  O   -0.179924  -0.000000
    16  O   -0.200731   0.000000
    17  H    0.125485  -0.000000
    18  H    0.181770   0.000000
    19  H    0.183262  -0.000000
    20  C   -0.336940   0.000000
    21  H    0.174782  -0.000000
    22  C   -0.810512  -0.000000
    23  C   -0.511935  -0.000000
    24  C   -0.463517  -0.000000
    25  C    0.320987  -0.000000
    26  C   -0.233773  -0.000000
    27  H    0.175540   0.000000
    28  H    0.164833  -0.000000
    29  H    0.183025   0.000000
    30  H    0.163196  -0.000000
    31  H    0.041940   0.000000
    32  H    0.150622  -0.000000
    33  H    0.182766   0.000000
    34  H    0.160879  -0.000000
    35  H    0.160948   0.000000
    36  H    0.162704   0.000000
 Sum of Mulliken charges =  -0.00000   0.00000

 Dipole moment (field-independent basis, Debye):
    X=              1.5383    Y=             -0.0624    Z=             -0.6923  Tot=              1.6881
 Quadrupole moment (field-independent basis, Debye-Ang):
   XX=            -90.1277   YY=           -127.9548   ZZ=           -123.8378
   XY=              6.5859   XZ=            -18.1434   YZ=             -3.6500

  Exact polarizability: 364.133 -12.919 229.234 -72.136 -68.203 185.193
 Approx polarizability: 543.441 -70.639 429.377 -67.502-129.924 301.464

                      1                      2                      3
                      A                      A                      A
 Frequencies --     16.1559                39.0789                70.4690
 Red. masses --      7.5051                 5.1767                 4.1425
 Frc consts  --      0.0012                 0.0047                 0.0121
 IR Inten    --      3.7845                 0.9760                 0.5236

                      4                      5                      6
                      A                      A                      A
 Frequencies --     88.5513               109.6312               135.2385
 Red. masses --      1.0583                 4.6617                 4.3499
 Frc consts  --      0.0049                 0.0330                 0.0469
 IR Inten    --      0.6116                 0.0308                 0.0547

                      7                      8                      9
                      A                      A                      A
 Frequencies --    152.1110               162.7878               180.4987
 Red. masses --      4.6481                 2.7423                 2.0800
 Frc consts  --      0.0634                 0.0428                 0.0399
 IR Inten    --      0.9894                 2.2919                 0.7291

                     10                     11                     12
                      A                      A                      A
 Frequencies --    202.0723               237.7630               263.2102
 Red. masses --      1.7461                 3.2211                 4.2458
 Frc consts  --      0.0420                 0.1073                 0.1733
 IR Inten    --      0.7892                 0.3888                 0.9053

                     13                     14                     15
                      A                      A                      A
 Frequencies --    280.0237               288.3816               348.4301
 Red. masses --      5.9274                 4.7008                 8.2528
 Frc consts  --      0.2738                 0.2303                 0.5903
 IR Inten    --      0.2092                 0.2782                 0.7545

                     16                     17                     18
                      A                      A                      A
 Frequencies --    351.0298               372.1461               404.8109
 Red. masses --      4.5666                 3.3947                11.3362
 Frc consts  --      0.3315                 0.2770                 1.0945
 IR Inten    --      0.0801                 0.7784                23.5968

                     19                     20                     21
                      A                      A                      A
 Frequencies --    421.1568               432.3885               455.2181
 Red. masses --      3.4720                 3.4521                 4.4835
 Frc consts  --      0.3628                 0.3803                 0.5474
 IR Inten    --      2.7547                 1.2232                 0.1777

                     22                     23                     24
                      A                      A                      A
 Frequencies --    474.0421               488.6279               514.5191
 Red. masses --     10.7139                 5.9994                 4.8121
 Frc consts  --      1.4185                 0.8439                 0.7506
 IR Inten    --      3.2194                 1.8373                 3.5213

                     25                     26                     27
                      A                      A                      A
 Frequencies --    520.2054               541.4545               580.5748
 Red. masses --      3.1826                 5.3826                 5.0484
 Frc consts  --      0.5074                 0.9297                 1.0026
 IR Inten    --      7.5446                 1.5172                 0.8777

                     28                     29                     30
                      A                      A                      A
 Frequencies --    595.6290               638.9721               649.1633
 Red. masses --      5.9365                 3.6344                 6.4240
 Frc consts  --      1.2409                 0.8743                 1.5950
 IR Inten    --      7.9135                 1.4835                16.8246

                     31                     32                     33
                      A                      A                      A
 Frequencies --    689.1080               703.2380               721.8231
 Red. masses --      6.2750                 4.8928                 5.5647
 Frc consts  --      1.7557                 1.4257                 1.7083
 IR Inten    --      0.0307                 0.0313                 0.2686

                     34                     35                     36
                      A                      A                      A
 Frequencies --    735.0378               741.7484               769.8929
 Red. masses --      2.1840                 6.8130                 4.3281
 Frc consts  --      0.6952                 2.2085                 1.5115
 IR Inten    --     58.0313                 0.7447                 0.9942

                     37                     38                     39
                      A                      A                      A
 Frequencies --    793.3149               809.2381               820.9197
 Red. masses --      5.7383                 1.8797                 6.1079
 Frc consts  --      2.1278                 0.7252                 2.4252
 IR Inten    --      2.2565                19.9954                19.3397

                     40                     41                     42
                      A                      A                      A
 Frequencies --    842.1408               878.9306               886.9695
 Red. masses --      1.4451                 6.2680                 1.3805
 Frc consts  --      0.6038                 2.8529                 0.6399
 IR Inten    --     28.0117                 0.8590                 0.9135

                     43                     44                     45
                      A                      A                      A
 Frequencies --    913.6872               932.4155               934.1133
 Red. masses --      1.3623                 3.9617                 1.3623
 Frc consts  --      0.6701                 2.0293                 0.7004
 IR Inten    --      0.1425                14.3555                11.1943

                     46                     47                     48
                      A                      A                      A
 Frequencies --   1001.6228              1005.5537              1011.6409
 Red. masses --      1.3825                 2.6340                 1.2977
 Frc consts  --      0.8172                 1.5692                 0.7825
 IR Inten    --      1.9355                99.4728                 1.0955

                     49                     50                     51
                      A                      A                      A
 Frequencies --   1015.6791              1016.2632              1028.6678
 Red. masses --      2.0310                 1.3233                 2.1451
 Frc consts  --      1.2344                 0.8053                 1.3373
 IR Inten    --     17.9466                 0.0304                12.1579

                     52                     53                     54
                      A                      A                      A
 Frequencies --   1060.7171              1061.2953              1061.3843
 Red. masses --      1.5424                 1.5665                 1.9372
 Frc consts  --      1.0225                 1.0396                 1.2858
 IR Inten    --      3.4258                 1.6243                 2.8780

                     55                     56                     57
                      A                      A                      A
 Frequencies --   1086.6408              1088.5637              1120.2526
 Red. masses --      3.5833                 3.1196                 1.9850
 Frc consts  --      2.4929                 2.1780                 1.4677
 IR Inten    --      7.9192                 5.1100                 8.5222

                     58                     59                     60
                      A                      A                      A
 Frequencies --   1178.6599              1188.4025              1201.9424
 Red. masses --      1.2980                 1.4897                 1.8264
 Frc consts  --      1.0624                 1.2396                 1.5546
 IR Inten    --     18.3070                 8.8702                14.5112

                     61                     62                     63
                      A                      A                      A
 Frequencies --   1223.7684              1233.7648              1255.4033
 Red. masses --      2.2924                 1.9098                 2.2877
 Frc consts  --      2.0227                 1.7128                 2.1243
 IR Inten    --      4.0051                26.1174                51.7449

                     64                     65                     66
                      A                      A                      A
 Frequencies --   1290.9774              1299.9084              1313.1790
 Red. masses --      2.3249                 2.1329                 2.7998
 Frc consts  --      2.2830                 2.1235                 2.8446
 IR Inten    --    185.9558               265.7594               209.9494

                     67                     68                     69
                      A                      A                      A
 Frequencies --   1358.5843              1364.9307              1379.1603
 Red. masses --      5.5770                 4.1116                 4.3746
 Frc consts  --      6.0650                 4.5132                 4.9025
 IR Inten    --      4.3342                55.7483                 2.8348

                     70                     71                     72
                      A                      A                      A
 Frequencies --   1396.3083              1414.6647              1416.3687
 Red. masses --      6.3531                 1.2489                 1.3288
 Frc consts  --      7.2980                 1.4726                 1.5706
 IR Inten    --     54.1603                 3.3269                 1.4952

                     73                     74                     75
                      A                      A                      A
 Frequencies --   1428.9006              1473.3222              1481.2334
 Red. masses --      3.0756                 1.7808                 2.2827
 Frc consts  --      3.6998                 2.2775                 2.9509
 IR Inten    --     33.4056                37.8873                 2.9909

                     76                     77                     78
                      A                      A                      A
 Frequencies --   1483.7323              1487.1041              1495.3299
 Red. masses --      1.0432                 1.0438                 1.2188
 Frc consts  --      1.3531                 1.3601                 1.6056
 IR Inten    --      8.9640                 7.3962                15.6455

                     79                     80                     81
                      A                      A                      A
 Frequencies --   1504.5117              1509.2697              1534.9323
 Red. masses --      1.6677                 2.3081                 2.8368
 Frc consts  --      2.2242                 3.0977                 3.9378
 IR Inten    --     23.2150                 0.8332                41.0788

                     82                     83                     84
                      A                      A                      A
 Frequencies --   1588.8643              1620.2978              1623.3856
 Red. masses --      7.7927                 6.9954                 6.3471
 Frc consts  --     11.5907                10.8206                 9.8552
 IR Inten    --      8.5024                32.8309               129.8243

                     85                     86                     87
                      A                      A                      A
 Frequencies --   1629.8763              1660.2108              1702.6033
 Red. masses --      5.8258                 5.6352                12.0034
 Frc consts  --      9.1183                 9.1514                20.5013
 IR Inten    --      9.5421                28.4497                35.9554

                     88                     89                     90
                      A                      A                      A
 Frequencies --   1717.7143              3022.2905              3024.5199
 Red. masses --     12.1972                 1.0371                 1.0384
 Frc consts  --     21.2038                 5.5816                 5.5969
 IR Inten    --    287.5995                34.7549                24.7274

                     91                     92                     93
                      A                      A                      A
 Frequencies --   3070.3226              3072.1887              3103.8928
 Red. masses --      1.1000                 1.0998                 1.1005
 Frc consts  --      6.1095                 6.1159                 6.2466
 IR Inten    --     12.8520                13.2620                16.4316

                     94                     95                     96
                      A                      A                      A
 Frequencies --   3113.9075              3158.5081              3169.4191
 Red. masses --      1.0993                 1.0902                 1.0870
 Frc consts  --      6.2801                 6.4083                 6.4335
 IR Inten    --     14.1706                16.0953                 3.7639

                     97                     98                     99
                      A                      A                      A
 Frequencies --   3184.2586              3188.1664              3195.9843
 Red. masses --      1.0922                 1.0892                 1.0902
 Frc consts  --      6.5251                 6.5228                 6.5610
 IR Inten    --     14.3722                10.6879                 7.0439

                    100                    101                    102
                      A                      A                      A
 Frequencies --   3201.8387              3206.2658              3260.0715
 Red. masses --      1.0932                 1.0935                 1.0915
 Frc consts  --      6.6029                 6.6231                 6.8347
 IR Inten    --      3.6417                 9.1578                16.9979

 - Thermochemistry -
 -------------------
 Temperature   298.150 Kelvin.  Pressure   1.00000 Atm.
 Atom     1 has atomic number  6 and mass  12.00000

 Molecular mass:   286.09938 amu.
 Principal axes and moments of inertia in atomic units:
                           1         2         3
     Eigenvalues --  2888.197559794.21153**********
           X            0.91332  -0.30882   0.26547
           Y            0.13188   0.84104   0.52465
           Z           -0.38529  -0.44416   0.80887
 This molecule is an asymmetric top.
 Rotational symmetry number  1.
 Warning -- assumption of classical behavior for rotation
           may cause significant error
 Rotational temperatures (Kelvin)      0.02999     0.00884     0.00684
 Rotational constants (GHZ):           0.62487     0.18427     0.14259
 Zero-point vibrational energy     736745.0 (Joules/Mol)
                                  176.08628 (Kcal/Mol)
 Warning -- explicit consideration of  28 degrees of freedom as
           vibrations may cause significant error
 Vibrational temperatures:     23.24    56.23   101.39   127.41   157.73
          (Kelvin)            194.58   218.85   234.22   259.70   290.74
                              342.09   378.70   402.89   414.92   501.31
                              505.05   535.44   582.43   605.95   622.11
                              654.96   682.04   703.03   740.28   748.46
                              779.03   835.32   856.98   919.34   934.00
                              991.47  1011.80  1038.54  1057.56  1067.21
                             1107.70  1141.40  1164.31  1181.12  1211.65
                             1264.59  1276.15  1314.59  1341.54  1343.98
                             1441.11  1446.77  1455.53  1461.34  1462.18
                             1480.02  1526.14  1526.97  1527.10  1563.43
                             1566.20  1611.79  1695.83  1709.85  1729.33
                             1760.73  1775.11  1806.25  1857.43  1870.28
                             1889.37  1954.70  1963.83  1984.30  2008.98
                             2035.39  2037.84  2055.87  2119.78  2131.16
                             2134.76  2139.61  2151.45  2164.66  2171.50
                             2208.43  2286.02  2331.25  2335.69  2345.03
                             2388.67  2449.67  2471.41  4348.40  4351.61
                             4417.51  4420.19  4465.81  4480.22  4544.39
                             4560.09  4581.44  4587.06  4598.31  4606.73
                             4613.10  4690.52

 Zero-point correction=                           0.280611 (Hartree/Particle)
 Thermal correction to Energy=                    0.298092
 Thermal correction to Enthalpy=                  0.299037
 Thermal correction to Gibbs Free Energy=         0.234451
 Sum of electronic and zero-point Energies=           -921.000807
 Sum of electronic and thermal Energies=              -920.983326
 Sum of electronic and thermal Enthalpies=            -920.982382
 Sum of electronic and thermal Free Energies=         -921.046967

                     E (Thermal)             CV                S
                      KCal/Mol        Cal/Mol-Kelvin    Cal/Mol-Kelvin
 Total                  187.056             69.496            135.931
 Electronic               0.000              0.000              0.000
 Translational            0.889              2.981             42.851
 Rotational               0.889              2.981             34.237
 Vibrational            185.278             63.534             58.843
 Vibration     1          0.593              1.986              7.058
 Vibration     2          0.594              1.981              5.305
 Vibration     3          0.598              1.968              4.140
 Vibration     4          0.601              1.957              3.692
 Vibration     5          0.606              1.941              3.275
 Vibration     6          0.613              1.918              2.870
 Vibration     7          0.619              1.900              2.646
 Vibration     8          0.623              1.888              2.517
 Vibration     9          0.629              1.866              2.323
 Vibration    10          0.639              1.837              2.114
 Vibration    11          0.656              1.783              1.820
 Vibration    12          0.670              1.740              1.640
 Vibration    13          0.680              1.711              1.534
 Vibration    14          0.685              1.695              1.483
 Vibration    15          0.726              1.578              1.173
 Vibration    16          0.728              1.573              1.162
 Vibration    17          0.744              1.529              1.071
 Vibration    18          0.770              1.460              0.945
 Vibration    19          0.784              1.424              0.888
 Vibration    20          0.793              1.400              0.851
 Vibration    21          0.814              1.349              0.780
 Vibration    22          0.831              1.308              0.726
 Vibration    23          0.845              1.275              0.687
 Vibration    24          0.870              1.218              0.623
 Vibration    25          0.875              1.205              0.609
 Vibration    26          0.897              1.158              0.562
 Vibration    27          0.937              1.073              0.484
 Vibration    28          0.953              1.041              0.457

                           ! Non-Optimized Parameters !
 Normal termination of Gaussian 16 at Wed Dec 27 21:38:04 2023.
