 Gaussian 16, Revision A.03,
 Gaussian 16:  ES64L-G16RevA.03 25-Dec-2016

 --------------------------------------
 #P UB3LYP/6-311++G(d,p) nosym opt freq
 --------------------------------------

 -------
 Radical
 -------
 Symbolic Z-matrix:
 Charge = -1 Multiplicity = 2

 SCF Done:  E(UB3LYP) =  -685.839467440     A.U. after   21 cycles
 Optimization completed.
    -- Stationary point found.
 Normal termination of Gaussian 16 at Mon Jan  8 21:24:34 2024.

 ----------------------------------------------------------------------
 #P Geom=AllCheck Guess=TCheck SCRF=Check GenChk UB3LYP/6-311++G(d,p) F
 req
 ----------------------------------------------------------------------

 Structure from the checkpoint file:  "309-rad.chk"
 -------
 Radical
 -------
 Charge = -1 Multiplicity = 2

                          Input orientation:
 ---------------------------------------------------------------------
 Center     Atomic      Atomic             Coordinates (Angstroms)
 Number     Number       Type             X           Y           Z
 ---------------------------------------------------------------------
      1          8           0        1.671959    2.430258    0.391484
      2          6           0        1.404902    1.218763    0.203100
      3          6           0        0.018651    0.707262    0.206715
      4          6           0       -1.039659    1.607591    0.428567
      5          6           0       -2.357045    1.180290    0.442052
      6          6           0       -2.658375   -0.180258    0.230818
      7          6           0       -1.636678   -1.086363    0.010308
      8          6           0       -0.289861   -0.670310   -0.006962
      9          6           0        0.777097   -1.626657   -0.238891
     10          8           0        0.626493   -2.875851   -0.441193
     11          6           0        2.106953   -1.097856   -0.235807
     12          8           0        3.107399   -2.014785   -0.456592
     13          6           0        2.425922    0.224218   -0.032173
     14          8           0        3.739001    0.625873   -0.049486
     15          1           0       -0.781930    2.648497    0.588357
     16          1           0       -3.158038    1.892979    0.615292
     17          1           0       -3.691267   -0.515979    0.241281
     18          1           0       -1.841021   -2.138408   -0.154961
     19          1           0        2.598843   -2.847226   -0.564676
     20          1           0        4.263574   -0.167093   -0.218097
 ---------------------------------------------------------------------

 SCF Done:  E(UB3LYP) =  -685.839467440     A.U. after    1 cycles

 Alpha  occ. eigenvalues --  -19.02666 -19.02533 -18.95301 -18.94234 -10.09456
 Alpha  occ. eigenvalues --  -10.09376 -10.09358 -10.09101 -10.05512 -10.05406
 Alpha  occ. eigenvalues --  -10.05023 -10.04950 -10.04850 -10.04773  -0.95013
 Alpha  occ. eigenvalues --   -0.92542  -0.86641  -0.86349  -0.73526  -0.67536
 Alpha  occ. eigenvalues --   -0.62879  -0.61095  -0.55291  -0.50253  -0.49424
 Alpha  occ. eigenvalues --   -0.45266  -0.43095  -0.40089  -0.38511  -0.35312
 Alpha  occ. eigenvalues --   -0.33694  -0.31664  -0.31256  -0.30271  -0.28798
 Alpha  occ. eigenvalues --   -0.28220  -0.26743  -0.26355  -0.25914  -0.24640
 Alpha  occ. eigenvalues --   -0.23318  -0.21995  -0.21603  -0.21558  -0.14004
 Alpha  occ. eigenvalues --   -0.13406  -0.12748  -0.10797  -0.09276  -0.01994
 Alpha virt. eigenvalues --    0.08423   0.09239   0.09732   0.10378   0.11636
 Alpha virt. eigenvalues --    0.12003   0.12601   0.14144   0.15744   0.16018
 Alpha virt. eigenvalues --    0.17675   0.18002   0.18219   0.18521   0.18872

  Beta  occ. eigenvalues --  -19.02654 -19.02481 -18.94704 -18.93567 -10.09329
  Beta  occ. eigenvalues --  -10.09259 -10.09127 -10.09072 -10.05482 -10.05327
  Beta  occ. eigenvalues --  -10.05000 -10.04893 -10.04817 -10.04717  -0.94908
  Beta  occ. eigenvalues --   -0.92401  -0.85573  -0.85270  -0.73288  -0.67087
  Beta  occ. eigenvalues --   -0.62664  -0.60909  -0.54422  -0.50075  -0.49181
  Beta  occ. eigenvalues --   -0.45040  -0.42916  -0.39935  -0.38322  -0.35087
  Beta  occ. eigenvalues --   -0.33524  -0.31125  -0.30752  -0.30219  -0.28428
  Beta  occ. eigenvalues --   -0.27815  -0.26381  -0.25346  -0.24999  -0.24483
  Beta  occ. eigenvalues --   -0.23170  -0.21369  -0.20386  -0.20057  -0.12683
  Beta  occ. eigenvalues --   -0.12206  -0.11924  -0.10157  -0.08267
  Beta virt. eigenvalues --    0.04548   0.08416   0.09750   0.09872   0.10371
  Beta virt. eigenvalues --    0.12008   0.12607   0.12780   0.14134   0.15815
  Beta virt. eigenvalues --    0.16056   0.17704   0.18266   0.18532   0.18793

 Mulliken charges and spin densities:
               1          2
     1  O   -0.380521   0.249454
     2  C   -0.676024   0.041071
     3  C    0.559653   0.070623
     4  C    0.170377   0.007549
     5  C   -0.378636   0.062981
     6  C   -0.281144   0.022667
     7  C    0.074044   0.042680
     8  C    0.505173   0.043127
     9  C   -0.887006   0.101587
    10  O   -0.462156   0.218179
    11  C    0.047662   0.026839
    12  O   -0.334735   0.004877
    13  C    0.228699   0.109908
    14  O   -0.275633   0.013239
    15  H    0.151808  -0.000948
    16  H    0.122091  -0.004917
    17  H    0.125846  -0.002201
    18  H    0.149826  -0.002380
    19  H    0.273025  -0.003678
    20  H    0.267651  -0.000659
 Sum of Mulliken charges =  -1.00000   1.00000

 Dipole moment (field-independent basis, Debye):
    X=             -5.1435    Y=             -0.6559    Z=             -0.1979  Tot=              5.1889
 Quadrupole moment (field-independent basis, Debye-Ang):
   XX=            -99.9763   YY=           -112.6767   ZZ=            -86.5421
   XY=             -8.8924   XZ=             -1.0437   YZ=             -4.0234

  Exact polarizability: 204.449  -4.166 182.824  -9.204  18.718  77.921
 Approx polarizability: 317.233   9.283 340.379 -11.679  37.822 121.188

                      1                      2                      3
                      A                      A                      A
 Frequencies --     83.3391               122.6825               157.5533
 Red. masses --      8.8659                 4.9990                 7.9743
 Frc consts  --      0.0363                 0.0443                 0.1166
 IR Inten    --      5.0883                 0.1368                 0.1428

                      4                      5                      6
                      A                      A                      A
 Frequencies --    169.5337               254.8741               293.5387
 Red. masses --      6.6598                 5.7542                 5.7143
 Frc consts  --      0.1128                 0.2202                 0.2901
 IR Inten    --      0.0197                 2.7763                 5.6280

                      7                      8                      9
                      A                      A                      A
 Frequencies --    303.8886               313.6654               362.9636
 Red. masses --      3.8303                 6.9290                11.5682
 Frc consts  --      0.2084                 0.4017                 0.8979
 IR Inten    --      9.0867                16.2160                11.1453

                     10                     11                     12
                      A                      A                      A
 Frequencies --    382.4343               414.9448               419.5758
 Red. masses --      1.3646                 5.5007                 8.9932
 Frc consts  --      0.1176                 0.5580                 0.9328
 IR Inten    --     92.3080                 8.6047                 0.8490

                     13                     14                     15
                      A                      A                      A
 Frequencies --    434.8117               449.8063               518.6797
 Red. masses --      8.7322                 3.2315                10.9946
 Frc consts  --      0.9727                 0.3852                 1.7427
 IR Inten    --      3.0067                20.4859                 0.6472

                     16                     17                     18
                      A                      A                      A
 Frequencies --    541.1049               624.2910               646.9735
 Red. masses --      5.1668                 8.5748                 3.1257
 Frc consts  --      0.8913                 1.9690                 0.7709
 IR Inten    --      1.7247                 4.3945                11.6717

                     19                     20                     21
                      A                      A                      A
 Frequencies --    660.5674               673.0712               696.5594
 Red. masses --      1.8031                 6.5389                 2.3402
 Frc consts  --      0.4636                 1.7453                 0.6690
 IR Inten    --     25.3354                 7.4130                70.4442

                     22                     23                     24
                      A                      A                      A
 Frequencies --    722.1890               726.3159               767.1290
 Red. masses --      6.6740                 4.7122                 1.6840
 Frc consts  --      2.0509                 1.4646                 0.5839
 IR Inten    --      7.1054                 0.7635                31.3584

                     25                     26                     27
                      A                      A                      A
 Frequencies --    856.0267               894.3941               964.7938
 Red. masses --      1.3397                 5.8704                 1.3009
 Frc consts  --      0.5784                 2.7668                 0.7135
 IR Inten    --      0.0001                53.1626                 1.5927

                     28                     29                     30
                      A                      A                      A
 Frequencies --    965.7882               973.6800              1039.9807
 Red. masses --      7.9743                 1.2843                 1.9633
 Frc consts  --      4.3823                 0.7174                 1.2511
 IR Inten    --    124.0297                 1.5232                 3.5893

                     31                     32                     33
                      A                      A                      A
 Frequencies --   1064.8878              1106.8343              1152.1562
 Red. masses --      5.7158                 2.0886                 1.2804
 Frc consts  --      3.8188                 1.5075                 1.0014
 IR Inten    --    101.3608                 2.7232                 2.9361

                     34                     35                     36
                      A                      A                      A
 Frequencies --   1188.3962              1205.6968              1240.6750
 Red. masses --      2.7371                 2.0905                 2.6357
 Frc consts  --      2.2775                 1.7905                 2.3904
 IR Inten    --    112.1420                15.3731                23.9674

                     37                     38                     39
                      A                      A                      A
 Frequencies --   1283.6742              1331.7967              1347.0261
 Red. masses --      2.1742                 2.0380                 4.5877
 Frc consts  --      2.1109                 2.1297                 4.9045
 IR Inten    --    117.8240               256.3611                31.4542

                     40                     41                     42
                      A                      A                      A
 Frequencies --   1362.5622              1451.2396              1465.1298
 Red. masses --      2.5546                 2.3223                 2.7018
 Frc consts  --      2.7944                 2.8817                 3.4170
 IR Inten    --    185.1621               140.7045                27.2890

                     43                     44                     45
                      A                      A                      A
 Frequencies --   1480.6411              1525.5366              1548.2435
 Red. masses --      4.1444                 6.1852                 5.6813
 Frc consts  --      5.3532                 8.4810                 8.0238
 IR Inten    --     97.0906               419.6860               181.3484

                     46                     47                     48
                      A                      A                      A
 Frequencies --   1585.8828              1620.4896              1647.4177
 Red. masses --      6.8038                 5.9970                 6.8528
 Frc consts  --     10.0819                 9.2784                10.9578
 IR Inten    --     42.5179                21.0682                41.9037

                     49                     50                     51
                      A                      A                      A
 Frequencies --   3133.0948              3152.1639              3177.8300
 Red. masses --      1.0844                 1.0908                 1.0918
 Frc consts  --      6.2719                 6.3857                 6.4962
 IR Inten    --     15.4606                45.5133                16.0829

                     52                     53                     54
                      A                      A                      A
 Frequencies --   3181.6173              3513.6177              3789.2566
 Red. masses --      1.0927                 1.0636                 1.0652
 Frc consts  --      6.5171                 7.7362                 9.0117
 IR Inten    --     22.1741                86.6309                73.1869

 - Thermochemistry -
 -------------------
 Temperature   298.150 Kelvin.  Pressure   1.00000 Atm.
 Atom     1 has atomic number  8 and mass  15.99491

 Molecular mass:   190.02661 amu.
 Principal axes and moments of inertia in atomic units:
                           1         2         3
     Eigenvalues --  1625.823382734.628244360.45160
           X            0.97290   0.22217   0.06415
           Y           -0.20902   0.96354  -0.16701
           Z           -0.09892   0.14908   0.98387
 This molecule is an asymmetric top.
 Rotational symmetry number  1.
 Warning -- assumption of classical behavior for rotation
           may cause significant error
 Rotational temperatures (Kelvin)      0.05327     0.03167     0.01986
 Rotational constants (GHZ):           1.11005     0.65996     0.41389
 Zero-point vibrational energy     364807.3 (Joules/Mol)
                                   87.19104 (Kcal/Mol)
 Warning -- explicit consideration of  16 degrees of freedom as
           vibrations may cause significant error
 Vibrational temperatures:    119.91   176.51   226.68   243.92   366.71
          (Kelvin)            422.34   437.23   451.29   522.22   550.24
                              597.01   603.68   625.60   647.17   746.26
                              778.53   898.22   930.85   950.41   968.40
                             1002.19  1039.07  1045.01  1103.73  1231.63
                             1286.83  1388.12  1389.55  1400.91  1496.30
                             1532.14  1592.49  1657.70  1709.84  1734.73
                             1785.05  1846.92  1916.16  1938.07  1960.42
                             2088.01  2108.00  2130.31  2194.91  2227.58
                             2281.73  2331.52  2370.27  4507.82  4535.26
                             4572.19  4577.64  5055.31  5451.90

 Zero-point correction=                           0.138948 (Hartree/Particle)
 Thermal correction to Energy=                    0.149830
 Thermal correction to Enthalpy=                  0.150774
 Thermal correction to Gibbs Free Energy=         0.102000
 Sum of electronic and zero-point Energies=           -685.700520
 Sum of electronic and thermal Energies=              -685.689638
 Sum of electronic and thermal Enthalpies=            -685.688693
 Sum of electronic and thermal Free Energies=         -685.737468

                     E (Thermal)             CV                S
                      KCal/Mol        Cal/Mol-Kelvin    Cal/Mol-Kelvin
 Total                   94.020             43.372            102.655
 Electronic               0.000              0.000              1.377
 Translational            0.889              2.981             41.632
 Rotational               0.889              2.981             31.339
 Vibrational             92.242             37.411             28.306
 Vibration     1          0.600              1.961              3.811
 Vibration     2          0.610              1.930              3.058
 Vibration     3          0.621              1.894              2.579
 Vibration     4          0.625              1.880              2.441
 Vibration     5          0.665              1.755              1.697
 Vibration     6          0.688              1.686              1.453
 Vibration     7          0.695              1.666              1.395
 Vibration     8          0.702              1.648              1.343
 Vibration     9          0.737              1.549              1.109
 Vibration    10          0.752              1.508              1.030
 Vibration    11          0.778              1.438              0.909
 Vibration    12          0.782              1.428              0.893
 Vibration    13          0.795              1.394              0.843
 Vibration    14          0.809              1.361              0.796
 Vibration    15          0.874              1.209              0.613
 Vibration    16          0.896              1.159              0.563

 Optimization completed.
    -- Stationary point found.
 Normal termination of Gaussian 16 at Mon Jan  8 21:41:08 2024.
