 Q-Chem 5.4, Q-Chem, Inc., Pleasanton, CA (2021)
 Q-Chem 5.4.0 for Intel X86 EM64T Linux

User input:
--------------------------------------------------------------
$molecule
-1 2
O                  1.6719590000      2.4302580000      0.3914840000
C                  1.4049020000      1.2187630000      0.2031000000
C                  0.0186510000      0.7072620000      0.2067150000
C                 -1.0396590000      1.6075910000      0.4285670000
C                 -2.3570450000      1.1802900000      0.4420520000
C                 -2.6583750000     -0.1802580000      0.2308180000
C                 -1.6366780000     -1.0863630000      0.0103080000
C                 -0.2898610000     -0.6703100000     -0.0069620000
C                  0.7770970000     -1.6266570000     -0.2388910000
O                  0.6264930000     -2.8758510000     -0.4411930000
C                  2.1069530000     -1.0978560000     -0.2358070000
O                  3.1073990000     -2.0147850000     -0.4565920000
C                  2.4259220000      0.2242180000     -0.0321730000
O                  3.7390010000      0.6258730000     -0.0494860000
H                 -0.7819300000      2.6484970000      0.5883570000
H                 -3.1580380000      1.8929790000      0.6152920000
H                 -3.6912670000     -0.5159790000      0.2412810000
H                 -1.8410210000     -2.1384080000     -0.1549610000
H                  2.5988430000     -2.8472260000     -0.5646760000
H                  4.2635740000     -0.1670930000     -0.2180970000
$end
$rem
MAX_SCF_CYCLES=200
BASIS  =  6-311++G(d,p)
GUI  =  2
JOB_TYPE  =  SP
METHOD  =  B3LYP
SOLVENT_METHOD = PCM
$end
$pcm
theory = CPCM
$end
$solvent
dielectric 37.219
opticaldielectric 1.43
$end

--------------------------------------------------------------

             Standard Nuclear Orientation (Angstroms)
    I     Atom           X                Y                Z
 ----------------------------------------------------------------
    1      O       1.6719590000     2.4302580000     0.3914840000
    2      C       1.4049020000     1.2187630000     0.2031000000
    3      C       0.0186510000     0.7072620000     0.2067150000
    4      C      -1.0396590000     1.6075910000     0.4285670000
    5      C      -2.3570450000     1.1802900000     0.4420520000
    6      C      -2.6583750000    -0.1802580000     0.2308180000
    7      C      -1.6366780000    -1.0863630000     0.0103080000
    8      C      -0.2898610000    -0.6703100000    -0.0069620000
    9      C       0.7770970000    -1.6266570000    -0.2388910000
   10      O       0.6264930000    -2.8758510000    -0.4411930000
   11      C       2.1069530000    -1.0978560000    -0.2358070000
   12      O       3.1073990000    -2.0147850000    -0.4565920000
   13      C       2.4259220000     0.2242180000    -0.0321730000
   14      O       3.7390010000     0.6258730000    -0.0494860000
   15      H      -0.7819300000     2.6484970000     0.5883570000
   16      H      -3.1580380000     1.8929790000     0.6152920000
   17      H      -3.6912670000    -0.5159790000     0.2412810000
   18      H      -1.8410210000    -2.1384080000    -0.1549610000
   19      H       2.5988430000    -2.8472260000    -0.5646760000
   20      H       4.2635740000    -0.1670930000    -0.2180970000
 ----------------------------------------------------------------

    8    -685.9238619839      8.35e-06  Convergence criterion met
 Total energy in the final basis set =     -685.9238619839

                    Orbital Energies (a.u.)
 --------------------------------------------------------------

 Alpha MOs
 -- Occupied --
-19.1542 -19.1520 -19.0881 -19.0826 -10.2311 -10.2277 -10.2256 -10.2225
-10.1772 -10.1766 -10.1725 -10.1720 -10.1717 -10.1705  -1.0778  -1.0538
 -1.0064  -0.9992  -0.8607  -0.8033  -0.7533  -0.7361  -0.6836  -0.6280
 -0.6195  -0.5788  -0.5570  -0.5255  -0.5129  -0.4765  -0.4634  -0.4489
 -0.4361  -0.4266  -0.4210  -0.4197  -0.3988  -0.3948  -0.3874  -0.3768
 -0.3554  -0.3525  -0.3457  -0.3402  -0.2690  -0.2634  -0.2598  -0.2501
 -0.2221  -0.1544

 Beta MOs
 -- Occupied --
-19.1537 -19.1517 -19.0826 -19.0770 -10.2292 -10.2251 -10.2246 -10.2219
-10.1768 -10.1758 -10.1722 -10.1716 -10.1712 -10.1705  -1.0765  -1.0521
 -0.9965  -0.9898  -0.8582  -0.7989  -0.7508  -0.7344  -0.6747  -0.6258
 -0.6171  -0.5764  -0.5551  -0.5238  -0.5108  -0.4742  -0.4615  -0.4384
 -0.4348  -0.4255  -0.4170  -0.4156  -0.3932  -0.3825  -0.3809  -0.3750
 -0.3540  -0.3390  -0.3388  -0.3310  -0.2584  -0.2522  -0.2506  -0.2447
 -0.2134

          Ground-State Mulliken Net Atomic Charges

     Atom                 Charge (a.u.)    Spin (a.u.)
  --------------------------------------------------------
      1 O                    -0.504571       0.214273
      2 C                    -0.531393       0.097704
      3 C                     0.435261       0.038529
      4 C                     0.182219       0.028141
      5 C                    -0.467149       0.050276
      6 C                    -0.372590       0.022323
      7 C                     0.075118       0.050565
      8 C                     0.419974       0.026973
      9 C                    -0.658415       0.126793
     10 O                    -0.541369       0.206217
     11 C                     0.075096       0.044323
     12 O                    -0.347541       0.009206
     13 C                     0.194875       0.085900
     14 O                    -0.334828       0.012651
     15 H                     0.168189      -0.001689
     16 H                     0.198395      -0.003747
     17 H                     0.203646      -0.002185
     18 H                     0.170401      -0.002693
     19 H                     0.312941      -0.002887
     20 H                     0.321740      -0.000675
  --------------------------------------------------------
  Sum of atomic charges =    -1.000000

                    Cartesian Multipole Moments
 -----------------------------------------------------------------
    Charge (ESU x 10^10)
                -4.8032
    Dipole Moment (Debye)
         X      -6.9676      Y      -1.3783      Z      -0.2009
       Tot       7.1055
    Quadrupole Moments (Debye-Ang)
        XX     -93.1212     XY     -12.9985     YY    -114.5262
        XZ      -2.3313     YZ      -4.1618     ZZ     -86.3118

 Total job time:  26.20s(wall), 198.19s(cpu)
        *  Thank you very much for using Q-Chem.  Have a nice day.  *
