 Gaussian 16, Revision A.03,
 Gaussian 16:  ES64L-G16RevA.03 25-Dec-2016

 --------------------------------------
 #P UB3LYP/6-311++G(d,p) nosym opt freq
 --------------------------------------

 -------
 Reduced
 -------
 Symbolic Z-matrix:
 Charge = -2 Multiplicity = 1

 SCF Done:  E(UB3LYP) =  -649.782026414     A.U. after   82 cycles
 SCF Done:  E(UB3LYP) =  -649.811004579     A.U. after   34 cycles
 SCF Done:  E(UB3LYP) =  -649.822324014     A.U. after   34 cycles
 SCF Done:  E(UB3LYP) =  -649.822934852     A.U. after  113 cycles
 SCF Done:  E(UB3LYP) =  -649.823702507     A.U. after   29 cycles
 SCF Done:  E(UB3LYP) =  -649.823976704     A.U. after   22 cycles
 SCF Done:  E(UB3LYP) =  -649.823907628     A.U. after   22 cycles
 SCF Done:  E(UB3LYP) =  -649.824013545     A.U. after   21 cycles
 SCF Done:  E(UB3LYP) =  -649.824020274     A.U. after   18 cycles
 SCF Done:  E(UB3LYP) =  -649.824021113     A.U. after   18 cycles
 Optimization completed.
    -- Stationary point found.
 Normal termination of Gaussian 16 at Tue Dec 26 21:55:06 2023.

 ----------------------------------------------------------------------
 #P Geom=AllCheck Guess=TCheck SCRF=Check GenChk UB3LYP/6-311++G(d,p) F
 req
 ----------------------------------------------------------------------

 Structure from the checkpoint file:  "281-an.chk"
 -------
 Reduced
 -------
 Charge = -2 Multiplicity = 1

                          Input orientation:
 ---------------------------------------------------------------------
 Center     Atomic      Atomic             Coordinates (Angstroms)
 Number     Number       Type             X           Y           Z
 ---------------------------------------------------------------------
      1          6           0        3.276540   -0.266840   -0.102600
      2          6           0        1.774216   -0.377086   -0.139728
      3          6           0        0.980933    0.778896    0.156051
      4          8           0        1.498241    1.927303    0.456436
      5          6           0       -0.462386    0.570872    0.094746
      6          6           0       -1.334789    1.643889    0.368708
      7          6           0       -2.716058    1.518726    0.328634
      8          6           0       -3.288974    0.257546   -0.001919
      9          6           0       -2.472020   -0.820064   -0.277281
     10          6           0       -1.051058   -0.722760   -0.244021
     11          6           0       -0.227105   -1.843922   -0.530568
     12          8           0       -0.620347   -3.067594   -0.850309
     13          6           0        1.164545   -1.598097   -0.459521
     14          8           0        1.919704   -2.725291   -0.748291
     15          1           0        3.726615   -0.961165    0.623883
     16          1           0        3.536828    0.758530    0.173674
     17          1           0        3.735685   -0.504266   -1.075004
     18          1           0       -0.863830    2.591268    0.617188
     19          1           0       -3.355650    2.372864    0.547045
     20          1           0       -4.372745    0.143896   -0.037603
     21          1           0       -2.890419   -1.790153   -0.531505
     22          1           0        1.167432   -3.356425   -0.916039
 ---------------------------------------------------------------------

 SCF Done:  E(UB3LYP) =  -649.824021113     A.U. after    1 cycles

 Alpha  occ. eigenvalues --  -18.85534 -18.76287 -18.75499  -9.92189  -9.91680
 Alpha  occ. eigenvalues --   -9.90936  -9.90341  -9.90279  -9.90093  -9.89919
 Alpha  occ. eigenvalues --   -9.89824  -9.88301  -9.87933  -9.87392  -0.76492
 Alpha  occ. eigenvalues --   -0.66844  -0.65697  -0.57255  -0.51765  -0.47417
 Alpha  occ. eigenvalues --   -0.47274  -0.41530  -0.37782  -0.33227  -0.31440
 Alpha  occ. eigenvalues --   -0.28054  -0.25100  -0.22157  -0.19238  -0.18029
 Alpha  occ. eigenvalues --   -0.17105  -0.15683  -0.15133  -0.12775  -0.12436
 Alpha  occ. eigenvalues --   -0.11793  -0.10370  -0.09290  -0.09249  -0.08407
 Alpha  occ. eigenvalues --   -0.06159  -0.05375  -0.04410  -0.03570   0.02226
 Alpha  occ. eigenvalues --    0.03639   0.04903   0.06467   0.06685   0.14812
 Alpha virt. eigenvalues --    0.17077   0.18617   0.18724   0.21080   0.21497
 Alpha virt. eigenvalues --    0.22104   0.22831   0.23386   0.24306   0.26182
 Alpha virt. eigenvalues --    0.26793   0.26841   0.28354   0.29040   0.29149

  Beta  occ. eigenvalues --  -18.85534 -18.76287 -18.75499  -9.92189  -9.91680
  Beta  occ. eigenvalues --   -9.90936  -9.90341  -9.90279  -9.90093  -9.89919
  Beta  occ. eigenvalues --   -9.89824  -9.88301  -9.87933  -9.87392  -0.76492
  Beta  occ. eigenvalues --   -0.66844  -0.65697  -0.57255  -0.51765  -0.47417
  Beta  occ. eigenvalues --   -0.47274  -0.41530  -0.37782  -0.33227  -0.31440
  Beta  occ. eigenvalues --   -0.28054  -0.25100  -0.22157  -0.19238  -0.18029
  Beta  occ. eigenvalues --   -0.17105  -0.15683  -0.15133  -0.12775  -0.12436
  Beta  occ. eigenvalues --   -0.11793  -0.10370  -0.09290  -0.09249  -0.08407
  Beta  occ. eigenvalues --   -0.06159  -0.05375  -0.04410  -0.03570   0.02226
  Beta  occ. eigenvalues --    0.03639   0.04903   0.06467   0.06685   0.14812
  Beta virt. eigenvalues --    0.17077   0.18617   0.18724   0.21080   0.21497
  Beta virt. eigenvalues --    0.22104   0.22831   0.23386   0.24306   0.26182
  Beta virt. eigenvalues --    0.26793   0.26841   0.28354   0.29040   0.29149

 Mulliken charges and spin densities:
               1          2
     1  C   -0.388278   0.000000
     2  C    1.731713  -0.000000
     3  C   -1.097579   0.000000
     4  O   -0.535500  -0.000000
     5  C    0.354616  -0.000000
     6  C    0.099877   0.000000
     7  C   -0.391431  -0.000000
     8  C   -0.187845  -0.000000
     9  C   -0.252326  -0.000000
    10  C    0.750438   0.000000
    11  C   -1.431644  -0.000000
    12  O   -0.622809   0.000000
    13  C   -0.656114  -0.000000
    14  O   -0.332331   0.000000
    15  H    0.099590   0.000000
    16  H    0.168496  -0.000000
    17  H    0.097883   0.000000
    18  H    0.116053  -0.000000
    19  H    0.061477   0.000000
    20  H    0.061686  -0.000000
    21  H    0.113053   0.000000
    22  H    0.240974  -0.000000
 Sum of Mulliken charges =  -2.00000  -0.00000

 Dipole moment (field-independent basis, Debye):
    X=             -1.0678    Y=              4.0440    Z=              1.5373  Tot=              4.4561
 Quadrupole moment (field-independent basis, Debye-Ang):
   XX=           -130.3403   YY=           -140.5407   ZZ=            -97.2289
   XY=             -3.9111   XZ=             -1.1379   YZ=            -12.3185

  Exact polarizability: 275.657 -28.301 208.034  -6.814  22.373 128.044
 Approx polarizability: 439.498 -52.371 356.887 -12.321  49.972 176.751

 ******    1 imaginary frequencies (negative Signs) ******

                      1                      2                      3
                      A                      A                      A
 Frequencies --    -62.7865                87.2407               121.2956
 Red. masses --      1.0283                 5.1853                 4.0070
 Frc consts  --      0.0024                 0.0233                 0.0347
 IR Inten    --      1.3395                 5.8342                 0.0004

                      4                      5                      6
                      A                      A                      A
 Frequencies --    161.6312               174.7245               247.6105
 Red. masses --      5.2271                 7.7563                 4.2623
 Frc consts  --      0.0805                 0.1395                 0.1540
 IR Inten    --      0.0014                 2.4758                 7.5897

                      7                      8                      9
                      A                      A                      A
 Frequencies --    276.0335               296.8623               327.5657
 Red. masses --      3.5386                 5.0106                 5.9062
 Frc consts  --      0.1589                 0.2602                 0.3734
 IR Inten    --      4.8768                 0.0249                 5.2303

                     10                     11                     12
                      A                      A                      A
 Frequencies --    352.0703               362.6150               430.8080
 Red. masses --      7.8137                 9.6436                 6.3305
 Frc consts  --      0.5706                 0.7471                 0.6922
 IR Inten    --      0.7152                 0.4917                11.8953

                     13                     14                     15
                      A                      A                      A
 Frequencies --    437.7452               444.9271               484.1225
 Red. masses --      8.5656                 3.5009                 4.6752
 Frc consts  --      0.9671                 0.4083                 0.6456
 IR Inten    --      3.2774                 2.4328                 0.5425

                     16                     17                     18
                      A                      A                      A
 Frequencies --    516.9414               610.6736               659.8185
 Red. masses --     10.0317                 6.7723                 2.9564
 Frc consts  --      1.5795                 1.4880                 0.7583
 IR Inten    --      3.3511                28.4447                15.9783

                     19                     20                     21
                      A                      A                      A
 Frequencies --    660.8052               669.6451               702.0712
 Red. masses --      6.1921                 1.8162                 5.5677
 Frc consts  --      1.5931                 0.4798                 1.6169
 IR Inten    --      1.0483                55.2200                 3.4744

                     22                     23                     24
                      A                      A                      A
 Frequencies --    704.5795               741.5984               761.3863
 Red. masses --      3.5788                 2.2225                 2.4889
 Frc consts  --      1.0468                 0.7202                 0.8501
 IR Inten    --      0.0011                17.5833                11.8598

                     25                     26                     27
                      A                      A                      A
 Frequencies --    819.5529               849.7548               918.6588
 Red. masses --      1.1471                 3.3970                 1.2185
 Frc consts  --      0.4540                 1.4452                 0.6059
 IR Inten    --     50.9511                23.7030                 1.9502

                     28                     29                     30
                      A                      A                      A
 Frequencies --    929.6481               937.0211               989.9999
 Red. masses --      6.4304                 1.3195                 2.8806
 Frc consts  --      3.2744                 0.6826                 1.6634
 IR Inten    --     35.0658                 1.8455                20.6667

                     31                     32                     33
                      A                      A                      A
 Frequencies --   1008.0845              1040.0230              1080.6571
 Red. masses --      2.1252                 1.4080                 2.8596
 Frc consts  --      1.2725                 0.8973                 1.9676
 IR Inten    --     72.9623                 0.0579               206.0757

                     34                     35                     36
                      A                      A                      A
 Frequencies --   1091.8035              1119.8307              1159.0622
 Red. masses --      2.3599                 1.5254                 3.1165
 Frc consts  --      1.6574                 1.1270                 2.4668
 IR Inten    --    111.2478                16.6896                32.9280

                     37                     38                     39
                      A                      A                      A
 Frequencies --   1179.9037              1232.0335              1276.5700
 Red. masses --      2.0517                 2.7254                 2.5358
 Frc consts  --      1.6829                 2.4374                 2.4348
 IR Inten    --     40.7272               195.2159                56.0140

                     40                     41                     42
                      A                      A                      A
 Frequencies --   1320.9577              1349.8802              1368.5911
 Red. masses --      4.1717                 1.6119                 2.1390
 Frc consts  --      4.2888                 1.7305                 2.3606
 IR Inten    --    286.0909                59.0221               126.9840

                     43                     44                     45
                      A                      A                      A
 Frequencies --   1415.6563              1425.4386              1438.5332
 Red. masses --      3.8978                 3.2819                 3.3891
 Frc consts  --      4.6024                 3.9289                 4.1321
 IR Inten    --    704.4989                89.8562                29.6806

                     46                     47                     48
                      A                      A                      A
 Frequencies --   1466.0863              1478.1366              1483.9773
 Red. masses --      2.8139                 1.2827                 1.0528
 Frc consts  --      3.5636                 1.6512                 1.3660
 IR Inten    --    129.4323                64.7377                 0.3643

                     49                     50                     51
                      A                      A                      A
 Frequencies --   1505.1903              1548.8228              1574.3662
 Red. masses --      3.7355                 4.0452                 4.2316
 Frc consts  --      4.9864                 5.7174                 6.1796
 IR Inten    --     10.7261                81.2346               136.2333

                     52                     53                     54
                      A                      A                      A
 Frequencies --   1611.8554              2943.1311              2951.4497
 Red. masses --      4.6135                 1.0413                 1.0974
 Frc consts  --      7.0621                 5.3145                 5.6324
 IR Inten    --     95.0165               353.5410               182.5456

                     55                     56                     57
                      A                      A                      A
 Frequencies --   3069.9285              3075.3824              3102.7835
 Red. masses --      1.0925                 1.0821                 1.0895
 Frc consts  --      6.0661                 6.0301                 6.1797
 IR Inten    --     17.6831                47.0742               116.2776

                     58                     59                     60
                      A                      A                      A
 Frequencies --   3144.1698              3147.1551              3242.7563
 Red. masses --      1.0899                 1.0912                 1.0637
 Frc consts  --      6.3481                 6.3680                 6.5903
 IR Inten    --     43.2010                46.0402               155.5718

 - Thermochemistry -
 -------------------
 Temperature   298.150 Kelvin.  Pressure   1.00000 Atm.
 Atom     1 has atomic number  6 and mass  12.00000

 Molecular mass:   188.04734 amu.
 Principal axes and moments of inertia in atomic units:
                           1         2         3
     Eigenvalues --  1695.326252704.011744388.19884
           X            0.90888   0.41704  -0.00513
           Y           -0.40484   0.87922  -0.25115
           Z           -0.10023   0.23034   0.96794
 This molecule is an asymmetric top.
 Rotational symmetry number  1.
 Warning -- assumption of classical behavior for rotation
           may cause significant error
 Rotational temperatures (Kelvin)      0.05109     0.03203     0.01974
 Rotational constants (GHZ):           1.06454     0.66743     0.41127
    1 imaginary frequencies ignored.
 Zero-point vibrational energy     415879.5 (Joules/Mol)
                                   99.39759 (Kcal/Mol)
 Warning -- explicit consideration of  16 degrees of freedom as
           vibrations may cause significant error
 Vibrational temperatures:    125.52   174.52   232.55   251.39   356.26
          (Kelvin)            397.15   427.12   471.29   506.55   521.72
                              619.84   629.82   640.15   696.54   743.76
                              878.62   949.33   950.75   963.47  1010.12
                             1013.73  1066.99  1095.47  1179.15  1222.61
                             1321.75  1337.56  1348.16  1424.39  1450.41
                             1496.36  1554.82  1570.86  1611.19  1667.63
                             1697.62  1772.62  1836.70  1900.56  1942.18
                             1969.10  2036.81  2050.89  2069.73  2109.37
                             2126.71  2135.11  2165.63  2228.41  2265.16
                             2319.10  4234.51  4246.48  4416.94  4424.79
                             4464.21  4523.76  4528.05  4665.60

 Zero-point correction=                           0.158400 (Hartree/Particle)
 Thermal correction to Energy=                    0.169199
 Thermal correction to Enthalpy=                  0.170144
 Thermal correction to Gibbs Free Energy=         0.122189
 Sum of electronic and zero-point Energies=           -649.665621
 Sum of electronic and thermal Energies=              -649.654822
 Sum of electronic and thermal Enthalpies=            -649.653878
 Sum of electronic and thermal Free Energies=         -649.701833

                     E (Thermal)             CV                S
                      KCal/Mol        Cal/Mol-Kelvin    Cal/Mol-Kelvin
 Total                  106.174             43.481            100.930
 Electronic               0.000              0.000              0.000
 Translational            0.889              2.981             41.600
 Rotational               0.889              2.981             31.376
 Vibrational            104.397             37.520             27.953
 Vibration     1          0.601              1.958              3.721
 Vibration     2          0.609              1.931              3.080
 Vibration     3          0.622              1.889              2.531
 Vibration     4          0.627              1.874              2.384
 Vibration     5          0.661              1.767              1.748
 Vibration     6          0.678              1.718              1.558
 Vibration     7          0.691              1.680              1.435
 Vibration     8          0.711              1.620              1.272
 Vibration     9          0.729              1.571              1.157
 Vibration    10          0.736              1.549              1.111
 Vibration    11          0.792              1.403              0.856
 Vibration    12          0.798              1.388              0.834
 Vibration    13          0.804              1.372              0.811
 Vibration    14          0.840              1.285              0.699
 Vibration    15          0.872              1.212              0.617
 Vibration    16          0.970              1.009              0.432

                           ! Non-Optimized Parameters !
 Normal termination of Gaussian 16 at Tue Dec 26 22:19:40 2023.
