 Q-Chem 5.4, Q-Chem, Inc., Pleasanton, CA (2021)
 Q-Chem 5.4.0 for Intel X86 EM64T Linux

User input:
--------------------------------------------------------------
$molecule
-2 1
C                 -0.5222680000      1.1748690000     -0.3548530000
C                 -1.4054010000      0.0993130000     -0.7785530000
C                 -1.1655320000     -1.2361490000     -0.5579810000
C                  0.0074150000     -1.7390250000      0.1299150000
C                  0.8759840000     -0.7130530000      0.5487920000
C                  0.6766400000      0.7068920000      0.3454410000
O                 -0.8337720000      2.3824500000     -0.6071850000
O                  0.1912290000     -3.0162770000      0.3152970000
C                  1.6700700000      1.6367420000      0.8404400000
C                  2.9079970000      1.0466040000      1.5709940000
O                  1.6563370000      2.8813420000      0.7518350000
H                 -2.3062450000      0.4213650000     -1.3026890000
H                 -1.8795150000     -1.9852660000     -0.9083100000
H                  1.7668660000     -1.0515350000      1.0683930000
H                  3.4823230000      0.3724490000      0.9243950000
H                  2.6233600000      0.4706940000      2.4596410000
H                  3.5371720000      1.8891520000      1.8690390000
$end

$rem
BASIS  =  6-311++G(d,p)
GUI  =  2
JOB_TYPE  =  SP
METHOD  =  B3LYP
SCF_CONVERGENCE  = 8
SOLVENT_METHOD = sm12
$end

$smx
solvent dimethylformamide
charges CM5
$end

--------------------------------------------------------------

             Standard Nuclear Orientation (Angstroms)
    I     Atom           X                Y                Z
 ----------------------------------------------------------------
    1      C      -0.5222680000     1.1748690000    -0.3548530000
    2      C      -1.4054010000     0.0993130000    -0.7785530000
    3      C      -1.1655320000    -1.2361490000    -0.5579810000
    4      C       0.0074150000    -1.7390250000     0.1299150000
    5      C       0.8759840000    -0.7130530000     0.5487920000
    6      C       0.6766400000     0.7068920000     0.3454410000
    7      O      -0.8337720000     2.3824500000    -0.6071850000
    8      O       0.1912290000    -3.0162770000     0.3152970000
    9      C       1.6700700000     1.6367420000     0.8404400000
   10      C       2.9079970000     1.0466040000     1.5709940000
   11      O       1.6563370000     2.8813420000     0.7518350000
   12      H      -2.3062450000     0.4213650000    -1.3026890000
   13      H      -1.8795150000    -1.9852660000    -0.9083100000
   14      H       1.7668660000    -1.0515350000     1.0683930000
   15      H       3.4823230000     0.3724490000     0.9243950000
   16      H       2.6233600000     0.4706940000     2.4596410000
   17      H       3.5371720000     1.8891520000     1.8690390000
 ----------------------------------------------------------------

   18    -534.2365186117      4.80e-09  Convergence criterion met
 Total energy in the final basis set =     -534.5312884988

                    Orbital Energies (a.u.)
 --------------------------------------------------------------

 Alpha MOs
 -- Occupied --
-19.0772 -19.0400 -19.0252 -10.2331 -10.2051 -10.1892 -10.1696 -10.1645
-10.1584 -10.1517 -10.1419  -1.0000  -0.9578  -0.9333  -0.8029  -0.7535
 -0.7082  -0.6707  -0.6109  -0.5659  -0.5049  -0.4577  -0.4546  -0.4408
 -0.4307  -0.4236  -0.3926  -0.3770  -0.3747  -0.3696  -0.3512  -0.3402
 -0.3365  -0.3232  -0.2481  -0.2399  -0.2381  -0.2019  -0.1961  -0.1389

          Ground-State Mulliken Net Atomic Charges

     Atom                 Charge (a.u.)
  ----------------------------------------
      1 C                    -1.314074
      2 C                     0.046918
      3 C                     0.103782
      4 C                    -1.157923
      5 C                    -1.800385
      6 C                     1.070020
      7 O                    -0.284521
      8 O                    -0.433655
      9 C                     0.066206
     10 C                     1.023079
     11 O                    -0.214900
     12 H                     0.155135
     13 H                     0.142524
     14 H                    -0.109978
     15 H                     0.153512
     16 H                     0.153319
     17 H                     0.400939
  ----------------------------------------
  Sum of atomic charges =    -2.000000

                    Cartesian Multipole Moments
 -----------------------------------------------------------------
    Charge (ESU x 10^10)
                -9.6064
    Dipole Moment (Debye)
         X      -0.9666      Y      -1.1607      Z      -0.5901
       Tot       1.6217
    Quadrupole Moments (Debye-Ang)
        XX     -84.3969     XY      -1.7943     YY    -144.5650
        XZ      -6.0289     YZ       3.5898     ZZ     -77.0262

 Total job time:  186.05s(wall), 1364.50s(cpu)
        *  Thank you very much for using Q-Chem.  Have a nice day.  *
