 Q-Chem 5.4, Q-Chem, Inc., Pleasanton, CA (2021)
 Q-Chem 5.4.0 for Intel X86 EM64T Linux

User input:
--------------------------------------------------------------
$molecule
0 1
C                 -0.9498830000      2.1013000000     -0.2164810000
C                 -1.3654260000      2.2019960000      1.1076570000
C                 -0.7294150000      1.4505820000      2.0975630000
C                  0.1042650000      1.2467870000     -0.5482110000
C                  0.7460100000      0.4893620000      0.4454310000
C                  0.3221080000      0.5969660000      1.7687770000
C                  0.5559280000      1.1283770000     -1.9463970000
C                  1.6883020000      0.2051910000     -2.2458630000
C                  2.3162740000     -0.5436360000     -1.3061520000
C                  1.8808400000     -0.4342720000      0.1019590000
O                  0.0582260000      1.7430710000     -2.8831000000
O                  2.4286200000     -1.0850920000      0.9809930000
H                 -1.4279230000      2.6736340000     -1.0020320000
H                 -2.1827080000      2.8639670000      1.3694350000
H                 -1.0546540000      1.5304780000      3.1286520000
H                  0.8260630000      0.0069540000      2.5241630000
O                  2.0342760000      0.1710050000     -3.5430900000
C                  3.4623510000     -1.4579870000     -1.6363110000
C                  4.8371960000     -0.7731270000     -1.4810130000
C                  6.0016780000     -1.7122610000     -1.8115200000
C                  7.3757280000     -1.0486740000     -1.6661130000
C                  8.5447510000     -1.9828000000     -1.9988130000
C                  9.9190590000     -1.3198610000     -1.8517680000
C                 11.0877840000     -2.2538360000     -2.1852050000
C                 12.4614820000     -1.5882980000     -2.0365700000
C                 13.6246060000     -2.5346280000     -2.3748700000
C                 14.9682060000     -1.8441250000     -2.2169170000
Br                16.4856230000     -3.0510690000     -2.6509400000
H                  1.4246110000      0.7804280000     -4.0012420000
H                  3.3509950000     -1.8151910000     -2.6632940000
H                  3.4198590000     -2.3216980000     -0.9681490000
H                  4.9398870000     -0.4092030000     -0.4532410000
H                  4.8767090000      0.1050600000     -2.1354150000
H                  5.8862750000     -2.0858080000     -2.8371610000
H                  5.9526480000     -2.5921770000     -1.1576930000
H                  7.4904400000     -0.6767080000     -0.6399310000
H                  7.4218190000     -0.1658470000     -2.3167880000
H                  8.4302710000     -2.3543210000     -3.0253070000
H                  8.4979860000     -2.8662180000     -1.3491380000
H                 10.0335720000     -0.9491090000     -0.8250100000
H                  9.9655530000     -0.4359390000     -2.5009350000
H                 10.9751330000     -2.6238580000     -3.2120620000
H                 11.0427190000     -3.1375420000     -1.5363420000
H                 12.5759120000     -1.2205340000     -1.0091610000
H                 12.5076380000     -0.7050820000     -2.6859910000
H                 13.5200780000     -2.8973430000     -3.4021290000
H                 13.5881570000     -3.4136990000     -1.7239880000
H                 15.1522560000     -1.5211110000     -1.1939900000
H                 15.0829250000     -0.9978740000     -2.8916700000
$end

$rem
BASIS  =  6-311++G(d,p)
GUI  =  2
JOB_TYPE  =  SP
METHOD  =  B3LYP
SCF_CONVERGENCE  = 8
SOLVENT_METHOD = sm12
$end

$smx
solvent dimethylformamide
charges CM5
$end

--------------------------------------------------------------

             Standard Nuclear Orientation (Angstroms)
    I     Atom           X                Y                Z
 ----------------------------------------------------------------
    1      C      -0.9498830000     2.1013000000    -0.2164810000
    2      C      -1.3654260000     2.2019960000     1.1076570000
    3      C      -0.7294150000     1.4505820000     2.0975630000
    4      C       0.1042650000     1.2467870000    -0.5482110000
    5      C       0.7460100000     0.4893620000     0.4454310000
    6      C       0.3221080000     0.5969660000     1.7687770000
    7      C       0.5559280000     1.1283770000    -1.9463970000
    8      C       1.6883020000     0.2051910000    -2.2458630000
    9      C       2.3162740000    -0.5436360000    -1.3061520000
   10      C       1.8808400000    -0.4342720000     0.1019590000
   11      O       0.0582260000     1.7430710000    -2.8831000000
   12      O       2.4286200000    -1.0850920000     0.9809930000
   13      H      -1.4279230000     2.6736340000    -1.0020320000
   14      H      -2.1827080000     2.8639670000     1.3694350000
   15      H      -1.0546540000     1.5304780000     3.1286520000
   16      H       0.8260630000     0.0069540000     2.5241630000
   17      O       2.0342760000     0.1710050000    -3.5430900000
   18      C       3.4623510000    -1.4579870000    -1.6363110000
   19      C       4.8371960000    -0.7731270000    -1.4810130000
   20      C       6.0016780000    -1.7122610000    -1.8115200000
   21      C       7.3757280000    -1.0486740000    -1.6661130000
   22      C       8.5447510000    -1.9828000000    -1.9988130000
   23      C       9.9190590000    -1.3198610000    -1.8517680000
   24      C      11.0877840000    -2.2538360000    -2.1852050000
   25      C      12.4614820000    -1.5882980000    -2.0365700000
   26      C      13.6246060000    -2.5346280000    -2.3748700000
   27      C      14.9682060000    -1.8441250000    -2.2169170000
   28      Br     16.4856230000    -3.0510690000    -2.6509400000
   29      H       1.4246110000     0.7804280000    -4.0012420000
   30      H       3.3509950000    -1.8151910000    -2.6632940000
   31      H       3.4198590000    -2.3216980000    -0.9681490000
   32      H       4.9398870000    -0.4092030000    -0.4532410000
   33      H       4.8767090000     0.1050600000    -2.1354150000
   34      H       5.8862750000    -2.0858080000    -2.8371610000
   35      H       5.9526480000    -2.5921770000    -1.1576930000
   36      H       7.4904400000    -0.6767080000    -0.6399310000
   37      H       7.4218190000    -0.1658470000    -2.3167880000
   38      H       8.4302710000    -2.3543210000    -3.0253070000
   39      H       8.4979860000    -2.8662180000    -1.3491380000
   40      H      10.0335720000    -0.9491090000    -0.8250100000
   41      H       9.9655530000    -0.4359390000    -2.5009350000
   42      H      10.9751330000    -2.6238580000    -3.2120620000
   43      H      11.0427190000    -3.1375420000    -1.5363420000
   44      H      12.5759120000    -1.2205340000    -1.0091610000
   45      H      12.5076380000    -0.7050820000    -2.6859910000
   46      H      13.5200780000    -2.8973430000    -3.4021290000
   47      H      13.5881570000    -3.4136990000    -1.7239880000
   48      H      15.1522560000    -1.5211110000    -1.1939900000
   49      H      15.0829250000    -0.9978740000    -2.8916700000
 ----------------------------------------------------------------

   15   -3577.3114541026      7.60e-09  Convergence criterion met
 Total energy in the final basis set =    -3577.3390522374

                    Orbital Energies (a.u.)
 --------------------------------------------------------------

 Alpha MOs
 -- Occupied --
******** -62.4650 -56.2854 -56.2816 -56.2816 -19.1791 -19.1487 -19.1263
-10.2925 -10.2785 -10.2675 -10.2238 -10.2109 -10.2095 -10.2044 -10.2009
-10.1990 -10.1972 -10.1971 -10.1770 -10.1767 -10.1712 -10.1693 -10.1662
-10.1641 -10.1640 -10.1633 -10.1630  -8.6737  -6.5047  -6.4925  -6.4923
 -2.6156  -2.6123  -2.6120  -2.6024  -2.6023  -1.1091  -1.0669  -1.0595
 -0.8923  -0.8449  -0.8275  -0.8126  -0.7978  -0.7820  -0.7792  -0.7603
 -0.7333  -0.7054  -0.6855  -0.6606  -0.6504  -0.6270  -0.6071  -0.6028
 -0.5897  -0.5793  -0.5790  -0.5735  -0.5422  -0.5180  -0.4972  -0.4945
 -0.4826  -0.4777  -0.4725  -0.4648  -0.4616  -0.4522  -0.4468  -0.4389
 -0.4353  -0.4294  -0.4270  -0.4243  -0.4152  -0.4078  -0.4013  -0.4007
 -0.3918  -0.3806  -0.3769  -0.3740  -0.3709  -0.3694  -0.3552  -0.3491
 -0.3478  -0.3372  -0.3352  -0.3283  -0.3275  -0.3247  -0.3118  -0.3018
 -0.2891  -0.2794  -0.2768  -0.2759  -0.2753  -0.2574

          Ground-State Mulliken Net Atomic Charges

     Atom                 Charge (a.u.)
  ----------------------------------------
      1 C                     0.324329
      2 C                     0.398804
      3 C                     0.378258
      4 C                     0.565079
      5 C                    -0.647634
      6 C                    -0.050760
      7 C                    -1.118268
      8 C                    -0.539957
      9 C                     1.503218
     10 C                    -1.464021
     11 O                    -0.294939
     12 O                    -0.284612
     13 H                     0.217632
     14 H                     0.329132
     15 H                     0.316226
     16 H                     0.185894
     17 O                    -0.197027
     18 C                    -0.308746
     19 C                    -1.000283
     20 C                    -0.335781
     21 C                    -0.162058
     22 C                    -0.006453
     23 C                     0.184671
     24 C                     0.064620
     25 C                     0.160062
     26 C                    -0.358223
     27 C                    -0.476605
     28 Br                   -0.309136
     29 H                     0.293477
     30 H                     0.228713
     31 H                     0.181717
     32 H                     0.115078
     33 H                     0.138637
     34 H                     0.109666
     35 H                     0.109309
     36 H                     0.108707
     37 H                     0.112304
     38 H                     0.109565
     39 H                     0.108759
     40 H                     0.108741
     41 H                     0.109477
     42 H                     0.115596
     43 H                     0.114651
     44 H                     0.128240
     45 H                     0.128449
     46 H                     0.112066
     47 H                     0.111595
     48 H                     0.190788
     49 H                     0.191041
  ----------------------------------------
  Sum of atomic charges =     0.000000

                    Cartesian Multipole Moments
 -----------------------------------------------------------------
    Charge (ESU x 10^10)
                -0.0000
    Dipole Moment (Debye)
         X      -4.4738      Y       3.1059      Z       1.6962
       Tot       5.7042
    Quadrupole Moments (Debye-Ang)
        XX    -230.6325     XY      24.3990     YY    -165.2771
        XZ       6.7728     YZ       1.8358     ZZ    -159.8385

 Total job time:  2132.86s(wall), 16274.25s(cpu)
        *  Thank you very much for using Q-Chem.  Have a nice day.  *
