 Gaussian 16, Revision A.03,
 Gaussian 16:  ES64L-G16RevA.03 25-Dec-2016

 --------------------------------------
 #P UB3LYP/6-311++G(d,p) nosym opt freq
 --------------------------------------

 --------
 Oxidized
 --------
 Symbolic Z-matrix:
 Charge =  0 Multiplicity = 1

 SCF Done:  E(UB3LYP) =  -3577.31441762     A.U. after   17 cycles
 Optimization completed.
    -- Stationary point found.
 Normal termination of Gaussian 16 at Mon Jan  8 21:41:30 2024.

 ----------------------------------------------------------------------
 #P Geom=AllCheck Guess=TCheck SCRF=Check GenChk UB3LYP/6-311++G(d,p) F
 req
 ----------------------------------------------------------------------

 Structure from the checkpoint file:  "295.chk"
 --------
 Oxidized
 --------
 Charge =  0 Multiplicity = 1

                          Input orientation:
 ---------------------------------------------------------------------
 Center     Atomic      Atomic             Coordinates (Angstroms)
 Number     Number       Type             X           Y           Z
 ---------------------------------------------------------------------
      1          6           0       -0.949883    2.101300   -0.216481
      2          6           0       -1.365426    2.201996    1.107657
      3          6           0       -0.729415    1.450582    2.097563
      4          6           0        0.104265    1.246787   -0.548211
      5          6           0        0.746010    0.489362    0.445431
      6          6           0        0.322108    0.596966    1.768777
      7          6           0        0.555928    1.128377   -1.946397
      8          6           0        1.688302    0.205191   -2.245863
      9          6           0        2.316274   -0.543636   -1.306152
     10          6           0        1.880840   -0.434272    0.101959
     11          8           0        0.058226    1.743071   -2.883100
     12          8           0        2.428620   -1.085092    0.980993
     13          1           0       -1.427923    2.673634   -1.002032
     14          1           0       -2.182708    2.863967    1.369435
     15          1           0       -1.054654    1.530478    3.128652
     16          1           0        0.826063    0.006954    2.524163
     17          8           0        2.034276    0.171005   -3.543090
     18          6           0        3.462351   -1.457987   -1.636311
     19          6           0        4.837196   -0.773127   -1.481013
     20          6           0        6.001678   -1.712261   -1.811520
     21          6           0        7.375728   -1.048674   -1.666113
     22          6           0        8.544751   -1.982800   -1.998813
     23          6           0        9.919059   -1.319861   -1.851768
     24          6           0       11.087784   -2.253836   -2.185205
     25          6           0       12.461482   -1.588298   -2.036570
     26          6           0       13.624606   -2.534628   -2.374870
     27          6           0       14.968206   -1.844125   -2.216917
     28         35           0       16.485623   -3.051069   -2.650940
     29          1           0        1.424611    0.780428   -4.001242
     30          1           0        3.350995   -1.815191   -2.663294
     31          1           0        3.419859   -2.321698   -0.968149
     32          1           0        4.939887   -0.409203   -0.453241
     33          1           0        4.876709    0.105060   -2.135415
     34          1           0        5.886275   -2.085808   -2.837161
     35          1           0        5.952648   -2.592177   -1.157693
     36          1           0        7.490440   -0.676708   -0.639931
     37          1           0        7.421819   -0.165847   -2.316788
     38          1           0        8.430271   -2.354321   -3.025307
     39          1           0        8.497986   -2.866218   -1.349138
     40          1           0       10.033572   -0.949109   -0.825010
     41          1           0        9.965553   -0.435939   -2.500935
     42          1           0       10.975133   -2.623858   -3.212062
     43          1           0       11.042719   -3.137542   -1.536342
     44          1           0       12.575912   -1.220534   -1.009161
     45          1           0       12.507638   -0.705082   -2.685991
     46          1           0       13.520078   -2.897343   -3.402129
     47          1           0       13.588157   -3.413699   -1.723988
     48          1           0       15.152256   -1.521111   -1.193990
     49          1           0       15.082925   -0.997874   -2.891670
 ---------------------------------------------------------------------

 SCF Done:  E(UB3LYP) =  -3577.31441762     A.U. after    2 cycles

 Alpha  occ. eigenvalues -- -482.81356 -62.46649 -56.28676 -56.28296 -56.28293
 Alpha  occ. eigenvalues --  -19.18056 -19.15145 -19.12752 -10.29536 -10.27962
 Alpha  occ. eigenvalues --  -10.26912 -10.22828 -10.21705 -10.21527 -10.20921
 Alpha  occ. eigenvalues --  -10.20906 -10.20776 -10.20651 -10.20440 -10.18276
 Alpha  occ. eigenvalues --  -10.17835 -10.17817 -10.17214 -10.17053 -10.16892
 Alpha  occ. eigenvalues --  -10.16694 -10.16654 -10.16618  -8.67601  -6.50706
 Alpha  occ. eigenvalues --   -6.49461  -6.49450  -2.61797  -2.61448  -2.61440
 Alpha  occ. eigenvalues --   -2.60451  -2.60451  -1.11099  -1.06910  -1.06030
 Alpha  occ. eigenvalues --   -0.89921  -0.84796  -0.83259  -0.81607  -0.80243
 Alpha  occ. eigenvalues --   -0.78772  -0.78570  -0.76430  -0.73696  -0.70910
 Alpha  occ. eigenvalues --   -0.68978  -0.66564  -0.65516  -0.63182  -0.61231
 Alpha  occ. eigenvalues --   -0.60721  -0.59463  -0.58357  -0.58182  -0.57864
 Alpha  occ. eigenvalues --   -0.54560  -0.52338  -0.50297  -0.50059  -0.48773
 Alpha  occ. eigenvalues --   -0.48384  -0.47501  -0.46902  -0.46533  -0.45969
 Alpha  occ. eigenvalues --   -0.44956  -0.44334  -0.43981  -0.43310  -0.43131
 Alpha  occ. eigenvalues --   -0.42624  -0.41895  -0.41241  -0.40517  -0.40391
 Alpha  occ. eigenvalues --   -0.39754  -0.38681  -0.38176  -0.37802  -0.37770
 Alpha  occ. eigenvalues --   -0.37438  -0.35916  -0.35294  -0.35123  -0.34161
 Alpha  occ. eigenvalues --   -0.33945  -0.33197  -0.33113  -0.32742  -0.31570
 Alpha  occ. eigenvalues --   -0.30402  -0.29528  -0.28652  -0.27729  -0.27637
 Alpha  occ. eigenvalues --   -0.27612  -0.25993
 Alpha virt. eigenvalues --   -0.12791  -0.06196  -0.03222  -0.02164  -0.01414
 Alpha virt. eigenvalues --   -0.00847  -0.00431   0.00132   0.00359   0.00455
 Alpha virt. eigenvalues --    0.00902   0.01392   0.01669   0.01945   0.02117

  Beta  occ. eigenvalues -- -482.81356 -62.46649 -56.28676 -56.28296 -56.28293
  Beta  occ. eigenvalues --  -19.18056 -19.15145 -19.12752 -10.29536 -10.27962
  Beta  occ. eigenvalues --  -10.26912 -10.22828 -10.21705 -10.21527 -10.20921
  Beta  occ. eigenvalues --  -10.20906 -10.20776 -10.20651 -10.20440 -10.18276
  Beta  occ. eigenvalues --  -10.17835 -10.17817 -10.17214 -10.17053 -10.16892
  Beta  occ. eigenvalues --  -10.16694 -10.16654 -10.16618  -8.67601  -6.50706
  Beta  occ. eigenvalues --   -6.49461  -6.49450  -2.61797  -2.61448  -2.61440
  Beta  occ. eigenvalues --   -2.60451  -2.60451  -1.11099  -1.06910  -1.06030
  Beta  occ. eigenvalues --   -0.89921  -0.84796  -0.83259  -0.81607  -0.80243
  Beta  occ. eigenvalues --   -0.78772  -0.78570  -0.76430  -0.73696  -0.70910
  Beta  occ. eigenvalues --   -0.68978  -0.66564  -0.65516  -0.63182  -0.61231
  Beta  occ. eigenvalues --   -0.60721  -0.59463  -0.58357  -0.58182  -0.57864
  Beta  occ. eigenvalues --   -0.54560  -0.52338  -0.50297  -0.50059  -0.48773
  Beta  occ. eigenvalues --   -0.48384  -0.47501  -0.46902  -0.46533  -0.45969
  Beta  occ. eigenvalues --   -0.44956  -0.44334  -0.43981  -0.43310  -0.43131
  Beta  occ. eigenvalues --   -0.42624  -0.41895  -0.41241  -0.40517  -0.40391
  Beta  occ. eigenvalues --   -0.39754  -0.38681  -0.38176  -0.37802  -0.37770
  Beta  occ. eigenvalues --   -0.37438  -0.35916  -0.35294  -0.35123  -0.34161
  Beta  occ. eigenvalues --   -0.33945  -0.33197  -0.33113  -0.32742  -0.31570
  Beta  occ. eigenvalues --   -0.30402  -0.29528  -0.28652  -0.27729  -0.27637
  Beta  occ. eigenvalues --   -0.27612  -0.25993
  Beta virt. eigenvalues --   -0.12791  -0.06196  -0.03222  -0.02164  -0.01414
  Beta virt. eigenvalues --   -0.00847  -0.00431   0.00132   0.00359   0.00455
  Beta virt. eigenvalues --    0.00902   0.01392   0.01669   0.01945   0.02117

 Mulliken charges and spin densities:
               1          2
     1  C    0.115760  -0.000000
     2  C   -0.331618   0.000000
     3  C   -0.338733  -0.000000
     4  C    0.557268  -0.000000
     5  C   -0.085012   0.000000
     6  C    0.110041   0.000000
     7  C   -0.912946   0.000000
     8  C   -0.493981  -0.000000
     9  C    1.959239   0.000000
    10  C   -0.848758  -0.000000
    11  O   -0.277951  -0.000000
    12  O   -0.210605   0.000000
    13  H    0.186407   0.000000
    14  H    0.180502  -0.000000
    15  H    0.178104   0.000000
    16  H    0.191490   0.000000
    17  O   -0.197376   0.000000
    18  C   -0.350212   0.000000
    19  C   -0.839360  -0.000000
    20  C   -0.295372   0.000000
    21  C   -0.015910   0.000000
    22  C    0.022743  -0.000000
    23  C   -0.011121  -0.000000
    24  C   -0.147173   0.000000
    25  C   -0.279647   0.000000
    26  C   -0.370645   0.000000
    27  C   -0.630715   0.000000
    28  Br  -0.145086   0.000000
    29  H    0.288109   0.000000
    30  H    0.235265   0.000000
    31  H    0.229013  -0.000000
    32  H    0.181050   0.000000
    33  H    0.171763   0.000000
    34  H    0.111819  -0.000000
    35  H    0.119609  -0.000000
    36  H    0.125755  -0.000000
    37  H    0.123836  -0.000000
    38  H    0.128364   0.000000
    39  H    0.129756   0.000000
    40  H    0.127431   0.000000
    41  H    0.127036  -0.000000
    42  H    0.129170  -0.000000
    43  H    0.129604  -0.000000
    44  H    0.129241   0.000000
    45  H    0.128798  -0.000000
    46  H    0.143290   0.000000
    47  H    0.143473   0.000000
    48  H    0.189212  -0.000000
    49  H    0.189072  -0.000000
 Sum of Mulliken charges =  -0.00000   0.00000

 Dipole moment (field-independent basis, Debye):
    X=             -3.8091    Y=              2.5634    Z=              1.3308  Tot=              4.7803
 Quadrupole moment (field-independent basis, Debye-Ang):
   XX=           -226.9712   YY=           -165.3803   ZZ=           -160.2148
   XY=             22.8836   XZ=              6.6816   YZ=              1.2890

  Exact polarizability: 340.127 -74.810 228.646 -25.888  -1.415 269.079
 Approx polarizability: 402.029-101.646 374.602   8.514 -45.876 475.596

                      1                      2                      3
                      A                      A                      A
 Frequencies --      9.1285                14.9614                19.3076
 Red. masses --      6.8921                 6.2267                 3.2998
 Frc consts  --      0.0003                 0.0008                 0.0007
 IR Inten    --      0.0257                 0.0584                 1.0207

                      4                      5                      6
                      A                      A                      A
 Frequencies --     30.1895                35.5205                52.2023
 Red. masses --      2.4025                 6.5551                 2.9931
 Frc consts  --      0.0013                 0.0049                 0.0048
 IR Inten    --      0.0152                 1.7968                 0.1800

                      7                      8                      9
                      A                      A                      A
 Frequencies --     64.2254                75.2990                88.9791
 Red. masses --      8.3910                 1.8969                 6.6928
 Frc consts  --      0.0204                 0.0063                 0.0312
 IR Inten    --      1.8806                 0.2483                 1.1252

                     10                     11                     12
                      A                      A                      A
 Frequencies --     96.8173               100.3609               120.9989
 Red. masses --      2.5091                 6.1514                 1.9560
 Frc consts  --      0.0139                 0.0365                 0.0169
 IR Inten    --      0.6685                 0.1722                 0.0020

                     13                     14                     15
                      A                      A                      A
 Frequencies --    123.2245               136.6344               138.6407
 Red. masses --      5.1081                 5.6140                 2.2559
 Frc consts  --      0.0457                 0.0618                 0.0255
 IR Inten    --      0.2414                 1.1345                 0.1878

                     16                     17                     18
                      A                      A                      A
 Frequencies --    160.0531               167.6857               173.0970
 Red. masses --      2.0208                 2.0374                 6.2277
 Frc consts  --      0.0305                 0.0338                 0.1099
 IR Inten    --      0.0238                 0.0799                 0.1256

                     19                     20                     21
                      A                      A                      A
 Frequencies --    213.4896               236.6673               251.8671
 Red. masses --      4.9089                 4.6730                 4.3392
 Frc consts  --      0.1318                 0.1542                 0.1622
 IR Inten    --      0.1995                 0.8338                 0.3209

                     22                     23                     24
                      A                      A                      A
 Frequencies --    302.5238               313.4276               336.0984
 Red. masses --      2.9542                 4.7089                 4.9564
 Frc consts  --      0.1593                 0.2725                 0.3299
 IR Inten    --      2.3500                 0.4061                 6.2253

                     25                     26                     27
                      A                      A                      A
 Frequencies --    367.3431               380.8662               389.2545
 Red. masses --      5.0559                 3.9327                 9.6720
 Frc consts  --      0.4020                 0.3361                 0.8634
 IR Inten    --      3.5773                 0.0647                22.0691

                     28                     29                     30
                      A                      A                      A
 Frequencies --    419.6021               432.2023               445.5665
 Red. masses --     10.0067                 3.8014                 4.8639
 Frc consts  --      1.0380                 0.4184                 0.5689
 IR Inten    --      8.6257                 3.3707                 3.4510

                     31                     32                     33
                      A                      A                      A
 Frequencies --    456.8492               483.6423               491.6134
 Red. masses --      4.9051                 3.4415                 4.7595
 Frc consts  --      0.6032                 0.4743                 0.6777
 IR Inten    --     10.3447                 0.8486                 0.6865

                     34                     35                     36
                      A                      A                      A
 Frequencies --    528.5722               589.3621               642.7752
 Red. masses --      6.2190                 5.9112                 4.7125
 Frc consts  --      1.0237                 1.2097                 1.1471
 IR Inten    --      2.8405                 7.8188                35.5644

                     37                     38                     39
                      A                      A                      A
 Frequencies --    648.0812               654.7925               677.8821
 Red. masses --      1.1613                 5.5215                 5.9946
 Frc consts  --      0.2874                 1.3948                 1.6230
 IR Inten    --     68.6473                 8.9641                 2.5999

                     40                     41                     42
                      A                      A                      A
 Frequencies --    707.6365               713.8655               732.1312
 Red. masses --      3.3415                 4.6290                 1.0619
 Frc consts  --      0.9859                 1.3899                 0.3354
 IR Inten    --      2.5778                 3.6828                 5.4805

                     43                     44                     45
                      A                      A                      A
 Frequencies --    734.6314               736.3947               741.4612
 Red. masses --      1.1051                 2.4054                 1.1385
 Frc consts  --      0.3514                 0.7685                 0.3688
 IR Inten    --      0.4334                77.2633                 3.8384

                     46                     47                     48
                      A                      A                      A
 Frequencies --    755.1692               766.0894               783.8324
 Red. masses --      1.2023                 6.6623                 1.2891
 Frc consts  --      0.4040                 2.3038                 0.4666
 IR Inten    --      0.0593                 2.1143                 0.5378

                     49                     50                     51
                      A                      A                      A
 Frequencies --    805.9419               826.2194               867.5491
 Red. masses --      1.8949                 1.5028                 1.9182
 Frc consts  --      0.7252                 0.6044                 0.8506
 IR Inten    --     11.9898                 3.0124                 7.1522

                     52                     53                     54
                      A                      A                      A
 Frequencies --    912.3512               913.0749               949.1916
 Red. masses --      1.5406                 1.3277                 5.8492
 Frc consts  --      0.7555                 0.6522                 3.1049
 IR Inten    --      6.1365                 0.0231                28.9521

                     55                     56                     57
                      A                      A                      A
 Frequencies --    970.0371               982.4159               989.0407
 Red. masses --      1.4235                 5.0446                 4.9662
 Frc consts  --      0.7892                 2.8686                 2.8622
 IR Inten    --      0.3910                 6.7237                 3.6572

                     58                     59                     60
                      A                      A                      A
 Frequencies --    997.8515              1011.3018              1016.4630
 Red. masses --      1.3819                 4.0575                 1.3275
 Frc consts  --      0.8107                 2.4449                 0.8081
 IR Inten    --      1.2720                29.2624                 0.1363

                     61                     62                     63
                      A                      A                      A
 Frequencies --   1023.0575              1031.0804              1043.6519
 Red. masses --      1.8828                 3.1121                 2.1009
 Frc consts  --      1.1611                 1.9493                 1.3483
 IR Inten    --      1.9929                 2.0129                24.8501

                     64                     65                     66
                      A                      A                      A
 Frequencies --   1048.5048              1057.1504              1061.2670
 Red. masses --      2.8561                 1.9021                 3.1487
 Frc consts  --      1.8500                 1.2525                 2.0895
 IR Inten    --      1.5853                 5.0394                 0.9300

                     67                     68                     69
                      A                      A                      A
 Frequencies --   1062.9993              1065.3708              1083.2295
 Red. masses --      2.4976                 2.2968                 1.0686
 Frc consts  --      1.6628                 1.5359                 0.7388
 IR Inten    --      0.3657                 0.1171                 0.8809

                     70                     71                     72
                      A                      A                      A
 Frequencies --   1109.6523              1111.8153              1136.2421
 Red. masses --      2.8804                 3.0394                 1.6753
 Frc consts  --      2.0897                 2.2136                 1.2743
 IR Inten    --      0.4921                 4.0276                26.4073

                     73                     74                     75
                      A                      A                      A
 Frequencies --   1182.4774              1196.1458              1216.3661
 Red. masses --      1.1737                 2.2666                 1.1810
 Frc consts  --      0.9669                 1.9107                 1.0295
 IR Inten    --     21.8946                33.8352                 4.1759

                     76                     77                     78
                      A                      A                      A
 Frequencies --   1217.7605              1230.9295              1241.7707
 Red. masses --      1.7417                 2.3589                 1.2403
 Frc consts  --      1.5218                 2.1058                 1.1269
 IR Inten    --      6.1461                50.4302                17.3782

                     79                     80                     81
                      A                      A                      A
 Frequencies --   1253.9931              1273.2376              1283.4668
 Red. masses --      1.5037                 1.2888                 1.3997
 Frc consts  --      1.3932                 1.2310                 1.3585
 IR Inten    --     53.7700                26.4809                52.8221

                     82                     83                     84
                      A                      A                      A
 Frequencies --   1289.2414              1306.7664              1307.4974
 Red. masses --      1.8230                 1.5219                 1.5297
 Frc consts  --      1.7853                 1.5312                 1.5408
 IR Inten    --     33.1350                12.8869               174.4260

                     85                     86                     87
                      A                      A                      A
 Frequencies --   1311.5046              1321.4296              1327.1705
 Red. masses --      1.6240                 1.3800                 1.1427
 Frc consts  --      1.6458                 1.4198                 1.1859
 IR Inten    --     23.9992                49.8542                20.2945

                     88                     89                     90
                      A                      A                      A
 Frequencies --   1331.1874              1337.7967              1339.5186
 Red. masses --      1.1384                 1.2249                 1.3642
 Frc consts  --      1.1886                 1.2916                 1.4422
 IR Inten    --      9.4517                15.9507                 4.7388

                     91                     92                     93
                      A                      A                      A
 Frequencies --   1340.5777              1345.2462              1364.1773
 Red. masses --      1.1165                 1.3830                 1.3896
 Frc consts  --      1.1822                 1.4746                 1.5236
 IR Inten    --      2.8219                18.7894                13.4817

                     94                     95                     96
                      A                      A                      A
 Frequencies --   1366.9360              1381.4764              1393.3016
 Red. masses --      6.2915                 1.4295                 1.5238
 Frc consts  --      6.9263                 1.6074                 1.7429
 IR Inten    --     66.2022                 1.4154                 7.3328

                     97                     98                     99
                      A                      A                      A
 Frequencies --   1400.5110              1401.1751              1402.0759
 Red. masses --      1.7528                 1.6195                 1.8334
 Frc consts  --      2.0256                 1.8733                 2.1235
 IR Inten    --    146.1442                11.5357               179.1805

                    100                    101                    102
                      A                      A                      A
 Frequencies --   1479.4592              1482.7168              1484.4926
 Red. masses --      1.1923                 1.1017                 1.0937
 Frc consts  --      1.5376                 1.4270                 1.4200
 IR Inten    --      5.2401                 0.6599                 0.1352

                    103                    104                    105
                      A                      A                      A
 Frequencies --   1485.3675              1486.7855              1488.6724
 Red. masses --      1.4419                 1.3756                 1.0848
 Frc consts  --      1.8743                 1.7916                 1.4164
 IR Inten    --      4.0980                 7.7199                 0.7870

                    106                    107                    108
                      A                      A                      A
 Frequencies --   1489.9755              1495.4642              1503.2199
 Red. masses --      1.0816                 1.0962                 1.1017
 Frc consts  --      1.4148                 1.4445                 1.4668
 IR Inten    --      1.1750                 0.2506                 2.2127

                    109                    110                    111
                      A                      A                      A
 Frequencies --   1506.6276              1510.4665              1515.3479
 Red. masses --      2.6412                 1.1010                 1.0998
 Frc consts  --      3.5324                 1.4799                 1.4879
 IR Inten    --      4.1642                 0.1345                14.6600

                    112                    113                    114
                      A                      A                      A
 Frequencies --   1613.4363              1627.7903              1690.8415
 Red. masses --      6.6551                 5.9375                 8.0013
 Frc consts  --     10.2073                 9.2693                13.4778
 IR Inten    --      2.0471                78.9088                47.3136

                    115                    116                    117
                      A                      A                      A
 Frequencies --   1702.0368              1704.7889              2991.9214
 Red. masses --     11.2234                11.2102                 1.0575
 Frc consts  --     19.1564                19.1957                 5.5776
 IR Inten    --     67.3082               395.7781                 0.1794

                    118                    119                    120
                      A                      A                      A
 Frequencies --   2992.6792              2995.9024              2997.4634
 Red. masses --      1.0574                 1.0582                 1.0580
 Frc consts  --      5.5796                 5.5959                 5.6005
 IR Inten    --      0.1025                 0.4058                 3.6245

                    121                    122                    123
                      A                      A                      A
 Frequencies --   3002.7197              3008.5870              3009.3898
 Red. masses --      1.0595                 1.0831                 1.0742
 Frc consts  --      5.6281                 5.7763                 5.7318
 IR Inten    --      4.4915                51.8721                77.8061

                    124                    125                    126
                      A                      A                      A
 Frequencies --   3012.9953              3018.0705              3020.2644
 Red. masses --      1.0993                 1.0739                 1.0885
 Frc consts  --      5.8799                 5.7631                 5.8501
 IR Inten    --      0.9105                29.7554                13.5218

                    127                    128                    129
                      A                      A                      A
 Frequencies --   3028.9741              3032.7591              3041.2960
 Red. masses --      1.1034                 1.0588                 1.1048
 Frc consts  --      5.9645                 5.7377                 6.0210
 IR Inten    --      3.0301                23.9242                 0.6093

                    130                    131                    132
                      A                      A                      A
 Frequencies --   3047.1503              3052.1836              3060.0712
 Red. masses --      1.0600                 1.1046                 1.1043
 Frc consts  --      5.7988                 6.0631                 6.0924
 IR Inten    --     30.3985                67.3987                79.7964

                    133                    134                    135
                      A                      A                      A
 Frequencies --   3072.4819              3088.0180              3094.2552
 Red. masses --      1.1054                 1.0563                 1.1056
 Frc consts  --      6.1480                 5.9346                 6.2368
 IR Inten    --     47.4184                17.0171                14.2129

                    136                    137                    138
                      A                      A                      A
 Frequencies --   3149.2895              3171.8706              3185.9035
 Red. masses --      1.1116                 1.0871                 1.0915
 Frc consts  --      6.4956                 6.4437                 6.5273
 IR Inten    --      7.6295                 3.1002                 8.2175

                    139                    140                    141
                      A                      A                      A
 Frequencies --   3199.6006              3202.9770              3616.9420
 Red. masses --      1.0933                 1.0948                 1.0642
 Frc consts  --      6.5944                 6.6175                 8.2029
 IR Inten    --      1.5808                 8.5854               156.1884

 - Thermochemistry -
 -------------------
 Temperature   298.150 Kelvin.  Pressure   1.00000 Atm.
 Atom     1 has atomic number  6 and mass  12.00000

 Molecular mass:   392.09871 amu.
 Principal axes and moments of inertia in atomic units:
                           1         2         3
     Eigenvalues --  2675.63671********************
           X            0.96374   0.12241   0.23710
           Y           -0.22965  -0.07199   0.97061
           Z           -0.13588   0.98987   0.04127
 This molecule is an asymmetric top.
 Rotational symmetry number  1.
 Warning -- assumption of classical behavior for rotation
           may cause significant error
 Rotational temperatures (Kelvin)      0.03237     0.00133     0.00130
 Rotational constants (GHZ):           0.67451     0.02774     0.02718
 Zero-point vibrational energy    1078681.5 (Joules/Mol)
                                  257.81107 (Kcal/Mol)
 Warning -- explicit consideration of  35 degrees of freedom as
           vibrations may cause significant error
 Vibrational temperatures:     13.13    21.53    27.78    43.44    51.11
          (Kelvin)             75.11    92.41   108.34   128.02   139.30
                              144.40   174.09   177.29   196.59   199.47
                              230.28   241.26   249.05   307.16   340.51
                              362.38   435.26   450.95   483.57   528.52
                              547.98   560.05   603.71   621.84   641.07
                              657.30   695.85   707.32   760.50   847.96
                              924.81   932.44   942.10   975.32  1018.13
                             1027.09  1053.37  1056.97  1059.51  1066.80
                             1086.52  1102.23  1127.76  1159.57  1188.75
                             1248.21  1312.67  1313.71  1365.67  1395.67
                             1413.48  1423.01  1435.69  1455.04  1462.46
                             1471.95  1483.49  1501.58  1508.56  1521.00
                             1526.93  1529.42  1532.83  1558.53  1596.54
                             1599.65  1634.80  1701.32  1720.99  1750.08
                             1752.09  1771.03  1786.63  1804.22  1831.90
                             1846.62  1854.93  1880.15  1881.20  1886.96
                             1901.24  1909.50  1915.28  1924.79  1927.27
                             1928.79  1935.51  1962.75  1966.72  1987.64
                             2004.65  2015.02  2015.98  2017.27  2128.61
                             2133.30  2135.85  2137.11  2139.15  2141.87
                             2143.74  2151.64  2162.80  2167.70  2173.22
                             2180.25  2321.37  2342.03  2432.74  2448.85
                             2452.81  4304.71  4305.80  4310.44  4312.68
                             4320.24  4328.69  4329.84  4335.03  4342.33
                             4345.49  4358.02  4363.46  4375.75  4384.17
                             4391.41  4402.76  4420.62  4442.97  4451.94
                             4531.13  4563.61  4583.80  4603.51  4608.37
                             5203.97

 Zero-point correction=                           0.410848 (Hartree/Particle)
 Thermal correction to Energy=                    0.435718
 Thermal correction to Enthalpy=                  0.436662
 Thermal correction to Gibbs Free Energy=         0.349552
 Sum of electronic and zero-point Energies=          -3576.903570
 Sum of electronic and thermal Energies=             -3576.878700
 Sum of electronic and thermal Enthalpies=           -3576.877756
 Sum of electronic and thermal Free Energies=        -3576.964866

                     E (Thermal)             CV                S
                      KCal/Mol        Cal/Mol-Kelvin    Cal/Mol-Kelvin
 Total                  273.417             90.891            183.338
 Electronic               0.000              0.000              0.000
 Translational            0.889              2.981             43.791
 Rotational               0.889              2.981             37.689
 Vibrational            271.640             84.929            101.859
 Vibration     1          0.593              1.987              8.192
 Vibration     2          0.593              1.986              7.211
 Vibration     3          0.593              1.986              6.704
 Vibration     4          0.594              1.984              5.817
 Vibration     5          0.594              1.982              5.494
 Vibration     6          0.596              1.977              4.732
 Vibration     7          0.597              1.971              4.323
 Vibration     8          0.599              1.965              4.010
 Vibration     9          0.602              1.957              3.682
 Vibration    10          0.603              1.951              3.517
 Vibration    11          0.604              1.949              3.447
 Vibration    12          0.609              1.932              3.084
 Vibration    13          0.610              1.930              3.049
 Vibration    14          0.614              1.917              2.850
 Vibration    15          0.614              1.915              2.823
 Vibration    16          0.622              1.891              2.549
 Vibration    17          0.624              1.882              2.461
 Vibration    18          0.627              1.876              2.402
 Vibration    19          0.644              1.820              2.014
 Vibration    20          0.656              1.785              1.828
 Vibration    21          0.664              1.760              1.717
 Vibration    22          0.694              1.669              1.403
 Vibration    23          0.701              1.648              1.344
 Vibration    24          0.717              1.603              1.231
 Vibration    25          0.740              1.539              1.091
 Vibration    26          0.751              1.511              1.036
 Vibration    27          0.757              1.493              1.003
 Vibration    28          0.782              1.428              0.893
 Vibration    29          0.793              1.400              0.851
 Vibration    30          0.805              1.371              0.809
 Vibration    31          0.815              1.346              0.775
 Vibration    32          0.840              1.286              0.700
 Vibration    33          0.847              1.269              0.679
 Vibration    34          0.884              1.187              0.590
 Vibration    35          0.947              1.054              0.468

 Optimization completed.
    -- Stationary point found.
 Normal termination of Gaussian 16 at Tue Jan  9 01:43:42 2024.
