 Q-Chem 5.4, Q-Chem, Inc., Pleasanton, CA (2021)
 Q-Chem 5.4.0 for Intel X86 EM64T Linux

User input:
--------------------------------------------------------------
$molecule
-1 2
C                  0.6491370000     -1.7247800000     -0.9505770000
C                 -0.5061100000     -1.1456530000     -0.2785310000
C                 -0.4308930000      0.0189200000      0.4421270000
C                  0.8104070000      0.7778350000      0.5976250000
C                  1.9453880000      0.1712390000     -0.0897820000
C                  1.9086610000     -0.9809320000     -0.8254490000
O                  0.5918470000     -2.7927120000     -1.6016910000
O                  0.8828380000      1.8336760000      1.2518320000
Br                -2.1376060000     -2.1336320000     -0.4725070000
Br                -1.9479130000      0.7807350000      1.3295960000
Br                 3.6017470000      1.1565940000      0.1181950000
C                  3.0976260000     -1.5904910000     -1.5236230000
C                  3.8331440000     -2.6303350000     -0.6569840000
C                  5.0157870000     -3.2777240000     -1.3852820000
C                  5.7596460000     -4.3190710000     -0.5415970000
C                  6.9426980000     -4.9719900000     -1.2656960000
C                  7.6791430000     -6.0116510000     -0.4147080000
H                  3.7970470000     -0.8048380000     -1.8186490000
H                  2.7331610000     -2.0888240000     -2.4255970000
H                  3.1178290000     -3.4036870000     -0.3586740000
H                  4.1874970000     -2.1478850000      0.2612520000
H                  5.7215720000     -2.4964120000     -1.6984870000
H                  4.6543760000     -3.7515480000     -2.3074510000
H                  5.0540270000     -5.0994470000     -0.2278330000
H                  6.1192200000     -3.8465530000      0.3821300000
H                  7.6480830000     -4.1923150000     -1.5795230000
H                  6.5835260000     -5.4447510000     -2.1882880000
H                  8.0794340000     -5.5610760000      0.4995360000
H                  8.5167490000     -6.4591070000     -0.9591600000
H                  7.0071640000     -6.8220850000     -0.1137330000
$end
$rem
MAX_SCF_CYCLES=200
BASIS  =  6-311++G(d,p)
GUI  =  2
JOB_TYPE  =  SP
METHOD  =  B3LYP
SOLVENT_METHOD = COSMO
$end
$solvent
dielectric 37.219
opticaldielectric 1.43
$end

--------------------------------------------------------------

             Standard Nuclear Orientation (Angstroms)
    I     Atom           X                Y                Z
 ----------------------------------------------------------------
    1      C      -0.2552436900    -1.0999517196    -0.6496755942
    2      C      -1.6398965133    -0.9636526023    -0.2186435202
    3      C      -2.1828970986     0.2430853946     0.1421467144
    4      C      -1.4223801909     1.4929989278     0.1251912410
    5      C      -0.0416727060     1.3202801294    -0.3135387661
    6      C       0.5328621813     0.1380209787    -0.6906671055
    7      O       0.2515165469    -2.1989668010    -0.9707211593
    8      O      -1.9110426268     2.5891777864     0.4532677557
    9      Br     -2.6451945252    -2.5958327256    -0.1891080618
   10      Br     -4.0025392382     0.4243902515     0.7125360841
   11      Br      0.9846028711     2.9647424003    -0.3279027790
   12      C       1.9647110262    -0.0154400938    -1.1366552943
   13      C       2.9175541334    -0.3726134444     0.0199961829
   14      C       4.3646848191    -0.5686166480    -0.4442995013
   15      C       5.3293614234    -0.9287625734     0.6911423189
   16      C       6.7785042189    -1.1283429850     0.2324622183
   17      C       7.7346621457    -1.4886521170     1.3741128467
   18      H       2.3047252519     0.9061162554    -1.6147817773
   19      H       1.9981632782    -0.8225233402    -1.8730147120
   20      H       2.5576367240    -1.2899804337     0.4971072672
   21      H       2.8791304627     0.4200988513     0.7760466049
   22      H       4.7151861005     0.3477657990    -0.9383342594
   23      H       4.3938176946    -1.3580254715    -1.2068660514
   24      H       4.9785211211    -1.8441322972     1.1854520126
   25      H       5.2988871735    -0.1409367919     1.4554983554
   26      H       7.1294423478    -0.2136968727    -0.2617173126
   27      H       6.8092534142    -1.9159272637    -0.5307212316
   28      H       7.7513088443    -0.7035795645     2.1373145118
   29      H       8.7596153268    -1.6247496645     1.0147006909
   30      H       7.4286036370    -2.4177339855     1.8661291738
 ----------------------------------------------------------------

   10   -8338.2251659250      5.53e-06  Convergence criterion met
 Total energy in the final basis set =    -8338.2251659250
    4   -8338.3001586826      7.42e-06  Convergence criterion met
 Total energy in the final basis set =    -8338.3001586826

                    Orbital Energies (a.u.)
 --------------------------------------------------------------

 Alpha MOs
 -- Occupied --
********-482.8336-482.8279 -62.4869 -62.4863 -62.4808 -56.3074 -56.3068
-56.3037 -56.3033 -56.3031 -56.3027 -56.3012 -56.2976 -56.2972 -19.0993
-19.0975 -10.2545 -10.2482 -10.2381 -10.2365 -10.2292 -10.1960 -10.1660
-10.1602 -10.1576 -10.1568 -10.1556 -10.1510  -8.6956  -8.6950  -8.6894
 -6.5271  -6.5264  -6.5205  -6.5146  -6.5140  -6.5134  -6.5128  -6.5085
 -6.5075  -2.6380  -2.6372  -2.6346  -2.6341  -2.6338  -2.6331  -2.6314
 -2.6283  -2.6275  -2.6237  -2.6237  -2.6232  -2.6231  -2.6179  -2.6178
 -1.0323  -1.0261  -0.8729  -0.8394  -0.8024  -0.7982  -0.7797  -0.7672
 -0.7326  -0.6966  -0.6856  -0.6405  -0.5909  -0.5805  -0.5715  -0.5662
 -0.5230  -0.4740  -0.4705  -0.4466  -0.4450  -0.4412  -0.4293  -0.4207
 -0.4146  -0.4086  -0.4040  -0.3956  -0.3869  -0.3820  -0.3734  -0.3510
 -0.3496  -0.3425  -0.3308  -0.3234  -0.3219  -0.3166  -0.3126  -0.3089
 -0.3080  -0.2899  -0.2835  -0.2774  -0.2690  -0.2553  -0.2460  -0.1798

 Beta MOs
 -- Occupied --
********-482.8335-482.8279 -62.4869 -62.4863 -62.4808 -56.3074 -56.3068
-56.3036 -56.3033 -56.3030 -56.3027 -56.3012 -56.2975 -56.2972 -19.0928
-19.0906 -10.2532 -10.2469 -10.2366 -10.2351 -10.2284 -10.1949 -10.1661
-10.1601 -10.1576 -10.1567 -10.1556 -10.1510  -8.6956  -8.6950  -8.6894
 -6.5271  -6.5264  -6.5205  -6.5144  -6.5139  -6.5134  -6.5128  -6.5085
 -6.5075  -2.6380  -2.6373  -2.6346  -2.6341  -2.6338  -2.6331  -2.6314
 -2.6283  -2.6275  -2.6237  -2.6236  -2.6231  -2.6230  -2.6179  -2.6178
 -1.0211  -1.0142  -0.8679  -0.8379  -0.8021  -0.7967  -0.7783  -0.7659
 -0.7310  -0.6948  -0.6781  -0.6390  -0.5896  -0.5762  -0.5714  -0.5637
 -0.5209  -0.4738  -0.4664  -0.4428  -0.4386  -0.4327  -0.4272  -0.4159
 -0.4128  -0.4060  -0.3954  -0.3871  -0.3827  -0.3749  -0.3716  -0.3499
 -0.3456  -0.3391  -0.3270  -0.3226  -0.3174  -0.3152  -0.3092  -0.3083
 -0.3035  -0.2896  -0.2824  -0.2631  -0.2584  -0.2502  -0.2404

          Ground-State Mulliken Net Atomic Charges

     Atom                 Charge (a.u.)    Spin (a.u.)
  --------------------------------------------------------
      1 C                    -1.055479       0.094829
      2 C                    -0.241114       0.074760
      3 C                     0.693067       0.093766
      4 C                    -0.908631       0.087016
      5 C                     0.440865       0.041553
      6 C                     1.971727       0.089733
      7 O                    -0.387650       0.251879
      8 O                    -0.361870       0.234004
      9 Br                   -0.166344       0.007836
     10 Br                   -0.156762       0.007959
     11 Br                   -0.118841       0.003797
     12 C                    -0.816815       0.012678
     13 C                    -0.508707      -0.002852
     14 C                    -0.168787       0.005045
     15 C                    -0.247705      -0.002484
     16 C                    -0.204966       0.000068
     17 C                    -0.696251       0.000042
     18 H                     0.174025       0.000742
     19 H                     0.213144       0.001744
     20 H                     0.196263      -0.001347
     21 H                     0.127246      -0.000760
     22 H                     0.126071      -0.000220
     23 H                     0.124502       0.000166
     24 H                     0.125587      -0.000062
     25 H                     0.130331       0.000130
     26 H                     0.138172      -0.000009
     27 H                     0.137005      -0.000008
     28 H                     0.146062      -0.000003
     29 H                     0.149587      -0.000006
     30 H                     0.146265       0.000005
  --------------------------------------------------------
  Sum of atomic charges =    -1.000002

                    Cartesian Multipole Moments
 -----------------------------------------------------------------
    Charge (ESU x 10^10)
                -4.8032
    Dipole Moment (Debye)
         X       6.7089      Y      -1.6991      Z       0.3996
       Tot       6.9322
    Quadrupole Moments (Debye-Ang)
        XX    -160.1107     XY       9.9069     YY    -179.0512
        XZ       2.3583     YZ      -7.5116     ZZ    -146.9190

 Total job time:  113.52s(wall), 787.23s(cpu)
        *  Thank you very much for using Q-Chem.  Have a nice day.  *
