 Gaussian 16, Revision A.03,
 Gaussian 16:  ES64L-G16RevA.03 25-Dec-2016

 ----------------------------------------------------------------------
 #P UB3LYP/6-311++G(d,p) nosym opt freq SCRF=(PCM,Solvent=n,n-DiMethylF
 ormamide)
 ----------------------------------------------------------------------

 --------
 Oxidized
 --------
 Symbolic Z-matrix:
 Charge =  0 Multiplicity = 1

 SCF Done:  E(UB3LYP) =  -2220.02522688     A.U. after   14 cycles
 SCF Done:  E(UB3LYP) =  -2220.02533963     A.U. after   11 cycles
 SCF Done:  E(UB3LYP) =  -2220.02530121     A.U. after   12 cycles
 SCF Done:  E(UB3LYP) =  -2220.02531205     A.U. after   12 cycles
 SCF Done:  E(UB3LYP) =  -2220.02535776     A.U. after   11 cycles
 SCF Done:  E(UB3LYP) =  -2220.02535897     A.U. after   10 cycles
 SCF Done:  E(UB3LYP) =  -2220.02535974     A.U. after   10 cycles
 Optimization completed.
    -- Stationary point found.
 Normal termination of Gaussian 16 at Sun Feb 11 15:14:33 2024.

 ----------------------------------------------------------------------
 #P Geom=AllCheck Guess=TCheck SCRF=Check GenChk UB3LYP/6-311++G(d,p) F
 req
 ----------------------------------------------------------------------

 Structure from the checkpoint file:  "317.chk"
 --------
 Oxidized
 --------
 Charge =  0 Multiplicity = 1

                          Input orientation:
 ---------------------------------------------------------------------
 Center     Atomic      Atomic             Coordinates (Angstroms)
 Number     Number       Type             X           Y           Z
 ---------------------------------------------------------------------
      1         17           0        3.048154    0.392164   -0.012948
      2          6           0        1.349175    0.101823   -0.009813
      3          6           0        0.872730   -1.166950   -0.061461
      4         17           0        1.896401   -2.555734   -0.134024
      5          6           0       -0.577082   -1.425443   -0.056212
      6          8           0       -1.062389   -2.530390   -0.098876
      7          6           0       -1.527023   -0.190357    0.007451
      8          8           0       -2.720437   -0.374880    0.012122
      9          6           0       -0.904102    1.142880    0.059455
     10          6           0        0.445618    1.276391    0.050680
     11         17           0        1.163274    2.842281    0.112211
     12         17           0       -1.984321    2.488214    0.131415
 ---------------------------------------------------------------------

 SCF Done:  E(UB3LYP) =  -2220.02535974     A.U. after    1 cycles

 Alpha  occ. eigenvalues -- -101.59846-101.59844-101.58924-101.58921 -19.17093
 Alpha  occ. eigenvalues --  -19.17090 -10.31605 -10.31587 -10.31136 -10.31107
 Alpha  occ. eigenvalues --  -10.28587 -10.28585  -9.51303  -9.51301  -9.50360
 Alpha  occ. eigenvalues --   -9.50357  -7.27804  -7.27802  -7.26862  -7.26860
 Alpha  occ. eigenvalues --   -7.26808  -7.26807  -7.26672  -7.26671  -7.25852
 Alpha  occ. eigenvalues --   -7.25849  -7.25751  -7.25749  -1.11725  -1.09009
 Alpha  occ. eigenvalues --   -0.97267  -0.93203  -0.90140  -0.88397  -0.84094
 Alpha  occ. eigenvalues --   -0.76266  -0.73151  -0.63738  -0.63676  -0.58388
 Alpha  occ. eigenvalues --   -0.53525  -0.50855  -0.49741  -0.48987  -0.48657
 Alpha  occ. eigenvalues --   -0.47210  -0.45969  -0.44395  -0.44110  -0.39587
 Alpha  occ. eigenvalues --   -0.37543  -0.37438  -0.36590  -0.36344  -0.34981
 Alpha  occ. eigenvalues --   -0.34781  -0.32459  -0.32096  -0.29799  -0.27142
 Alpha virt. eigenvalues --   -0.16613  -0.05665  -0.04510  -0.04296  -0.01045
 Alpha virt. eigenvalues --    0.00118   0.01673   0.01751   0.02766   0.03306
 Alpha virt. eigenvalues --    0.04569   0.05228   0.05661   0.06744   0.06937

  Beta  occ. eigenvalues -- -101.59846-101.59844-101.58924-101.58921 -19.17093
  Beta  occ. eigenvalues --  -19.17090 -10.31605 -10.31587 -10.31136 -10.31107
  Beta  occ. eigenvalues --  -10.28587 -10.28585  -9.51303  -9.51301  -9.50360
  Beta  occ. eigenvalues --   -9.50357  -7.27804  -7.27802  -7.26862  -7.26860
  Beta  occ. eigenvalues --   -7.26808  -7.26807  -7.26672  -7.26671  -7.25852
  Beta  occ. eigenvalues --   -7.25849  -7.25751  -7.25749  -1.11725  -1.09009
  Beta  occ. eigenvalues --   -0.97267  -0.93203  -0.90140  -0.88397  -0.84094
  Beta  occ. eigenvalues --   -0.76266  -0.73151  -0.63738  -0.63676  -0.58388
  Beta  occ. eigenvalues --   -0.53525  -0.50855  -0.49741  -0.48987  -0.48657
  Beta  occ. eigenvalues --   -0.47210  -0.45969  -0.44395  -0.44110  -0.39587
  Beta  occ. eigenvalues --   -0.37543  -0.37438  -0.36590  -0.36344  -0.34981
  Beta  occ. eigenvalues --   -0.34781  -0.32459  -0.32096  -0.29799  -0.27142
  Beta virt. eigenvalues --   -0.16613  -0.05665  -0.04510  -0.04296  -0.01045
  Beta virt. eigenvalues --    0.00118   0.01673   0.01751   0.02766   0.03306
  Beta virt. eigenvalues --    0.04569   0.05228   0.05661   0.06744   0.06937

 Mulliken charges and spin densities:
               1          2
     1  Cl   0.679643  -0.000000
     2  C   -0.615319   0.000000
     3  C    0.328490  -0.000000
     4  Cl   0.380266   0.000000
     5  C   -0.556779  -0.000000
     6  O   -0.216655   0.000000
     7  C   -0.557141   0.000000
     8  O   -0.216713  -0.000000
     9  C    0.328902  -0.000000
    10  C   -0.614582   0.000000
    11  Cl   0.679623  -0.000000
    12  Cl   0.380263   0.000000
 Sum of Mulliken charges =  -0.00000  -0.00000

 Dipole moment (field-independent basis, Debye):
    X=              4.4465    Y=              3.4154    Z=              0.1024  Tot=              5.6078
 Quadrupole moment (field-independent basis, Debye-Ang):
   XX=           -102.2711   YY=           -100.1555   ZZ=            -92.1361
   XY=             -3.9387   XZ=             -0.0618   YZ=             -0.3031

  Exact polarizability: 232.185   5.676 228.909  -1.352   6.436  82.254
 Approx polarizability: 280.733  22.302 268.531  -0.971   7.352  97.549

                      1                      2                      3
                      A                      A                      A
 Frequencies --     44.3115                65.0441                75.6027
 Red. masses --     20.8345                25.3546                23.1762
 Frc consts  --      0.0241                 0.0632                 0.0780
 IR Inten    --      0.0014                 1.0763                 0.0020

                      4                      5                      6
                      A                      A                      A
 Frequencies --    179.0652               206.8011               213.5116
 Red. masses --     13.9288                27.4629                31.8980
 Frc consts  --      0.2631                 0.6920                 0.8568
 IR Inten    --      8.0578                 0.1354                 0.0982

                      7                      8                      9
                      A                      A                      A
 Frequencies --    240.0331               295.4424               296.6289
 Red. masses --     34.3416                16.0078                14.6676
 Frc consts  --      1.1658                 0.8232                 0.7604
 IR Inten    --      0.1036                 0.3935                 0.3848

                     10                     11                     12
                      A                      A                      A
 Frequencies --    306.7673               316.1209               384.7521
 Red. masses --     25.6538                23.4760                16.1915
 Frc consts  --      1.4224                 1.3822                 1.4122
 IR Inten    --      1.7369                15.4692                 7.3613

                     13                     14                     15
                      A                      A                      A
 Frequencies --    417.3372               430.5520               493.6021
 Red. masses --     19.7996                12.5395                17.5613
 Frc consts  --      2.0318                 1.3696                 2.5209
 IR Inten    --     22.3448                11.1833                 7.7346

                     16                     17                     18
                      A                      A                      A
 Frequencies --    590.0178               610.1928               686.2112
 Red. masses --     12.1902                12.1054                13.5965
 Frc consts  --      2.5003                 2.6556                 3.7722
 IR Inten    --     12.8290                 0.0070                56.8230

                     19                     20                     21
                      A                      A                      A
 Frequencies --    772.4951               805.6636               814.3455
 Red. masses --     13.5129                13.6850                12.1593
 Frc consts  --      4.7511                 5.2336                 4.7509
 IR Inten    --    251.0293               114.9891                 0.0147

                     22                     23                     24
                      A                      A                      A
 Frequencies --    897.9982               992.3406              1139.2909
 Red. masses --     12.9845                12.6982                12.2154
 Frc consts  --      6.1692                 7.3674                 9.3417
 IR Inten    --      3.7873                 4.5568               108.9940

                     25                     26                     27
                      A                      A                      A
 Frequencies --   1176.9565              1247.7835              1543.5164
 Red. masses --     12.1676                12.0184                12.0166
 Frc consts  --      9.9306                11.0249                16.8677
 IR Inten    --     83.5296               735.8487               164.2108

                     28                     29                     30
                      A                      A                      A
 Frequencies --   1590.5432              1740.2384              1755.0188
 Red. masses --     12.0139                13.3202                13.1994
 Frc consts  --     17.9072                23.7672                23.9534
 IR Inten    --     61.7799               753.8460               165.5801

 - Thermochemistry -
 -------------------
 Temperature   298.150 Kelvin.  Pressure   1.00000 Atm.
 Atom     1 has atomic number 17 and mass  34.96885

 Molecular mass:   243.86524 amu.
 Principal axes and moments of inertia in atomic units:
                           1         2         3
     Eigenvalues --  2525.023653623.926216148.94778
           X           -0.60938   0.79280   0.01054
           Y            0.79179   0.60919  -0.04410
           Z            0.04138   0.01853   0.99897
 This molecule is an asymmetric top.
 Rotational symmetry number  1.
 Warning -- assumption of classical behavior for rotation
           may cause significant error
 Rotational temperatures (Kelvin)      0.03430     0.02390     0.01409
 Rotational constants (GHZ):           0.71474     0.49801     0.29350
 Zero-point vibrational energy     121589.5 (Joules/Mol)
                                   29.06060 (Kcal/Mol)
 Warning -- explicit consideration of  17 degrees of freedom as
           vibrations may cause significant error
 Vibrational temperatures:     63.75    93.58   108.78   257.63   297.54
          (Kelvin)            307.20   345.35   425.08   426.78   441.37
                              454.83   553.57   600.46   619.47   710.18
                              848.90   877.93   987.30  1111.45  1159.17
                             1171.66  1292.02  1427.76  1639.19  1693.38
                             1795.28  2220.78  2288.44  2503.81  2525.08

 Zero-point correction=                           0.046311 (Hartree/Particle)
 Thermal correction to Energy=                    0.057384
 Thermal correction to Enthalpy=                  0.058328
 Thermal correction to Gibbs Free Energy=         0.007183
 Sum of electronic and zero-point Energies=          -2219.979049
 Sum of electronic and thermal Energies=             -2219.967976
 Sum of electronic and thermal Enthalpies=           -2219.967032
 Sum of electronic and thermal Free Energies=        -2220.018177

                     E (Thermal)             CV                S
                      KCal/Mol        Cal/Mol-Kelvin    Cal/Mol-Kelvin
 Total                   36.009             38.042            107.644
 Electronic               0.000              0.000              0.000
 Translational            0.889              2.981             42.375
 Rotational               0.889              2.981             32.398
 Vibrational             34.231             32.081             32.871
 Vibration     1          0.595              1.980              5.056
 Vibration     2          0.597              1.971              4.298
 Vibration     3          0.599              1.965              4.002
 Vibration     4          0.629              1.868              2.338
 Vibration     5          0.641              1.830              2.072
 Vibration     6          0.644              1.820              2.013
 Vibration     7          0.657              1.779              1.803
 Vibration     8          0.690              1.682              1.443
 Vibration     9          0.690              1.680              1.436
 Vibration    10          0.697              1.661              1.380
 Vibration    11          0.703              1.643              1.330
 Vibration    12          0.754              1.503              1.020
 Vibration    13          0.780              1.433              0.901
 Vibration    14          0.792              1.404              0.857
 Vibration    15          0.849              1.264              0.674
 Vibration    16          0.947              1.053              0.467
 Vibration    17          0.969              1.010              0.432

 Optimization completed.
    -- Stationary point found.
 Normal termination of Gaussian 16 at Sun Feb 11 15:19:51 2024.
