 Gaussian 16, Revision A.03,
 Gaussian 16:  ES64L-G16RevA.03 25-Dec-2016

 ----------------------------------------------------------------
 #P UB3LYP/6-311++G(d,p) SCRF=(PCM,Solvent=n,n-DiMethylFormamide)
 ----------------------------------------------------------------

 ------------------
 Radical PCM in DMF
 ------------------
 Symbolic Z-matrix:
 Charge = -1 Multiplicity = 2

                         Standard orientation:
 ---------------------------------------------------------------------
 Center     Atomic      Atomic             Coordinates (Angstroms)
 Number     Number       Type             X           Y           Z
 ---------------------------------------------------------------------
      1          6           0        3.761511   -0.236131    0.000562
      2          8           0        2.427122   -0.684139   -0.000191
      3          6           0        1.417603    0.238932   -0.000166
      4          6           0        1.681823    1.605178   -0.000263
      5          6           0        0.624864    2.532976   -0.000213
      6          6           0       -0.679146    2.094315   -0.000066
      7          6           0       -0.974436    0.715319    0.000023
      8          6           0       -2.401876    0.331024    0.000146
      9          8           0       -3.319655    1.198037    0.000317
     10          6           0       -2.666104   -1.077394    0.000078
     11          6           0       -1.663682   -2.013966   -0.000106
     12          6           0       -0.253509   -1.700871   -0.000119
     13          8           0        0.600423   -2.623588   -0.000153
     14          6           0        0.075835   -0.254941   -0.000085
     15          1           0        4.374512   -1.138500    0.000725
     16          1           0        3.999026    0.359311   -0.891766
     17          1           0        3.998054    0.359030    0.893324
     18          1           0        2.700961    1.967542   -0.000407
     19          1           0        0.851059    3.595470   -0.000321
     20          1           0       -1.517816    2.779723   -0.000026
     21          1           0       -3.711062   -1.376097    0.000131
     22          1           0       -1.895155   -3.075612   -0.000179
 ---------------------------------------------------------------------

 SCF Done:  E(UB3LYP) =  -649.958804287     A.U. after   18 cycles

 The electronic state is 2-A.
 Alpha  occ. eigenvalues --  -19.15063 -19.07350 -19.07125 -10.23829 -10.22284
 Alpha  occ. eigenvalues --  -10.21853 -10.21722 -10.17789 -10.17474 -10.17411
 Alpha  occ. eigenvalues --  -10.16930 -10.16174 -10.16018 -10.15930  -1.06954
 Alpha  occ. eigenvalues --   -0.99766  -0.99536  -0.85537  -0.80108  -0.75905
 Alpha  occ. eigenvalues --   -0.74125  -0.69619  -0.67251  -0.61612  -0.60753
 Alpha  occ. eigenvalues --   -0.55995  -0.51731  -0.50450  -0.48652  -0.46996
 Alpha  occ. eigenvalues --   -0.46872  -0.45447  -0.43472  -0.41592  -0.41322
 Alpha  occ. eigenvalues --   -0.40945  -0.39361  -0.38550  -0.37614  -0.36289
 Alpha  occ. eigenvalues --   -0.35721  -0.35061  -0.33348  -0.31942  -0.27564
 Alpha  occ. eigenvalues --   -0.25265  -0.24029  -0.23054  -0.22983  -0.15043
 Alpha virt. eigenvalues --   -0.02381  -0.01762  -0.00248   0.00784   0.01179
 Alpha virt. eigenvalues --    0.02573   0.02820   0.03547   0.03712   0.04919
 Alpha virt. eigenvalues --    0.05134   0.05879   0.06183   0.06644   0.07094

  Beta  occ. eigenvalues --  -19.15060 -19.06725 -19.06478 -10.23831 -10.22166
  Beta  occ. eigenvalues --  -10.21722 -10.21685 -10.17757 -10.17418 -10.17378
  Beta  occ. eigenvalues --  -10.16876 -10.16157 -10.15854 -10.15788  -1.06941
  Beta  occ. eigenvalues --   -0.98665  -0.98407  -0.85346  -0.79565  -0.75792
  Beta  occ. eigenvalues --   -0.73902  -0.69501  -0.66342  -0.61300  -0.60542
  Beta  occ. eigenvalues --   -0.55841  -0.51524  -0.50189  -0.48510  -0.46828
  Beta  occ. eigenvalues --   -0.46809  -0.45268  -0.43274  -0.41190  -0.40823
  Beta  occ. eigenvalues --   -0.40071  -0.38961  -0.38343  -0.35778  -0.35519
  Beta  occ. eigenvalues --   -0.34893  -0.34728  -0.33287  -0.31448  -0.24686
  Beta  occ. eigenvalues --   -0.24599  -0.23447  -0.22445  -0.22405
  Beta virt. eigenvalues --   -0.08405  -0.01514  -0.00563  -0.00237   0.00802
  Beta virt. eigenvalues --    0.01190   0.02592   0.02846   0.03572   0.03727
  Beta virt. eigenvalues --    0.04928   0.05862   0.06209   0.06386   0.06701

 Mulliken charges and spin densities:
               1          2
     1  C   -0.280778  -0.000509
     2  O   -0.155946  -0.000967
     3  C    0.236958   0.035704
     4  C   -0.065034   0.047364
     5  C   -0.421286   0.023693
     6  C   -0.018953   0.040509
     7  C    0.054278   0.018940
     8  C   -0.391427   0.106730
     9  O   -0.504786   0.224547
    10  C   -0.160945   0.070242
    11  C   -0.035268   0.138643
    12  C   -0.354058   0.051107
    13  O   -0.492149   0.236934
    14  C    0.193392   0.034418
    15  H    0.191550  -0.000161
    16  H    0.157502   0.000378
    17  H    0.157544   0.000378
    18  H    0.183310  -0.002940
    19  H    0.194563  -0.001989
    20  H    0.156628  -0.002958
    21  H    0.178431  -0.007839
    22  H    0.176473  -0.012225
 Sum of Mulliken charges =  -1.00000   1.00000

 Dipole moment (field-independent basis, Debye):
    X=              8.2504    Y=              4.0564    Z=              0.0004  Tot=              9.1936
 Quadrupole moment (field-independent basis, Debye-Ang):
   XX=           -102.1027   YY=           -103.9019   ZZ=            -86.9495
   XY=             19.0599   XZ=              0.0060   YZ=             -0.0034

 Normal termination of Gaussian 16 at Sun Jan 21 08:24:01 2024.
