 Gaussian 16, Revision A.03,
 Gaussian 16:  ES64L-G16RevA.03 25-Dec-2016

 --------------------------------------
 #P UB3LYP/6-311++G(d,p) nosym opt freq
 --------------------------------------

 -------
 Radical
 -------
 Symbolic Z-matrix:
 Charge = -2 Multiplicity = 2

 SCF Done:  E(UB3LYP) =  -1462.74552648     A.U. after   26 cycles
 SCF Done:  E(UB3LYP) =  -1462.79719172     A.U. after   18 cycles
 SCF Done:  E(UB3LYP) =  -1462.83215301     A.U. after   20 cycles
 SCF Done:  E(UB3LYP) =  -1462.83715328     A.U. after   17 cycles
 SCF Done:  E(UB3LYP) =  -1462.83781843     A.U. after   16 cycles
 SCF Done:  E(UB3LYP) =  -1462.83796266     A.U. after   16 cycles
 SCF Done:  E(UB3LYP) =  -1462.83800278     A.U. after   16 cycles
 SCF Done:  E(UB3LYP) =  -1462.83801098     A.U. after   14 cycles
 SCF Done:  E(UB3LYP) =  -1462.83804743     A.U. after   14 cycles
 SCF Done:  E(UB3LYP) =  -1462.83804936     A.U. after   13 cycles
 SCF Done:  E(UB3LYP) =  -1462.83805036     A.U. after   12 cycles
 SCF Done:  E(UB3LYP) =  -1462.83805194     A.U. after   12 cycles
 Optimization completed.
    -- Stationary point found.
 Normal termination of Gaussian 16 at Fri Dec 22 00:04:24 2023.

 ----------------------------------------------------------------------
 #P Geom=AllCheck Guess=TCheck SCRF=Check GenChk UB3LYP/6-311++G(d,p) F
 req
 ----------------------------------------------------------------------

 Structure from the checkpoint file:  "194-rad.chk"
 -------
 Radical
 -------
 Charge = -2 Multiplicity = 2

                          Input orientation:
 ---------------------------------------------------------------------
 Center     Atomic      Atomic             Coordinates (Angstroms)
 Number     Number       Type             X           Y           Z
 ---------------------------------------------------------------------
      1          6           0        5.046490   -2.903645   -0.370147
      2          6           0        5.816761   -2.048491   -1.133418
      3          6           0        5.272115   -0.820487   -1.581917
      4          6           0        3.715948   -2.581062   -0.022144
      5          6           0        3.167128   -1.343225   -0.474301
      6          6           0        3.974468   -0.483302   -1.254682
      7          6           0        2.935447   -3.508293    0.783965
      8          6           0        1.574989   -3.133309    1.115710
      9          6           0        1.030010   -1.884243    0.656208
     10          6           0        1.807453   -0.963633   -0.145532
     11          6           0        0.772291   -4.013940    1.905713
     12          6           0       -0.548351   -3.651845    2.229279
     13          6           0       -0.305636   -1.559210    1.005749
     14          6           0       -1.062005   -2.437595    1.776499
     15          8           0        3.452912   -4.610551    1.175198
     16          8           0        1.321180    0.152031   -0.556091
     17          8           0        1.278110   -5.179052    2.335618
     18          1           0        5.436787   -3.849895   -0.013086
     19          1           0        6.838378   -2.315855   -1.390011
     20          1           0        5.876417   -0.145781   -2.182734
     21          1           0        2.213133   -5.210098    1.985217
     22          8           0       -0.868253   -0.389736    0.596410
     23          1           0       -2.080590   -2.180950    2.038446
     24          1           0       -0.147331    0.064433    0.068678
     25          1           0        3.531903    0.449922   -1.584193
     26         16           0       -1.659076   -4.720695    3.242140
     27          8           0       -1.802546   -5.987203    2.478912
     28          8           0       -0.985023   -4.866172    4.558047
     29          8           0       -2.926690   -3.935724    3.317437
 ---------------------------------------------------------------------

 SCF Done:  E(UB3LYP) =  -1462.83805194     A.U. after    2 cycles

 Alpha  occ. eigenvalues --  -88.79537 -18.91980 -18.91124 -18.88492 -18.88413
 Alpha  occ. eigenvalues --  -18.83672 -18.83570 -18.83568 -10.03187 -10.03066
 Alpha  occ. eigenvalues --  -10.02462 -10.01983  -9.99660  -9.99574  -9.98945
 Alpha  occ. eigenvalues --   -9.98899  -9.98346  -9.98303  -9.97091  -9.97051
 Alpha  occ. eigenvalues --   -9.97011  -9.95554  -7.85342  -5.81601  -5.81583
 Alpha  occ. eigenvalues --   -5.81576  -0.85441  -0.84191  -0.84002  -0.79928
 Alpha  occ. eigenvalues --   -0.79704  -0.71708  -0.71622  -0.67324  -0.64054
 Alpha  occ. eigenvalues --   -0.59193  -0.56818  -0.54719  -0.52559  -0.47531
 Alpha  occ. eigenvalues --   -0.44833  -0.43742  -0.39781  -0.37989  -0.36099
 Alpha  occ. eigenvalues --   -0.34316  -0.32616  -0.29909  -0.29554  -0.28042
 Alpha  occ. eigenvalues --   -0.26731  -0.26027  -0.24199  -0.23347  -0.22900
 Alpha  occ. eigenvalues --   -0.22087  -0.21730  -0.21468  -0.20022  -0.19944
 Alpha  occ. eigenvalues --   -0.19429  -0.19014  -0.18530  -0.17331  -0.16086
 Alpha  occ. eigenvalues --   -0.15836  -0.15708  -0.15687  -0.13665  -0.09550
 Alpha  occ. eigenvalues --   -0.07843  -0.07592  -0.07493  -0.07367  -0.06041
 Alpha  occ. eigenvalues --   -0.05629  -0.05283  -0.04227  -0.03256  -0.02928
 Alpha  occ. eigenvalues --   -0.00220   0.00239   0.05868
 Alpha virt. eigenvalues --    0.12897   0.14144   0.14868   0.17004   0.17062
 Alpha virt. eigenvalues --    0.18391   0.19580   0.20681   0.21188   0.21649
 Alpha virt. eigenvalues --    0.21906   0.22428   0.23473   0.24207   0.24299

  Beta  occ. eigenvalues --  -88.79539 -18.91891 -18.91046 -18.88044 -18.87988
  Beta  occ. eigenvalues --  -18.83675 -18.83557 -18.83555 -10.03030 -10.02870
  Beta  occ. eigenvalues --  -10.02390 -10.01882  -9.99599  -9.99489  -9.98955
  Beta  occ. eigenvalues --   -9.98928  -9.98221  -9.98173  -9.97134  -9.97093
  Beta  occ. eigenvalues --   -9.96899  -9.95493  -7.85344  -5.81602  -5.81585
  Beta  occ. eigenvalues --   -5.81581  -0.85422  -0.83944  -0.83771  -0.79243
  Beta  occ. eigenvalues --   -0.78971  -0.71681  -0.71618  -0.67083  -0.63886
  Beta  occ. eigenvalues --   -0.58781  -0.56605  -0.54561  -0.52250  -0.46886
  Beta  occ. eigenvalues --   -0.44661  -0.43518  -0.39668  -0.37824  -0.35938
  Beta  occ. eigenvalues --   -0.34157  -0.32509  -0.29750  -0.29428  -0.27857
  Beta  occ. eigenvalues --   -0.26603  -0.25887  -0.24166  -0.22758  -0.22444
  Beta  occ. eigenvalues --   -0.21853  -0.21530  -0.21172  -0.19852  -0.19715
  Beta  occ. eigenvalues --   -0.18747  -0.18450  -0.18217  -0.17210  -0.15752
  Beta  occ. eigenvalues --   -0.15551  -0.14673  -0.14639  -0.13530  -0.08821
  Beta  occ. eigenvalues --   -0.07816  -0.07564  -0.06721  -0.05923  -0.05723
  Beta  occ. eigenvalues --   -0.05269  -0.05056  -0.04152  -0.03077  -0.02541
  Beta  occ. eigenvalues --    0.00184   0.01063
  Beta virt. eigenvalues --    0.11080   0.12883   0.14859   0.14925   0.17053
  Beta virt. eigenvalues --    0.18035   0.18382   0.19578   0.21138   0.21652
  Beta virt. eigenvalues --    0.21695   0.21914   0.22442   0.23588   0.24315

 Mulliken charges and spin densities:
               1          2
     1  C   -0.051879   0.001988
     2  C   -0.420971   0.070354
     3  C   -0.471629   0.048994
     4  C    0.303476   0.091644
     5  C    0.207452   0.060967
     6  C   -0.034034   0.023661
     7  C   -0.396431   0.079972
     8  C    0.307820  -0.050185
     9  C    0.776191  -0.049367
    10  C   -0.438615   0.102432
    11  C   -0.627781   0.063204
    12  C   -0.113602   0.082111
    13  C   -0.471571   0.077780
    14  C   -0.163074   0.037752
    15  O   -0.440582   0.156123
    16  O   -0.458110   0.163932
    17  O   -0.285204   0.026526
    18  H    0.148758   0.000965
    19  H    0.109201  -0.005706
    20  H    0.105735  -0.004258
    21  H    0.371287  -0.003799
    22  O   -0.381592   0.026628
    23  H    0.239268  -0.004279
    24  H    0.346330  -0.004248
    25  H    0.151831   0.000031
    26  S    0.642507  -0.003720
    27  O   -0.317252   0.005412
    28  O   -0.317329   0.005416
    29  O   -0.320199  -0.000330
 Sum of Mulliken charges =  -2.00000   1.00000

 Dipole moment (field-independent basis, Debye):
    X=             -1.4065    Y=             33.7680    Z=            -18.0897  Tot=             38.3340
 Quadrupole moment (field-independent basis, Debye-Ang):
   XX=           -210.7891   YY=           -312.7355   ZZ=           -214.3621
   XY=            -14.8577   XZ=             31.9893   YZ=             95.3443

  Exact polarizability: 356.095  24.818 248.459-104.042 -76.230 207.100
 Approx polarizability: 550.598 -12.735 444.423-129.124-124.545 322.000

                      1                      2                      3
                      A                      A                      A
 Frequencies --     35.2529                42.1211                80.9939
 Red. masses --      8.7220                13.4830                 9.1494
 Frc consts  --      0.0064                 0.0141                 0.0354
 IR Inten    --      0.1584                 0.3901                 2.4253

                      4                      5                      6
                      A                      A                      A
 Frequencies --     93.2531               117.2625               141.8423
 Red. masses --      7.8410                10.7317                 5.6933
 Frc consts  --      0.0402                 0.0869                 0.0675
 IR Inten    --      0.6822                 0.7192                 0.0010

                      7                      8                      9
                      A                      A                      A
 Frequencies --    154.4558               179.4341               204.8794
 Red. masses --      9.7646                 9.6719                 9.5102
 Frc consts  --      0.1372                 0.1835                 0.2352
 IR Inten    --      0.7937                 0.8158                 1.7710

                     10                     11                     12
                      A                      A                      A
 Frequencies --    229.2224               242.9595               291.7884
 Red. masses --      7.8193                 8.1038                 6.5198
 Frc consts  --      0.2421                 0.2818                 0.3271
 IR Inten    --      0.6549                 1.1890                 0.0715

                     13                     14                     15
                      A                      A                      A
 Frequencies --    292.2537               337.3454               356.0389
 Red. masses --     13.1597                 6.9077                 6.5602
 Frc consts  --      0.6622                 0.4632                 0.4900
 IR Inten    --      1.5364                 1.8460                 6.2466

                     16                     17                     18
                      A                      A                      A
 Frequencies --    397.7905               404.9214               430.5519
 Red. masses --      9.8665                12.3254                 5.4357
 Frc consts  --      0.9199                 1.1907                 0.5937
 IR Inten    --      0.1728                 2.2693                 1.7728

                     19                     20                     21
                      A                      A                      A
 Frequencies --    434.2697               443.6824               454.0125
 Red. masses --      9.1358                 4.1320                12.6007
 Frc consts  --      1.0151                 0.4792                 1.5303
 IR Inten    --     23.7418                 0.7797                 2.7793

                     22                     23                     24
                      A                      A                      A
 Frequencies --    485.9759               490.6600               492.7941
 Red. masses --     10.1257                 6.9302                14.1790
 Frc consts  --      1.4090                 0.9830                 2.0287
 IR Inten    --     18.8073                 3.4155                22.1273

                     25                     26                     27
                      A                      A                      A
 Frequencies --    536.6123               538.1184               550.7984
 Red. masses --      8.4812                 7.8410                 8.7917
 Frc consts  --      1.4389                 1.3378                 1.5715
 IR Inten    --     23.1539                25.9226                 5.8069

                     28                     29                     30
                      A                      A                      A
 Frequencies --    607.9050               618.4592               655.4143
 Red. masses --     13.7960                 4.9250                 6.6755
 Frc consts  --      3.0038                 1.1099                 1.6895
 IR Inten    --    224.5024                 5.0646                10.4755

                     31                     32                     33
                      A                      A                      A
 Frequencies --    662.5592               684.7869               701.9991
 Red. masses --      5.9687                 7.2878                 5.0446
 Frc consts  --      1.5438                 2.0135                 1.4647
 IR Inten    --      0.6942                62.6035                 3.0141

                     34                     35                     36
                      A                      A                      A
 Frequencies --    721.9895               732.6846               765.9598
 Red. masses --      2.6095                 6.4990                 4.3062
 Frc consts  --      0.8014                 2.0556                 1.4885
 IR Inten    --     44.8526                 6.3138                 4.8227

                     37                     38                     39
                      A                      A                      A
 Frequencies --    772.1259               788.5854               842.5789
 Red. masses --      2.6849                 8.0377                 1.4550
 Frc consts  --      0.9431                 2.9450                 0.6086
 IR Inten    --     17.1397                18.3491                 0.0548

                     40                     41                     42
                      A                      A                      A
 Frequencies --    858.9082               895.7774               900.6858
 Red. masses --      1.0685                 1.1310                 8.5042
 Frc consts  --      0.4644                 0.5347                 4.0647
 IR Inten    --     71.1083                86.6345                22.1157

                     43                     44                     45
                      A                      A                      A
 Frequencies --    908.0801               916.5774               967.3581
 Red. masses --      1.2482                 8.3673                12.0925
 Frc consts  --      0.6064                 4.1416                 6.6671
 IR Inten    --      1.4910                25.8121               295.4483

                     46                     47                     48
                      A                      A                      A
 Frequencies --    967.9688               972.0744              1005.9022
 Red. masses --      1.2525                 1.3466                 6.8722
 Frc consts  --      0.6914                 0.7497                 4.0969
 IR Inten    --      0.2542                 2.0653               226.2545

                     49                     50                     51
                      A                      A                      A
 Frequencies --   1027.8136              1101.2678              1106.9779
 Red. masses --      2.2289                 3.7078                 2.1855
 Frc consts  --      1.3873                 2.6494                 1.5779
 IR Inten    --     23.9914                10.1670                 9.2266

                     52                     53                     54
                      A                      A                      A
 Frequencies --   1138.1791              1150.8385              1163.1252
 Red. masses --     11.6821                 1.2092                20.6165
 Frc consts  --      8.9165                 0.9436                16.4330
 IR Inten    --    175.2499                12.3442               327.1635

                     55                     56                     57
                      A                      A                      A
 Frequencies --   1185.7399              1217.3252              1258.7628
 Red. masses --      1.9263                 1.8665                 3.4115
 Frc consts  --      1.5957                 1.6297                 3.1848
 IR Inten    --     94.7500                20.2149                23.2192

                     58                     59                     60
                      A                      A                      A
 Frequencies --   1264.6449              1289.0509              1295.2615
 Red. masses --      4.0578                 6.4133                 3.6081
 Frc consts  --      3.8237                 6.2787                 3.5666
 IR Inten    --     35.5066                76.0362                75.0754

                     61                     62                     63
                      A                      A                      A
 Frequencies --   1327.3803              1356.4344              1373.2868
 Red. masses --      4.1066                10.7226                 7.4258
 Frc consts  --      4.2630                11.6238                 8.2512
 IR Inten    --    181.9595                36.6836                21.1225

                     64                     65                     66
                      A                      A                      A
 Frequencies --   1399.7304              1438.4345              1460.8508
 Red. masses --      3.0766                 6.6326                 3.9912
 Frc consts  --      3.5515                 8.0856                 5.0184
 IR Inten    --    144.0775               288.9516               397.6916

                     67                     68                     69
                      A                      A                      A
 Frequencies --   1478.0619              1489.9059              1512.7767
 Red. masses --      2.5117                 2.7151                 5.3822
 Frc consts  --      3.2330                 3.5511                 7.2571
 IR Inten    --     21.6085               129.8668               461.0479

                     70                     71                     72
                      A                      A                      A
 Frequencies --   1552.6230              1594.2554              1606.2323
 Red. masses --      5.4420                 1.9700                 5.5988
 Frc consts  --      7.7293                 2.9500                 8.5107
 IR Inten    --    118.5368                70.2462                 6.0688

                     73                     74                     75
                      A                      A                      A
 Frequencies --   1628.2474              1644.3914              3035.7298
 Red. masses --      3.4500                 2.1778                 1.0726
 Frc consts  --      5.3891                 3.4695                 5.8241
 IR Inten    --     18.9743                 1.7290               204.5122

                     76                     77                     78
                      A                      A                      A
 Frequencies --   3084.0482              3121.4169              3142.3179
 Red. masses --      1.0727                 1.0840                 1.0911
 Frc consts  --      6.0116                 6.2227                 6.3476
 IR Inten    --    208.5071                25.9951                72.3474

                     79                     80                     81
                      A                      A                      A
 Frequencies --   3179.2335              3181.8036              3200.1795
 Red. masses --      1.0911                 1.0922                 1.0892
 Frc consts  --      6.4975                 6.5147                 6.5721
 IR Inten    --     15.0138                35.1497                 9.7881

 - Thermochemistry -
 -------------------
 Temperature   298.150 Kelvin.  Pressure   1.00000 Atm.
 Atom     1 has atomic number  6 and mass  12.00000

 Molecular mass:   318.99125 amu.
 Principal axes and moments of inertia in atomic units:
                           1         2         3
     Eigenvalues --  3047.25553********************
           X            0.75577  -0.56757   0.32662
           Y            0.40459   0.79691   0.44860
           Z           -0.51490  -0.20689   0.83191
 This molecule is an asymmetric top.
 Rotational symmetry number  1.
 Warning -- assumption of classical behavior for rotation
           may cause significant error
 Rotational temperatures (Kelvin)      0.02842     0.00780     0.00628
 Rotational constants (GHZ):           0.59225     0.16260     0.13087
 Zero-point vibrational energy     492945.2 (Joules/Mol)
                                  117.81673 (Kcal/Mol)
 Warning -- explicit consideration of  29 degrees of freedom as
           vibrations may cause significant error
 Vibrational temperatures:     50.72    60.60   116.53   134.17   168.71
          (Kelvin)            204.08   222.23   258.17   294.78   329.80
                              349.56   419.82   420.49   485.36   512.26
                              572.33   582.59   619.47   624.82   638.36
                              653.22   699.21   705.95   709.02   772.07
                              774.23   792.48   874.64   889.82   942.99
                              953.27   985.26  1010.02  1038.78  1054.17
                             1102.05  1110.92  1134.60  1212.28  1235.78
                             1288.82  1295.89  1306.52  1318.75  1391.81
                             1392.69  1398.60  1447.27  1478.79  1584.48
                             1592.69  1637.59  1655.80  1673.48  1706.02
                             1751.46  1811.08  1819.54  1854.66  1863.59
                             1909.80  1951.61  1975.85  2013.90  2069.59
                             2101.84  2126.60  2143.64  2176.55  2233.88
                             2293.78  2311.01  2342.68  2365.91  4367.74
                             4437.26  4491.02  4521.09  4574.21  4577.91
                             4604.34

 Zero-point correction=                           0.187753 (Hartree/Particle)
 Thermal correction to Energy=                    0.204617
 Thermal correction to Enthalpy=                  0.205561
 Thermal correction to Gibbs Free Energy=         0.142118
 Sum of electronic and zero-point Energies=          -1462.650299
 Sum of electronic and thermal Energies=             -1462.633435
 Sum of electronic and thermal Enthalpies=           -1462.632491
 Sum of electronic and thermal Free Energies=        -1462.695934

                     E (Thermal)             CV                S
                      KCal/Mol        Cal/Mol-Kelvin    Cal/Mol-Kelvin
 Total                  128.399             66.828            133.528
 Electronic               0.000              0.000              1.377
 Translational            0.889              2.981             43.176
 Rotational               0.889              2.981             34.499
 Vibrational            126.622             60.866             54.476
 Vibration     1          0.594              1.982              5.509
 Vibration     2          0.595              1.980              5.157
 Vibration     3          0.600              1.962              3.867
 Vibration     4          0.602              1.954              3.591
 Vibration     5          0.608              1.935              3.145
 Vibration     6          0.615              1.911              2.779
 Vibration     7          0.620              1.898              2.617
 Vibration     8          0.629              1.868              2.334
 Vibration     9          0.640              1.833              2.089
 Vibration    10          0.652              1.796              1.885
 Vibration    11          0.659              1.774              1.781
 Vibration    12          0.687              1.689              1.464
 Vibration    13          0.688              1.688              1.461
 Vibration    14          0.718              1.601              1.225
 Vibration    15          0.732              1.563              1.139
 Vibration    16          0.764              1.475              0.971
 Vibration    17          0.770              1.460              0.945
 Vibration    18          0.792              1.404              0.857
 Vibration    19          0.795              1.396              0.845
 Vibration    20          0.803              1.375              0.815
 Vibration    21          0.812              1.352              0.784
 Vibration    22          0.842              1.281              0.694
 Vibration    23          0.846              1.271              0.682
 Vibration    24          0.848              1.266              0.676
 Vibration    25          0.892              1.169              0.573
 Vibration    26          0.893              1.166              0.569
 Vibration    27          0.906              1.138              0.543
 Vibration    28          0.967              1.015              0.436
 Vibration    29          0.978              0.993              0.419

 Optimization completed.
    -- Stationary point found.
 Normal termination of Gaussian 16 at Fri Dec 22 01:06:52 2023.
