 Q-Chem 5.4, Q-Chem, Inc., Pleasanton, CA (2021)
 Q-Chem 5.4.0 for Intel X86 EM64T Linux

User input:
--------------------------------------------------------------
$molecule
-3 2
C                  5.6384270000     -4.7109490000      0.8788730000
C                  6.6568300000     -4.6022080000     -0.0397470000
C                  6.5826620000     -3.6288670000     -1.0539250000
C                  4.5155590000     -3.8604560000      0.8229150000
C                  4.4238710000     -2.8613490000     -0.2054510000
C                  5.5035180000     -2.7674300000     -1.1562550000
C                  3.4950270000     -4.0920130000      1.8780310000
C                  2.3081490000     -3.2361640000      1.8690020000
C                  2.2163270000     -2.2372400000      0.8404670000
C                  3.2364280000     -2.0062880000     -0.2151980000
C                  1.2290780000     -3.3292650000      2.8205420000
C                  0.1501840000     -2.4674780000      2.7185260000
C                  0.0757410000     -1.4945230000      1.7040000000
C                  1.0937000000     -1.3864100000      0.7848130000
O                  3.6767030000     -4.9911920000      2.7248550000
O                  3.0545620000     -1.1073810000     -1.0622700000
S                  1.0476750000     -4.5146160000      4.2718610000
O                 -0.2746130000     -4.1155730000      4.8747830000
O                  2.1656790000     -4.2385090000      5.2104290000
O                  0.9849000000     -5.8901340000      3.7140780000
S                  5.6855700000     -1.5811160000     -2.6067080000
O                  7.0087650000     -1.9788340000     -3.2085160000
O                  4.5687470000     -1.8574800000     -3.5466160000
O                  5.7467510000     -0.2058850000     -2.0480620000
H                  5.6514160000     -5.4446280000      1.6767140000
H                  7.5211640000     -5.2629310000      0.0100960000
H                  7.3734030000     -3.5280560000     -1.7855730000
H                 -0.6400740000     -2.5676080000      3.4507910000
H                 -0.7883840000     -0.8335070000      1.6544230000
H                  1.0805350000     -0.6529820000     -0.0132550000
$end

$rem
BASIS  =  6-311++G(d,p)
GUI  =  2
JOB_TYPE  =  SP
METHOD  =  B3LYP
SCF_CONVERGENCE  = 8
SOLVENT_METHOD = sm12
$end

$smx
solvent dimethylformamide
charges CM5
$end

--------------------------------------------------------------

             Standard Nuclear Orientation (Angstroms)
    I     Atom           X                Y                Z
 ----------------------------------------------------------------
    1      C       5.6384270000    -4.7109490000     0.8788730000
    2      C       6.6568300000    -4.6022080000    -0.0397470000
    3      C       6.5826620000    -3.6288670000    -1.0539250000
    4      C       4.5155590000    -3.8604560000     0.8229150000
    5      C       4.4238710000    -2.8613490000    -0.2054510000
    6      C       5.5035180000    -2.7674300000    -1.1562550000
    7      C       3.4950270000    -4.0920130000     1.8780310000
    8      C       2.3081490000    -3.2361640000     1.8690020000
    9      C       2.2163270000    -2.2372400000     0.8404670000
   10      C       3.2364280000    -2.0062880000    -0.2151980000
   11      C       1.2290780000    -3.3292650000     2.8205420000
   12      C       0.1501840000    -2.4674780000     2.7185260000
   13      C       0.0757410000    -1.4945230000     1.7040000000
   14      C       1.0937000000    -1.3864100000     0.7848130000
   15      O       3.6767030000    -4.9911920000     2.7248550000
   16      O       3.0545620000    -1.1073810000    -1.0622700000
   17      S       1.0476750000    -4.5146160000     4.2718610000
   18      O      -0.2746130000    -4.1155730000     4.8747830000
   19      O       2.1656790000    -4.2385090000     5.2104290000
   20      O       0.9849000000    -5.8901340000     3.7140780000
   21      S       5.6855700000    -1.5811160000    -2.6067080000
   22      O       7.0087650000    -1.9788340000    -3.2085160000
   23      O       4.5687470000    -1.8574800000    -3.5466160000
   24      O       5.7467510000    -0.2058850000    -2.0480620000
   25      H       5.6514160000    -5.4446280000     1.6767140000
   26      H       7.5211640000    -5.2629310000     0.0100960000
   27      H       7.3734030000    -3.5280560000    -1.7855730000
   28      H      -0.6400740000    -2.5676080000     3.4507910000
   29      H      -0.7883840000    -0.8335070000     1.6544230000
   30      H       1.0805350000    -0.6529820000    -0.0132550000
 ----------------------------------------------------------------

   17   -1935.4843574106      7.42e-09  Convergence criterion met
 Total energy in the final basis set =    -1935.9820436876

                    Orbital Energies (a.u.)
 --------------------------------------------------------------

 Alpha MOs
 -- Occupied --
-89.0203 -89.0203 -19.0684 -19.0684 -19.0615 -19.0615 -19.0614 -19.0614
-19.0597 -19.0597 -10.2232 -10.2232 -10.1987 -10.1987 -10.1877 -10.1877
-10.1817 -10.1817 -10.1800 -10.1800 -10.1760 -10.1760 -10.1755 -10.1755
 -8.0783  -8.0783  -6.0410  -6.0410  -6.0408  -6.0408  -6.0406  -6.0406
 -1.0757  -1.0756  -1.0012  -0.9991  -0.9434  -0.9434  -0.9345  -0.9344
 -0.8639  -0.8571  -0.7886  -0.7591  -0.7586  -0.7441  -0.6704  -0.6493
 -0.6219  -0.6166  -0.5928  -0.5521  -0.5400  -0.5277  -0.5155  -0.4781
 -0.4705  -0.4685  -0.4598  -0.4516  -0.4480  -0.4261  -0.4237  -0.4211
 -0.4190  -0.4174  -0.4130  -0.4036  -0.4007  -0.3782  -0.3772  -0.3736
 -0.3715  -0.3563  -0.3484  -0.3430  -0.3042  -0.3038  -0.2988  -0.2978
 -0.2869  -0.2801  -0.2727  -0.2694  -0.2691  -0.2598  -0.2596  -0.2566
 -0.2479  -0.2470  -0.2301  -0.2259  -0.2216  -0.2209  -0.1390

 Beta MOs
 -- Occupied --
-89.0203 -89.0203 -19.0621 -19.0620 -19.0614 -19.0614 -19.0614 -19.0614
-19.0597 -19.0597 -10.2222 -10.2222 -10.1986 -10.1986 -10.1867 -10.1867
-10.1811 -10.1811 -10.1790 -10.1790 -10.1762 -10.1762 -10.1752 -10.1752
 -8.0783  -8.0783  -6.0410  -6.0410  -6.0408  -6.0408  -6.0406  -6.0406
 -1.0756  -1.0756  -0.9906  -0.9882  -0.9433  -0.9433  -0.9344  -0.9343
 -0.8614  -0.8559  -0.7845  -0.7575  -0.7569  -0.7420  -0.6632  -0.6481
 -0.6194  -0.6161  -0.5914  -0.5510  -0.5382  -0.5263  -0.5144  -0.4754
 -0.4695  -0.4680  -0.4584  -0.4511  -0.4477  -0.4232  -0.4222  -0.4209
 -0.4186  -0.4113  -0.4094  -0.4012  -0.3953  -0.3767  -0.3712  -0.3705
 -0.3546  -0.3539  -0.3469  -0.3318  -0.3039  -0.3034  -0.2986  -0.2976
 -0.2850  -0.2761  -0.2722  -0.2691  -0.2591  -0.2590  -0.2506  -0.2484
 -0.2422  -0.2415  -0.2251  -0.2213  -0.2206  -0.2200

          Ground-State Mulliken Net Atomic Charges

     Atom                 Charge (a.u.)    Spin (a.u.)
  --------------------------------------------------------
      1 C                     0.518212       0.011561
      2 C                     2.042585       0.049576
      3 C                     0.933335       0.021886
      4 C                    -0.784655       0.053143
      5 C                    -0.286976       0.084941
      6 C                    -2.119864       0.019620
      7 C                    -2.345303       0.018732
      8 C                    -0.286658       0.084935
      9 C                    -0.784744       0.053134
     10 C                    -2.345112       0.018731
     11 C                    -2.119666       0.019621
     12 C                     0.932617       0.021882
     13 C                     2.042584       0.049578
     14 C                     0.518108       0.011556
     15 O                    -0.157957       0.241234
     16 O                    -0.157972       0.241232
     17 S                     0.640031       0.002434
     18 O                    -0.228591       0.001016
     19 O                    -0.324674       0.001188
     20 O                    -0.323387       0.001223
     21 S                     0.640076       0.002434
     22 O                    -0.228583       0.001016
     23 O                    -0.324468       0.001189
     24 O                    -0.323622       0.001222
     25 H                     0.192711      -0.001133
     26 H                     0.516951      -0.003270
     27 H                     0.227679      -0.002139
     28 H                     0.227681      -0.002139
     29 H                     0.516949      -0.003270
     30 H                     0.192715      -0.001133
  --------------------------------------------------------
  Sum of atomic charges =    -3.000000

                    Cartesian Multipole Moments
 -----------------------------------------------------------------
    Charge (ESU x 10^10)
               -14.4096
    Dipole Moment (Debye)
         X     -48.5087      Y      43.9229      Z     -11.9930
       Tot      66.5293
    Quadrupole Moments (Debye-Ang)
        XX    -407.6576     XY     106.3482     YY    -353.1703
        XZ      55.7159     YZ     112.0564     ZZ    -349.0676

 Total job time:  1087.29s(wall), 8218.89s(cpu)
        *  Thank you very much for using Q-Chem.  Have a nice day.  *
