 Q-Chem 5.4, Q-Chem, Inc., Pleasanton, CA (2021)
 Q-Chem 5.4.0 for Intel X86 EM64T Linux

User input:
--------------------------------------------------------------
$molecule
0 1
C                 -1.8256780000      0.3069460000     -1.0900260000
C                 -1.1979400000      0.1390470000      0.3168200000
C                 -1.8963980000     -1.0454030000      1.0110560000
C                 -1.4520710000      1.4093740000      1.1671580000
C                  0.3097660000     -0.1076000000      0.1876470000
C                  0.9164700000     -1.2215860000      0.6312060000
C                  2.3643420000     -1.4926850000      0.5235930000
O                  2.8337390000     -2.5282730000      0.9513190000
C                  3.2154930000     -0.4459040000     -0.1283950000
C                  2.6504350000      0.6870040000     -0.5876680000
Br                 3.6295710000      2.0700980000     -1.4242180000
C                  1.1663820000      0.9441390000     -0.4675880000
O                  0.7008340000      1.9787300000     -0.8955310000
Br                 5.0572870000     -0.8395210000     -0.2413300000
H                 -2.9068480000      0.4356900000     -0.9880120000
H                 -1.6523900000     -0.5823630000     -1.7031210000
H                 -1.4260310000      1.1748310000     -1.6116780000
H                 -1.7845120000     -1.9766430000      0.4488840000
H                 -2.9655540000     -0.8337080000      1.0844380000
H                 -1.5235370000     -1.2056970000      2.0264580000
H                 -1.0124250000      1.3060960000      2.1635660000
H                 -2.5295740000      1.5489520000      1.2913550000
H                 -1.0441520000      2.3017100000      0.6955740000
H                  0.3727920000     -2.0232340000      1.1128030000
$end
$rem
MAX_SCF_CYCLES=200
BASIS  =  6-311++G(d,p)
GUI  =  2
JOB_TYPE  =  SP
METHOD  =  B3LYP
SOLVENT_METHOD = COSMO
$end
$solvent
dielectric 37.219
opticaldielectric 1.43
$end

--------------------------------------------------------------

             Standard Nuclear Orientation (Angstroms)
    I     Atom           X                Y                Z
 ----------------------------------------------------------------
    1      C      -3.8413655898    -0.6345602495     1.2702054781
    2      C      -3.4359440588     0.1552582497     0.0000555424
    3      C      -4.2119589436     1.4858707147    -0.0005532712
    4      C      -3.8414249009    -0.6355323203    -1.2694418098
    5      C      -1.9222134168     0.3988097421     0.0000011025
    6      C      -1.3714810228     1.6245718781    -0.0003918549
    7      C       0.0802505211     1.8963880700    -0.0002012665
    8      O       0.4963897133     3.0376828344    -0.0003190710
    9      C       1.0030372582     0.7158113513     0.0000952701
   10      C       0.4955330535    -0.5316429564     0.0001214570
   11      Br      1.5672415907    -2.0882138395    -0.0002237909
   12      C      -0.9936152949    -0.7873539383     0.0002293471
   13      O      -1.4059009380    -1.9276474119     0.0004061025
   14      Br      2.8469124524     1.1158339185     0.0001913990
   15      H      -4.9274410416    -0.7618101223     1.2827762920
   16      H      -3.5593118731    -0.0888686557     2.1754408579
   17      H      -3.3815156027    -1.6208615936     1.2986757256
   18      H      -3.9976816162     2.0881512855     0.8866373020
   19      H      -5.2832310150     1.2721645698    -0.0002775361
   20      H      -3.9978729222     2.0870633634    -0.8885258428
   21      H      -3.5594572104    -0.0904784899    -2.1750876548
   22      H      -4.9275055812    -0.7627916562    -1.2818291172
   23      H      -3.3815912052    -1.6218536253    -1.2973016727
   24      H      -1.9685992747     2.5265755299    -0.0007908594
 ----------------------------------------------------------------

    9   -5685.9324521781      5.97e-06  Convergence criterion met
 Total energy in the final basis set =    -5685.9324521781
    4   -5685.9441596918      6.84e-06  Convergence criterion met
 Total energy in the final basis set =    -5685.9441596918

                    Orbital Energies (a.u.)
 --------------------------------------------------------------

 Alpha MOs
 -- Occupied --
********-482.8555 -62.5089 -62.5083 -56.3295 -56.3289 -56.3256 -56.3251
-56.3250 -56.3245 -19.1549 -19.1534 -10.3077 -10.3038 -10.2747 -10.2731
-10.2280 -10.2114 -10.2070 -10.1617 -10.1602 -10.1602  -8.7177  -8.7171
 -6.5496  -6.5490  -6.5366  -6.5360  -6.5351  -6.5344  -2.6604  -2.6598
 -2.6570  -2.6565  -2.6560  -2.6553  -2.6454  -2.6454  -2.6448  -2.6447
 -1.0923  -1.0878  -0.9011  -0.8600  -0.8244  -0.8077  -0.7538  -0.7128
 -0.6908  -0.6906  -0.6362  -0.6180  -0.5599  -0.5467  -0.5079  -0.4887
 -0.4725  -0.4718  -0.4517  -0.4489  -0.4451  -0.4395  -0.4326  -0.4117
 -0.3939  -0.3844  -0.3764  -0.3676  -0.3643  -0.3451  -0.3420  -0.3279
 -0.3271  -0.3068  -0.3043  -0.3014  -0.2870  -0.2752

          Ground-State Mulliken Net Atomic Charges

     Atom                 Charge (a.u.)
  ----------------------------------------
      1 C                    -0.704439
      2 C                     0.536406
      3 C                    -0.492469
      4 C                    -0.704448
      5 C                     1.452994
      6 C                    -0.554819
      7 C                    -0.837247
      8 O                    -0.233198
      9 C                     1.057863
     10 C                    -0.339476
     11 Br                   -0.088578
     12 C                    -0.657090
     13 O                    -0.172726
     14 Br                   -0.060465
     15 H                     0.177809
     16 H                     0.158663
     17 H                     0.181357
     18 H                     0.152196
     19 H                     0.192381
     20 H                     0.152155
     21 H                     0.158675
     22 H                     0.177723
     23 H                     0.181339
     24 H                     0.265394
  ----------------------------------------
  Sum of atomic charges =     0.000000

                    Cartesian Multipole Moments
 -----------------------------------------------------------------
    Charge (ESU x 10^10)
                -0.0000
    Dipole Moment (Debye)
         X      -3.2539      Y      -0.0125      Z      -0.0003
       Tot       3.2539
    Quadrupole Moments (Debye-Ang)
        XX     -96.0521     XY      -9.4503     YY    -123.6739
        XZ       0.0010     YZ       0.0013     ZZ    -107.0573

 Total job time:  137.71s(wall), 346.30s(cpu)
        *  Thank you very much for using Q-Chem.  Have a nice day.  *
