 Q-Chem 5.4, Q-Chem, Inc., Pleasanton, CA (2021)
 Q-Chem 5.4.0 for Intel X86 EM64T Linux

User input:
--------------------------------------------------------------
$molecule
-2 1
O                 -2.2685100000     -2.7182020000     -0.4062250000
C                 -2.3103970000     -1.3455610000     -0.1897610000
C                 -3.5421980000     -0.7373270000     -0.0782770000
C                 -3.6515660000      0.6664310000      0.1473470000
C                 -2.5004680000      1.4071530000      0.2622760000
C                 -1.2119930000      0.8259310000      0.1570330000
C                 -0.0660840000      1.6982540000      0.2919690000
O                 -0.1876460000      2.9540010000      0.5052000000
C                  1.2360810000      1.0608160000      0.1694010000
C                  2.4025510000      1.8634790000      0.2943220000
C                  3.6544920000      1.2943560000      0.1827370000
C                  3.8123570000     -0.0865900000     -0.0564430000
C                  2.7054930000     -0.9473390000     -0.1923880000
O                  2.8505650000     -2.2236750000     -0.4125260000
C                  1.3628940000     -0.3489590000     -0.0748970000
C                  0.2096200000     -1.1765000000     -0.2034670000
O                  0.3738670000     -2.5152960000     -0.4415460000
C                 -1.0755040000     -0.6121840000     -0.0860800000
H                 -3.1840630000     -2.9912740000     -0.5248240000
H                 -4.4407130000     -1.3520000000     -0.1587530000
H                 -4.6328920000      1.1278960000      0.2302880000
H                 -2.5236690000      2.4773260000      0.4382660000
H                  2.2594340000      2.9217010000      0.4777040000
H                  4.5433700000      1.9197710000      0.2805440000
H                  4.8006950000     -0.5325680000     -0.1434320000
H                  1.3842850000     -2.6296370000     -0.4684670000
$end

$rem
BASIS  =  6-311++G(d,p)
GUI  =  2
JOB_TYPE  =  SP
METHOD  =  B3LYP
SCF_CONVERGENCE  = 8
SOLVENT_METHOD = sm12
$end

$smx
solvent dimethylformamide
charges CM5
$end

--------------------------------------------------------------

             Standard Nuclear Orientation (Angstroms)
    I     Atom           X                Y                Z
 ----------------------------------------------------------------
    1      O      -2.2685100000    -2.7182020000    -0.4062250000
    2      C      -2.3103970000    -1.3455610000    -0.1897610000
    3      C      -3.5421980000    -0.7373270000    -0.0782770000
    4      C      -3.6515660000     0.6664310000     0.1473470000
    5      C      -2.5004680000     1.4071530000     0.2622760000
    6      C      -1.2119930000     0.8259310000     0.1570330000
    7      C      -0.0660840000     1.6982540000     0.2919690000
    8      O      -0.1876460000     2.9540010000     0.5052000000
    9      C       1.2360810000     1.0608160000     0.1694010000
   10      C       2.4025510000     1.8634790000     0.2943220000
   11      C       3.6544920000     1.2943560000     0.1827370000
   12      C       3.8123570000    -0.0865900000    -0.0564430000
   13      C       2.7054930000    -0.9473390000    -0.1923880000
   14      O       2.8505650000    -2.2236750000    -0.4125260000
   15      C       1.3628940000    -0.3489590000    -0.0748970000
   16      C       0.2096200000    -1.1765000000    -0.2034670000
   17      O       0.3738670000    -2.5152960000    -0.4415460000
   18      C      -1.0755040000    -0.6121840000    -0.0860800000
   19      H      -3.1840630000    -2.9912740000    -0.5248240000
   20      H      -4.4407130000    -1.3520000000    -0.1587530000
   21      H      -4.6328920000     1.1278960000     0.2302880000
   22      H      -2.5236690000     2.4773260000     0.4382660000
   23      H       2.2594340000     2.9217010000     0.4777040000
   24      H       4.5433700000     1.9197710000     0.2805440000
   25      H       4.8006950000    -0.5325680000    -0.1434320000
   26      H       1.3842850000    -2.6296370000    -0.4684670000
 ----------------------------------------------------------------

   18    -839.4339047894      4.95e-09  Convergence criterion met
 Total energy in the final basis set =     -839.7205784436

                    Orbital Energies (a.u.)
 --------------------------------------------------------------

 Alpha MOs
 -- Occupied --
-19.1493 -19.0971 -19.0599 -19.0368 -10.2381 -10.2151 -10.2075 -10.1978
-10.1736 -10.1731 -10.1711 -10.1698 -10.1633 -10.1625 -10.1592 -10.1563
-10.1498 -10.1469  -1.0569  -1.0180  -0.9665  -0.9564  -0.8470  -0.8268
 -0.7803  -0.7407  -0.7290  -0.7130  -0.6651  -0.6324  -0.6182  -0.5790
 -0.5611  -0.5436  -0.5114  -0.4989  -0.4861  -0.4632  -0.4587  -0.4452
 -0.4385  -0.4194  -0.4081  -0.3980  -0.3944  -0.3907  -0.3824  -0.3715
 -0.3629  -0.3598  -0.3473  -0.3440  -0.3373  -0.3220  -0.3193  -0.2967
 -0.2611  -0.2395  -0.2314  -0.2283  -0.2087  -0.1944  -0.1328

          Ground-State Mulliken Net Atomic Charges

     Atom                 Charge (a.u.)
  ----------------------------------------
      1 O                    -0.068287
      2 C                     1.140534
      3 C                     3.061017
      4 C                     1.647531
      5 C                     0.803784
      6 C                    -1.926922
      7 C                    -2.527671
      8 O                    -0.317258
      9 C                    -1.461474
     10 C                    -1.074656
     11 C                     0.631690
     12 C                     0.582550
     13 C                    -0.869575
     14 O                    -0.378538
     15 C                    -0.893344
     16 C                    -1.397804
     17 O                    -0.318990
     18 C                    -1.061125
     19 H                     0.416277
     20 H                     0.397488
     21 H                     0.382541
     22 H                     0.105057
     23 H                     0.078219
     24 H                     0.351464
     25 H                     0.216552
     26 H                     0.480939
  ----------------------------------------
  Sum of atomic charges =    -2.000000

                    Cartesian Multipole Moments
 -----------------------------------------------------------------
    Charge (ESU x 10^10)
                -9.6064
    Dipole Moment (Debye)
         X      -9.0621      Y      -2.6768      Z      -0.4615
       Tot       9.4605
    Quadrupole Moments (Debye-Ang)
        XX    -155.9289     XY      15.7884     YY    -162.7198
        XZ       3.4845     YZ      -7.4435     ZZ    -119.1065

 Total job time:  619.89s(wall), 4833.39s(cpu)
        *  Thank you very much for using Q-Chem.  Have a nice day.  *
