 Q-Chem 5.4, Q-Chem, Inc., Pleasanton, CA (2021)
 Q-Chem 5.4.0 for Intel X86 EM64T Linux

User input:
--------------------------------------------------------------
$molecule
-1 2
C                  0.2582730000      1.4625720000     -0.9604870000
C                 -0.9592310000      0.6624240000     -0.9361180000
C                 -0.9155670000     -0.7116040000     -0.8362610000
C                  0.3501210000     -1.4283690000     -0.7501830000
C                  1.5676350000     -0.6282110000     -0.7744580000
C                  1.5239780000      0.7458050000     -0.8743570000
O                  0.2180770000      2.7280630000     -1.0524940000
O                  0.3903380000     -2.6938570000     -0.6581200000
C                  2.7875000000      1.5712960000     -0.8992220000
C                  2.8808730000     -1.3671320000     -0.6855710000
C                 -2.2724790000      1.4013280000     -1.0249850000
C                 -2.1791000000     -1.5370920000     -0.8115030000
H                  3.4329600000      1.3013680000     -1.7452700000
H                  3.3861870000      1.4259750000      0.0094800000
H                  2.5268530000      2.6268760000     -0.9811280000
H                  2.6878720000     -2.4380120000     -0.6158360000
H                  3.4635730000     -1.0567160000      0.1915840000
H                  3.5131800000     -1.1796420000     -1.5632270000
H                 -2.0795300000      2.4723090000     -1.0933190000
H                 -2.9054130000      1.2126320000     -0.1480550000
H                 -2.8545070000      1.0920030000     -1.9029880000
H                 -2.8245130000     -1.2673520000      0.0346400000
H                 -1.9184620000     -2.5926910000     -0.7298300000
H                 -2.7778190000     -1.3915530000     -1.7201520000
$end
$rem
MAX_SCF_CYCLES=200
BASIS  =  6-311++G(d,p)
GUI  =  2
JOB_TYPE  =  SP
METHOD  =  B3LYP
SOLVENT_METHOD = COSMO
$end
$solvent
dielectric 37.219
opticaldielectric 1.43
$end

--------------------------------------------------------------

             Standard Nuclear Orientation (Angstroms)
    I     Atom           X                Y                Z
 ----------------------------------------------------------------
    1      C       0.0000543063    -1.4500188417     0.0000527114
    2      C      -1.2426592712    -0.6892234592    -0.0000482513
    3      C      -1.2427081042     0.6891200769     0.0000165741
    4      C      -0.0000639168     1.4500162743    -0.0000167351
    5      C       1.2426623241     0.6892180547    -0.0000099403
    6      C       1.2427167040    -0.6891163418    -0.0000318390
    7      O       0.0001172241    -2.7194866330     0.0000312977
    8      O      -0.0001043603     2.7194858007    -0.0000508002
    9      C       2.5322470847    -1.4737518623     0.0000001814
   10      C       2.5321405261     1.4739123596     0.0000372042
   11      C      -2.5321475384    -1.4738996846    -0.0001143911
   12      C      -2.5322520338     1.4737445011     0.0000907248
   13      H       3.1470488543    -1.2455350801     0.8804619009
   14      H       3.1481137060    -1.2440242822    -0.8793275082
   15      H       2.3052512470    -2.5402256640    -0.0010523815
   16      H       2.3050681492     2.5403694394     0.0019771067
   17      H       3.1465592218     1.2465379240    -0.8809218241
   18      H       3.1483808470     1.2434368486     0.8788850877
   19      H      -2.3050889040    -2.5403575315    -0.0034598243
   20      H      -3.1490728672    -1.2422944702    -0.8781690688
   21      H      -3.1458792476    -1.2476529929     0.8816302658
   22      H      -3.1470107987     1.2457235069    -0.8804509675
   23      H      -2.3052716172     2.5402200664     0.0013767188
   24      H      -3.1481419868     1.2438024319     0.8793490812
 ----------------------------------------------------------------

    9    -538.9486684399      6.44e-06  Convergence criterion met
 Total energy in the final basis set =     -538.9486684399
    4    -539.0326873857      6.87e-06  Convergence criterion met
 Total energy in the final basis set =     -539.0326873857

                    Orbital Energies (a.u.)
 --------------------------------------------------------------

 Alpha MOs
 -- Occupied --
-19.0713 -19.0713 -10.2111 -10.2111 -10.1604 -10.1604 -10.1598 -10.1598
-10.1484 -10.1484 -10.1483 -10.1483  -0.9940  -0.9915  -0.8252  -0.7869
 -0.7199  -0.7142  -0.6906  -0.6300  -0.6264  -0.5391  -0.5366  -0.4963
 -0.4417  -0.4357  -0.4170  -0.4142  -0.4105  -0.3950  -0.3836  -0.3833
 -0.3831  -0.3767  -0.3711  -0.3689  -0.3570  -0.3568  -0.3369  -0.3270
 -0.2647  -0.2442  -0.2291  -0.2256  -0.1540

 Beta MOs
 -- Occupied --
-19.0647 -19.0647 -10.2093 -10.2093 -10.1595 -10.1594 -10.1588 -10.1588
-10.1484 -10.1484 -10.1484 -10.1484  -0.9824  -0.9796  -0.8199  -0.7851
 -0.7157  -0.7130  -0.6886  -0.6254  -0.6221  -0.5357  -0.5323  -0.4945
 -0.4375  -0.4283  -0.4129  -0.4112  -0.4091  -0.3884  -0.3825  -0.3824
 -0.3807  -0.3761  -0.3704  -0.3559  -0.3519  -0.3343  -0.3325  -0.3251
 -0.2381  -0.2352  -0.2233  -0.2186

          Ground-State Mulliken Net Atomic Charges

     Atom                 Charge (a.u.)    Spin (a.u.)
  --------------------------------------------------------
      1 C                    -1.113248       0.124592
      2 C                     0.637687       0.064996
      3 C                     0.637437       0.064981
      4 C                    -1.113176       0.124571
      5 C                     0.637181       0.064920
      6 C                     0.638190       0.064967
      7 O                    -0.531468       0.234809
      8 O                    -0.531468       0.234780
      9 C                    -0.556937       0.000428
     10 C                    -0.556731       0.000429
     11 C                    -0.556899       0.000424
     12 C                    -0.556765       0.000424
     13 H                     0.155776       0.003504
     14 H                     0.155673       0.003495
     15 H                     0.180204      -0.002080
     16 H                     0.180217      -0.002080
     17 H                     0.155800       0.003508
     18 H                     0.155508       0.003488
     19 H                     0.180182      -0.002080
     20 H                     0.155502       0.003484
     21 H                     0.155922       0.003518
     22 H                     0.155751       0.003506
     23 H                     0.180060      -0.002081
     24 H                     0.155604       0.003495
  --------------------------------------------------------
  Sum of atomic charges =    -1.000000

                    Cartesian Multipole Moments
 -----------------------------------------------------------------
    Charge (ESU x 10^10)
                -4.8032
    Dipole Moment (Debye)
         X       0.0006      Y      -0.0009      Z       0.0008
       Tot       0.0014
    Quadrupole Moments (Debye-Ang)
        XX     -72.7873     XY       0.0024     YY    -118.7242
        XZ      -0.0007     YZ       0.0006     ZZ     -76.1380

 Total job time:  43.88s(wall), 326.25s(cpu)
        *  Thank you very much for using Q-Chem.  Have a nice day.  *
