 Gaussian 16, Revision A.03,
 Gaussian 16:  ES64L-G16RevA.03 25-Dec-2016

 ----------------------------------------------------------------
 #P UB3LYP/6-311++G(d,p) SCRF=(PCM,Solvent=n,n-DiMethylFormamide)
 ----------------------------------------------------------------

 ------------------
 Radical PCM in DMF
 ------------------
 Symbolic Z-matrix:
 Charge = -1 Multiplicity = 2

                         Standard orientation:
 ---------------------------------------------------------------------
 Center     Atomic      Atomic             Coordinates (Angstroms)
 Number     Number       Type             X           Y           Z
 ---------------------------------------------------------------------
      1          6           0       -2.469098   -0.479229   -0.354795
      2          6           0       -3.654396    0.218534   -0.217978
      3          6           0       -3.675658    1.606568    0.049598
      4          6           0       -1.244949    0.196666   -0.227217
      5          6           0       -1.241517    1.595679    0.045338
      6          6           0       -2.477640    2.271079    0.175041
      7          6           0        0.000837   -0.571045   -0.377809
      8          6           0        1.245977    0.197635   -0.226587
      9          6           0        1.241420    1.596550    0.046447
     10          6           0       -0.000390    2.353864    0.193584
     11          6           0        2.470648   -0.477228   -0.354114
     12          6           0        2.476979    2.272664    0.177620
     13          6           0        3.675580    1.609011    0.052770
     14          8           0        0.001403   -1.791746   -0.612829
     15          8           0       -0.000931    3.585592    0.434825
     16          1           0       -2.454529   -1.541120   -0.565956
     17         16           0       -5.189348   -0.650186   -0.344257
     18          1           0        4.621484    2.127542    0.142074
     19          1           0       -2.446293    3.335212    0.374764
     20          1           0        2.456903   -1.538948   -0.566193
     21          1           0        2.444785    3.336658    0.377964
     22          6           0        3.655399    0.221257   -0.216133
     23         16           0        5.190854   -0.646535   -0.343219
     24          8           0        5.046880   -1.890179   -1.095443
     25          8           0        6.274855    0.271414   -0.693658
     26          8           0        5.388941   -1.053760    1.256688
     27          6           0        6.553041   -1.847832    1.548090
     28          1           0        6.509680   -2.802420    1.018397
     29          1           0        6.521550   -2.017376    2.623419
     30          1           0        7.465466   -1.307699    1.282580
     31          1           0       -4.621927    2.124687    0.137523
     32          8           0       -5.043247   -1.898235   -1.088666
     33          8           0       -6.272708    0.265384   -0.702923
     34          8           0       -5.391761   -1.047565    1.257607
     35          6           0       -6.560555   -1.833688    1.551670
     36          1           0       -6.522736   -2.790540    1.025619
     37          1           0       -7.469669   -1.289153    1.283846
     38          1           0       -6.530337   -1.999459    2.627626
 ---------------------------------------------------------------------

 SCF Done:  E(UB3LYP) =  -2015.52049113     A.U. after   23 cycles

 The electronic state is 2-A.
 Alpha  occ. eigenvalues --  -89.09255 -89.09255 -19.17852 -19.17851 -19.14191
 Alpha  occ. eigenvalues --  -19.14190 -19.14088 -19.14086 -19.09831 -19.09102
 Alpha  occ. eigenvalues --  -10.25014 -10.23878 -10.23145 -10.23145 -10.22717
 Alpha  occ. eigenvalues --  -10.22717 -10.20574 -10.20574 -10.20196 -10.20196
 Alpha  occ. eigenvalues --  -10.19688 -10.19686 -10.19638 -10.19637 -10.19041
 Alpha  occ. eigenvalues --  -10.19041  -8.15364  -8.15364  -6.11731  -6.11731
 Alpha  occ. eigenvalues --   -6.11571  -6.11570  -6.11412  -6.11412  -1.15925
 Alpha  occ. eigenvalues --   -1.15924  -1.05001  -1.05001  -1.03347  -1.03346
 Alpha  occ. eigenvalues --   -1.02972  -1.01799  -0.89209  -0.88570  -0.82479
 Alpha  occ. eigenvalues --   -0.79650  -0.78288  -0.77498  -0.74834  -0.73505
 Alpha  occ. eigenvalues --   -0.69572  -0.67873  -0.66877  -0.62718  -0.62713
 Alpha  occ. eigenvalues --   -0.60678  -0.58227  -0.56943  -0.56907  -0.53667
 Alpha  occ. eigenvalues --   -0.53389  -0.52168  -0.51435  -0.50516  -0.49721
 Alpha  occ. eigenvalues --   -0.48690  -0.48125  -0.46700  -0.46386  -0.46156
 Alpha  occ. eigenvalues --   -0.45971  -0.45254  -0.44890  -0.44338  -0.43999
 Alpha  occ. eigenvalues --   -0.43864  -0.43275  -0.41568  -0.41262  -0.41018
 Alpha  occ. eigenvalues --   -0.39897  -0.39816  -0.39205  -0.37359  -0.37049
 Alpha  occ. eigenvalues --   -0.36437  -0.35874  -0.35860  -0.35497  -0.35461
 Alpha  occ. eigenvalues --   -0.34167  -0.34138  -0.33756  -0.33722  -0.30740
 Alpha  occ. eigenvalues --   -0.30738  -0.29141  -0.28446  -0.27950  -0.27656
 Alpha  occ. eigenvalues --   -0.26497  -0.25493  -0.16241
 Alpha virt. eigenvalues --   -0.08088  -0.06655  -0.02702  -0.01048  -0.00549
 Alpha virt. eigenvalues --   -0.00504   0.00770   0.01245   0.01412   0.02006
 Alpha virt. eigenvalues --    0.02182   0.02885   0.02972   0.03359   0.03423

  Beta  occ. eigenvalues --  -89.09255 -89.09254 -19.17846 -19.17845 -19.14185
  Beta  occ. eigenvalues --  -19.14183 -19.14086 -19.14084 -19.09354 -19.08449
  Beta  occ. eigenvalues --  -10.24919 -10.23720 -10.23143 -10.23142 -10.22648
  Beta  occ. eigenvalues --  -10.22647 -10.20615 -10.20615 -10.20133 -10.20132
  Beta  occ. eigenvalues --  -10.19589 -10.19588 -10.19544 -10.19544 -10.19037
  Beta  occ. eigenvalues --  -10.19037  -8.15363  -8.15363  -6.11727  -6.11727
  Beta  occ. eigenvalues --   -6.11570  -6.11570  -6.11414  -6.11414  -1.15910
  Beta  occ. eigenvalues --   -1.15910  -1.04987  -1.04987  -1.03338  -1.03337
  Beta  occ. eigenvalues --   -1.02159  -1.00661  -0.88977  -0.88449  -0.82092
  Beta  occ. eigenvalues --   -0.79497  -0.78063  -0.77371  -0.74683  -0.73426
  Beta  occ. eigenvalues --   -0.69075  -0.67636  -0.66721  -0.62595  -0.62583
  Beta  occ. eigenvalues --   -0.60600  -0.58064  -0.56849  -0.56751  -0.53599
  Beta  occ. eigenvalues --   -0.53301  -0.52072  -0.51336  -0.50371  -0.49689
  Beta  occ. eigenvalues --   -0.48580  -0.48041  -0.46608  -0.46356  -0.46139
  Beta  occ. eigenvalues --   -0.45936  -0.45228  -0.44869  -0.43893  -0.43843
  Beta  occ. eigenvalues --   -0.42978  -0.42829  -0.41302  -0.41231  -0.40902
  Beta  occ. eigenvalues --   -0.39645  -0.38937  -0.37655  -0.37283  -0.36517
  Beta  occ. eigenvalues --   -0.35884  -0.35853  -0.35799  -0.35475  -0.35365
  Beta  occ. eigenvalues --   -0.34160  -0.34129  -0.33696  -0.33482  -0.30725
  Beta  occ. eigenvalues --   -0.30723  -0.28081  -0.27065  -0.27050  -0.26886
  Beta  occ. eigenvalues --   -0.26018  -0.24923
  Beta virt. eigenvalues --   -0.10462  -0.07369  -0.05676  -0.02447  -0.00967
  Beta virt. eigenvalues --   -0.00494  -0.00012   0.00846   0.01271   0.01442
  Beta virt. eigenvalues --    0.02085   0.02204   0.02918   0.02985   0.03403

 Mulliken charges and spin densities:
               1          2
     1  C    0.052552  -0.023454
     2  C   -0.770812   0.037253
     3  C   -0.330298   0.051130
     4  C    0.414233   0.055519
     5  C    0.439245   0.061419
     6  C   -0.095448   0.028203
     7  C   -0.876859   0.054309
     8  C    0.407472   0.055275
     9  C    0.435926   0.061073
    10  C   -0.436706   0.099850
    11  C    0.047676  -0.023436
    12  C   -0.093159   0.028151
    13  C   -0.330175   0.051061
    14  O   -0.372230   0.175688
    15  O   -0.416507   0.244073
    16  H    0.221976   0.000984
    17  S    0.328853   0.004552
    18  H    0.238246  -0.003604
    19  H    0.179176  -0.001846
    20  H    0.221730   0.000979
    21  H    0.179197  -0.001855
    22  C   -0.764717   0.037310
    23  S    0.330263   0.004431
    24  O   -0.228332   0.002432
    25  O   -0.214701  -0.001021
    26  O   -0.075981   0.000485
    27  C   -0.139081   0.001085
    28  H    0.173613   0.000044
    29  H    0.187397   0.000255
    30  H    0.172436   0.000031
    31  H    0.238254  -0.003612
    32  O   -0.226575   0.002417
    33  O   -0.216105  -0.001046
    34  O   -0.075369   0.000455
    35  C   -0.138517   0.001078
    36  H    0.173588   0.000044
    37  H    0.172356   0.000031
    38  H    0.187384   0.000257
 Sum of Mulliken charges =  -1.00000   1.00000

 Dipole moment (field-independent basis, Debye):
    X=             -0.0123    Y=             -1.6726    Z=              6.2615  Tot=              6.4811
 Quadrupole moment (field-independent basis, Debye-Ang):
   XX=           -218.2827   YY=           -196.6795   ZZ=           -171.7198
   XY=             -0.1531   XZ=             -0.0578   YZ=            -15.9296

 Normal termination of Gaussian 16 at Tue Jan 16 06:20:42 2024.
