 Q-Chem 5.4, Q-Chem, Inc., Pleasanton, CA (2021)
 Q-Chem 5.4.0 for Intel X86 EM64T Linux

User input:
--------------------------------------------------------------
$molecule
-2 1
C                 -4.0590580000     -3.7027840000     -1.8560850000
C                 -3.0137330000     -3.8431230000     -2.8180380000
C                 -1.6990810000     -3.4814120000     -2.4975120000
C                 -1.3452040000     -2.9654560000     -1.1881230000
C                 -2.4100870000     -2.8231590000     -0.2130320000
C                 -3.6900770000     -3.1841850000     -0.5606530000
O                 -5.3109360000     -3.9976080000     -2.0373380000
O                 -0.1419580000     -2.6409810000     -0.8949560000
C                 -0.5697100000     -3.6041340000     -3.4937690000
C                  0.2516000000     -4.9044050000     -3.3618060000
C                  1.4188780000     -4.9871960000     -4.3540300000
C                  2.2445840000     -6.2763590000     -4.2525060000
C                  3.4049470000     -6.3524990000     -5.2541820000
C                  4.2261240000     -7.6455330000     -5.1689010000
C                  5.3784210000     -7.7192290000     -6.1794710000
C                  6.1947870000     -9.0158280000     -6.1010390000
C                  7.3423360000     -9.0890620000     -7.1166490000
C                  8.1552750000    -10.3881380000     -7.0396290000
C                 -2.0686900000     -2.2834250000      1.1494770000
C                 -3.4009610000     -4.3831810000     -4.1766390000
O                 -4.7615090000     -3.0868320000      0.3015840000
H                  0.1165450000     -2.7650260000     -3.3305150000
H                 -0.9492300000     -3.5305810000     -4.5209680000
H                 -0.4099120000     -5.7693730000     -3.5027440000
H                  0.6317010000     -4.9579120000     -2.3364580000
H                  2.0797330000     -4.1238260000     -4.1981170000
H                  1.0316540000     -4.8913910000     -5.3789830000
H                  1.5835320000     -7.1409880000     -4.4015900000
H                  2.6398990000     -6.3707150000     -3.2325830000
H                  4.0703160000     -5.4924990000     -5.0996640000
H                  3.0076050000     -6.2466160000     -6.2728820000
H                  3.5601670000     -8.5058520000     -5.3193190000
H                  4.6297720000     -7.7506450000     -4.1530460000
H                  6.0477050000     -6.8620290000     -6.0271810000
H                  4.9748730000     -7.6091570000     -7.1949340000
H                  5.5251740000     -9.8731960000     -6.2515230000
H                  6.6024970000     -9.1251920000     -5.0872280000
H                  8.0154100000     -8.2347910000     -6.9668860000
H                  6.9370100000     -8.9791150000     -8.1310020000
C                  9.2991080000    -10.4607080000     -8.0554400000
H                  7.4829740000    -11.2428940000     -7.1885530000
H                 -1.3631890000     -2.9430420000      1.6715860000
H                 -2.9663300000     -2.1717950000      1.7624280000
H                 -1.5628290000     -1.3134200000      1.0689890000
H                 -4.4496150000     -4.6866420000     -4.1486860000
H                 -2.7934750000     -5.2478530000     -4.4730640000
H                 -3.2888410000     -3.6311030000     -4.9713510000
H                  8.5619810000    -10.4990180000     -6.0262000000
H                  8.9269180000    -10.3954820000     -9.0843360000
H                  9.8562820000    -11.4001890000     -7.9719830000
H                 10.0165680000     -9.6446830000     -7.9114170000
H                 -5.4808290000     -3.4244980000     -0.2856080000
$end
$rem
MAX_SCF_CYCLES=200
SCF_Guess=core
BASIS  =  6-311++G(d,p)
GUI  =  2
JOB_TYPE  =  SP
METHOD  =  B3LYP
THRESH = 14
SCF_CONVERGENCE = 8
SOLVENT_METHOD = COSMO
$end
$solvent
dielectric 37.219
opticaldielectric 1.43
$end

--------------------------------------------------------------

             Standard Nuclear Orientation (Angstroms)
    I     Atom           X                Y                Z
 ----------------------------------------------------------------
    1      C      -5.4074218680    -1.1554403852     0.3879591975
    2      C      -4.1126434237    -1.2870026310    -0.1985500695
    3      C      -3.3880267284    -0.1520934405    -0.5842875704
    4      C      -3.9100762437     1.1889601241    -0.3972615865
    5      C      -5.2266802796     1.3191923368     0.1982382720
    6      C      -5.9128482901     0.1851866556     0.5625995058
    7      O      -6.1733680883    -2.1288645816     0.7787840808
    8      O      -3.2438053150     2.2254119769    -0.7449431340
    9      C      -2.0207813746    -0.2531922179    -1.2194936274
   10      C      -0.8490825234    -0.0900443793    -0.2279425155
   11      C       0.5279771057    -0.1526697564    -0.9015043800
   12      C       1.7112295195    -0.0056892350     0.0640779382
   13      C       3.0839657832    -0.0772184834    -0.6186175409
   14      C       4.2724428378     0.0538649394     0.3425696761
   15      C       5.6416168796    -0.0282083673    -0.3452512433
   16      C       6.8309049807     0.0938191299     0.6162460753
   17      C       8.1983390250     0.0053656825    -0.0736783558
   18      C       9.3866801391     0.1235125299     0.8897981985
   19      C      -5.7921465649     2.6996180535     0.3956419155
   20      C      -3.5844996336    -2.6919101985    -0.3848393829
   21      O      -7.1655439085     0.2139228771     1.1377731306
   22      H      -1.9345647598     0.5474311127    -1.9633141750
   23      H      -1.9068968409    -1.2104934547    -1.7440771906
   24      H      -0.9139316537    -0.8679397323     0.5442651620
   25      H      -0.9707708314     0.8727508147     0.2789062396
   26      H       0.5865708643     0.6353304087    -1.6644384943
   27      H       0.6248242592    -1.1056734597    -1.4419248152
   28      H       1.6501028212    -0.7891925294     0.8316619452
   29      H       1.6222160024     0.9488962616     0.5991135009
   30      H       3.1482084756     0.7113452405    -1.3803470522
   31      H       3.1656611196    -1.0283662941    -1.1622031173
   32      H       4.2061153122    -0.7321363712     1.1068181184
   33      H       4.1965506174     1.0069201159     0.8828176033
   34      H       5.7111429176     0.7601351702    -1.1065696745
   35      H       5.7151771182    -0.9793049989    -0.8894350601
   36      H       6.7604183700    -0.6934462392     1.3787103484
   37      H       6.7609874324     1.0464053244     1.1581794206
   38      H       8.2732381681     0.7931528956    -0.8346106343
   39      H       8.2700884267    -0.9460123116    -0.6168371293
   40      C      10.7509997555     0.0329173490     0.1999309488
   41      H       9.3122414407    -0.6633554610     1.6514230780
   42      H      -5.1687170592     3.2889188143     1.0808311742
   43      H      -6.8079954914     2.6529723230     0.7953954513
   44      H      -5.8006887501     3.2562110588    -0.5495642139
   45      H      -4.2781892805    -3.3934273456     0.0833630588
   46      H      -2.5916107765    -2.8295289210     0.0621477457
   47      H      -3.4936791506    -2.9655329951    -1.4462731211
   48      H       9.3168285347     1.0747284574     1.4329846263
   49      H      10.8751016223    -0.9239778536    -0.3200278033
   50      H      11.5744189562     0.1204998113     0.9171077879
   51      H      10.8803092878     0.8304541286    -0.5407460435
   52      H      -7.3211132346    -0.7553323874     1.2499179119
 ----------------------------------------------------------------

   77    -968.0571187730      4.34e-09  Convergence criterion met
 Total energy in the final basis set =     -968.0571187730
   12    -968.3101375584      4.73e-09  Convergence criterion met
 Total energy in the final basis set =     -968.3101375584

                    Orbital Energies (a.u.)
 --------------------------------------------------------------

 Alpha MOs
 -- Occupied --
-19.1079 -19.0230 -19.0100 -10.1670 -10.1580 -10.1571 -10.1545 -10.1543
-10.1541 -10.1539 -10.1533 -10.1523 -10.1508 -10.1506 -10.1470 -10.1399
-10.1354 -10.1330 -10.1321 -10.1201 -10.1170 -10.1083  -1.0217  -0.9316
 -0.9296  -0.8051  -0.7917  -0.7815  -0.7657  -0.7458  -0.7299  -0.7023
 -0.6783  -0.6670  -0.6358  -0.6081  -0.5993  -0.5798  -0.5705  -0.5650
 -0.5599  -0.5280  -0.5118  -0.4805  -0.4768  -0.4630  -0.4474  -0.4393
 -0.4270  -0.4174  -0.4169  -0.4082  -0.4023  -0.3952  -0.3919  -0.3863
 -0.3838  -0.3810  -0.3734  -0.3664  -0.3612  -0.3610  -0.3578  -0.3509
 -0.3443  -0.3436  -0.3344  -0.3315  -0.3281  -0.3211  -0.3188  -0.3151
 -0.3139  -0.3124  -0.3101  -0.3069  -0.3007  -0.2975  -0.2940  -0.2842
 -0.2150  -0.2118  -0.1878  -0.1782  -0.1057

          Ground-State Mulliken Net Atomic Charges

     Atom                 Charge (a.u.)
  ----------------------------------------
      1 C                    -0.767400
      2 C                     0.903962
      3 C                     0.740030
      4 C                    -0.815655
      5 C                     0.967442
      6 C                    -0.894965
      7 O                    -0.787865
      8 O                    -0.715289
      9 C                    -0.329617
     10 C                    -0.917290
     11 C                    -0.388642
     12 C                    -0.086715
     13 C                     0.028558
     14 C                     0.032938
     15 C                    -0.059847
     16 C                    -0.288935
     17 C                    -0.486959
     18 C                    -0.293408
     19 C                    -0.452632
     20 C                    -0.656589
     21 O                    -0.392528
     22 H                     0.170621
     23 H                     0.146403
     24 H                     0.123019
     25 H                     0.198179
     26 H                     0.123337
     27 H                     0.105122
     28 H                     0.130713
     29 H                     0.126350
     30 H                     0.135586
     31 H                     0.135470
     32 H                     0.133287
     33 H                     0.134793
     34 H                     0.133723
     35 H                     0.132967
     36 H                     0.131538
     37 H                     0.132182
     38 H                     0.129402
     39 H                     0.128803
     40 C                    -0.717362
     41 H                     0.136276
     42 H                     0.144669
     43 H                     0.161785
     44 H                     0.142966
     45 H                     0.167233
     46 H                     0.146340
     47 H                     0.152055
     48 H                     0.136496
     49 H                     0.145886
     50 H                     0.154535
     51 H                     0.145802
     52 H                     0.293225
  ----------------------------------------
  Sum of atomic charges =    -2.000000

                    Cartesian Multipole Moments
 -----------------------------------------------------------------
    Charge (ESU x 10^10)
                -9.6064
    Dipole Moment (Debye)
         X      45.9234      Y      -1.8626      Z      -0.4619
       Tot      45.9635
    Quadrupole Moments (Debye-Ang)
        XX    -398.4556     XY     -10.5849     YY    -186.2694
        XZ      14.9524     YZ      10.3172     ZZ    -156.3676

 Total job time:  1499.16s(wall), 11641.63s(cpu)
        *  Thank you very much for using Q-Chem.  Have a nice day.  *
