 Gaussian 16, Revision A.03,
 Gaussian 16:  ES64L-G16RevA.03 25-Dec-2016

 --------------------------------------
 #P UB3LYP/6-311++G(d,p) nosym opt freq
 --------------------------------------

 -------
 Reduced
 -------
 Symbolic Z-matrix:
 Charge = -2 Multiplicity = 1

 SCF Done:  E(UB3LYP) =  -968.056891591     A.U. after   59 cycles
 Optimization completed.
    -- Stationary point found.
 Normal termination of Gaussian 16 at Wed Jan 10 19:05:06 2024.

 ----------------------------------------------------------------------
 #P Geom=AllCheck Guess=TCheck SCRF=Check GenChk UB3LYP/6-311++G(d,p) F
 req
 ----------------------------------------------------------------------

 Structure from the checkpoint file:  "110-an.chk"
 -------
 Reduced
 -------
 Charge = -2 Multiplicity = 1

                          Input orientation:
 ---------------------------------------------------------------------
 Center     Atomic      Atomic             Coordinates (Angstroms)
 Number     Number       Type             X           Y           Z
 ---------------------------------------------------------------------
      1          6           0       -4.059058   -3.702784   -1.856085
      2          6           0       -3.013733   -3.843123   -2.818038
      3          6           0       -1.699081   -3.481412   -2.497512
      4          6           0       -1.345204   -2.965456   -1.188123
      5          6           0       -2.410087   -2.823159   -0.213032
      6          6           0       -3.690077   -3.184185   -0.560653
      7          8           0       -5.310936   -3.997608   -2.037338
      8          8           0       -0.141958   -2.640981   -0.894956
      9          6           0       -0.569710   -3.604134   -3.493769
     10          6           0        0.251600   -4.904405   -3.361806
     11          6           0        1.418878   -4.987196   -4.354030
     12          6           0        2.244584   -6.276359   -4.252506
     13          6           0        3.404947   -6.352499   -5.254182
     14          6           0        4.226124   -7.645533   -5.168901
     15          6           0        5.378421   -7.719229   -6.179471
     16          6           0        6.194787   -9.015828   -6.101039
     17          6           0        7.342336   -9.089062   -7.116649
     18          6           0        8.155275  -10.388138   -7.039629
     19          6           0       -2.068690   -2.283425    1.149477
     20          6           0       -3.400961   -4.383181   -4.176639
     21          8           0       -4.761509   -3.086832    0.301584
     22          1           0        0.116545   -2.765026   -3.330515
     23          1           0       -0.949230   -3.530581   -4.520968
     24          1           0       -0.409912   -5.769373   -3.502744
     25          1           0        0.631701   -4.957912   -2.336458
     26          1           0        2.079733   -4.123826   -4.198117
     27          1           0        1.031654   -4.891391   -5.378983
     28          1           0        1.583532   -7.140988   -4.401590
     29          1           0        2.639899   -6.370715   -3.232583
     30          1           0        4.070316   -5.492499   -5.099664
     31          1           0        3.007605   -6.246616   -6.272882
     32          1           0        3.560167   -8.505852   -5.319319
     33          1           0        4.629772   -7.750645   -4.153046
     34          1           0        6.047705   -6.862029   -6.027181
     35          1           0        4.974873   -7.609157   -7.194934
     36          1           0        5.525174   -9.873196   -6.251523
     37          1           0        6.602497   -9.125192   -5.087228
     38          1           0        8.015410   -8.234791   -6.966886
     39          1           0        6.937010   -8.979115   -8.131002
     40          6           0        9.299108  -10.460708   -8.055440
     41          1           0        7.482974  -11.242894   -7.188553
     42          1           0       -1.363189   -2.943042    1.671586
     43          1           0       -2.966330   -2.171795    1.762428
     44          1           0       -1.562829   -1.313420    1.068989
     45          1           0       -4.449615   -4.686642   -4.148686
     46          1           0       -2.793475   -5.247853   -4.473064
     47          1           0       -3.288841   -3.631103   -4.971351
     48          1           0        8.561981  -10.499018   -6.026200
     49          1           0        8.926918  -10.395482   -9.084336
     50          1           0        9.856282  -11.400189   -7.971983
     51          1           0       10.016568   -9.644683   -7.911417
     52          1           0       -5.480829   -3.424498   -0.285608
 ---------------------------------------------------------------------

 SCF Done:  E(UB3LYP) =  -968.056891591     A.U. after    5 cycles

 Alpha  occ. eigenvalues --  -18.92207 -18.84867 -18.83399 -10.03211 -10.03184
 Alpha  occ. eigenvalues --  -10.02930 -10.02895 -10.02821 -10.02349 -10.01665
 Alpha  occ. eigenvalues --  -10.01323  -9.99952  -9.99275  -9.98679  -9.98653
 Alpha  occ. eigenvalues --   -9.97838  -9.96427  -9.96307  -9.95775  -9.94893
 Alpha  occ. eigenvalues --   -9.94116  -9.94063  -0.83610  -0.75060  -0.74886
 Alpha  occ. eigenvalues --   -0.67904  -0.65621  -0.62993  -0.60996  -0.59400
 Alpha  occ. eigenvalues --   -0.56954  -0.55333  -0.52370  -0.50290  -0.48689
 Alpha  occ. eigenvalues --   -0.45822  -0.44598  -0.44070  -0.42976  -0.42385
 Alpha  occ. eigenvalues --   -0.40244  -0.35296  -0.34976  -0.33804  -0.33159
 Alpha  occ. eigenvalues --   -0.30946  -0.30009  -0.29750  -0.28698  -0.27805
 Alpha  occ. eigenvalues --   -0.26561  -0.26287  -0.25243  -0.24874  -0.23104
 Alpha  occ. eigenvalues --   -0.22971  -0.22339  -0.22001  -0.21124  -0.20959
 Alpha  occ. eigenvalues --   -0.20602  -0.19999  -0.19908  -0.19514  -0.19166
 Alpha  occ. eigenvalues --   -0.19009  -0.18871  -0.18725  -0.18029  -0.17773
 Alpha  occ. eigenvalues --   -0.17602  -0.16811  -0.16378  -0.15830  -0.15427
 Alpha  occ. eigenvalues --   -0.14304  -0.12361  -0.12319  -0.11613  -0.11157
 Alpha  occ. eigenvalues --   -0.02870  -0.02844  -0.00373   0.00243   0.08876
 Alpha virt. eigenvalues --    0.09541   0.11666   0.11736   0.11967   0.13339
 Alpha virt. eigenvalues --    0.13629   0.13987   0.14698   0.14841   0.15363
 Alpha virt. eigenvalues --    0.15658   0.16244   0.16674   0.16953   0.17328

  Beta  occ. eigenvalues --  -18.92207 -18.84867 -18.83399 -10.03211 -10.03184
  Beta  occ. eigenvalues --  -10.02930 -10.02895 -10.02821 -10.02349 -10.01665
  Beta  occ. eigenvalues --  -10.01323  -9.99952  -9.99275  -9.98679  -9.98653
  Beta  occ. eigenvalues --   -9.97838  -9.96427  -9.96307  -9.95775  -9.94893
  Beta  occ. eigenvalues --   -9.94116  -9.94063  -0.83610  -0.75060  -0.74886
  Beta  occ. eigenvalues --   -0.67904  -0.65621  -0.62993  -0.60996  -0.59400
  Beta  occ. eigenvalues --   -0.56954  -0.55333  -0.52370  -0.50290  -0.48689
  Beta  occ. eigenvalues --   -0.45822  -0.44598  -0.44070  -0.42976  -0.42385
  Beta  occ. eigenvalues --   -0.40244  -0.35296  -0.34976  -0.33804  -0.33159
  Beta  occ. eigenvalues --   -0.30946  -0.30009  -0.29750  -0.28698  -0.27805
  Beta  occ. eigenvalues --   -0.26561  -0.26287  -0.25243  -0.24874  -0.23104
  Beta  occ. eigenvalues --   -0.22971  -0.22339  -0.22001  -0.21124  -0.20959
  Beta  occ. eigenvalues --   -0.20602  -0.19999  -0.19908  -0.19514  -0.19166
  Beta  occ. eigenvalues --   -0.19009  -0.18871  -0.18725  -0.18029  -0.17773
  Beta  occ. eigenvalues --   -0.17602  -0.16811  -0.16378  -0.15830  -0.15427
  Beta  occ. eigenvalues --   -0.14304  -0.12361  -0.12319  -0.11613  -0.11157
  Beta  occ. eigenvalues --   -0.02870  -0.02844  -0.00373   0.00243   0.08876
  Beta virt. eigenvalues --    0.09541   0.11666   0.11736   0.11967   0.13339
  Beta virt. eigenvalues --    0.13629   0.13987   0.14698   0.14841   0.15363
  Beta virt. eigenvalues --    0.15658   0.16244   0.16674   0.16953   0.17328

 Mulliken charges and spin densities:
               1          2
     1  C   -1.110446   0.000000
     2  C    1.282521  -0.000000
     3  C    0.992103  -0.000000
     4  C   -1.044763  -0.000000
     5  C    1.423101  -0.000000
     6  C   -1.006842   0.000000
     7  O   -0.537028   0.000000
     8  O   -0.440418   0.000000
     9  C   -0.553901  -0.000000
    10  C   -0.978919  -0.000000
    11  C   -0.305859  -0.000000
    12  C    0.007345   0.000000
    13  C    0.177255   0.000000
    14  C    0.320297   0.000000
    15  C    0.080140  -0.000000
    16  C   -0.590954  -0.000000
    17  C    0.937937   0.000000
    18  C   -2.519335  -0.000000
    19  C   -0.509757   0.000000
    20  C   -0.718673   0.000000
    21  O   -0.308622  -0.000000
    22  H    0.211160  -0.000000
    23  H    0.124524   0.000000
    24  H    0.087086   0.000000
    25  H    0.209436   0.000000
    26  H    0.114527   0.000000
    27  H    0.083938   0.000000
    28  H    0.113394  -0.000000
    29  H    0.117751  -0.000000
    30  H    0.128957  -0.000000
    31  H    0.123883  -0.000000
    32  H    0.110936  -0.000000
    33  H    0.110172   0.000000
    34  H    0.050244  -0.000000
    35  H    0.043866   0.000000
    36  H    0.078458   0.000000
    37  H    0.083613  -0.000000
    38  H    0.103482   0.000000
    39  H    0.103468  -0.000000
    40  C    2.443271   0.000000
    41  H   -0.080656   0.000000
    42  H    0.124390  -0.000000
    43  H    0.156038  -0.000000
    44  H    0.131301  -0.000000
    45  H    0.190057  -0.000000
    46  H    0.118185  -0.000000
    47  H    0.114311  -0.000000
    48  H   -0.072641   0.000000
    49  H   -0.440418  -0.000000
    50  H   -1.107439  -0.000000
    51  H   -0.427725  -0.000000
    52  H    0.257250  -0.000000
 Sum of Mulliken charges =  -2.00000   0.00000

 Dipole moment (field-independent basis, Debye):
    X=            -11.6108    Y=             54.5997    Z=             33.5825  Tot=             65.1438
 Quadrupole moment (field-independent basis, Debye-Ang):
   XX=           -530.1557   YY=           -597.1040   ZZ=           -390.1498
   XY=            253.0545   XZ=            211.5329   YZ=           -304.0516

  Exact polarizability:3513.740********1906.487******** 799.7751714.555
 Approx polarizability:************************************************

                      1                      2                      3
                      A                      A                      A
 Frequencies --     13.7760                19.8503                24.6109
 Red. masses --      4.6774                 4.6572                 1.7198
 Frc consts  --      0.0005                 0.0011                 0.0006
 IR Inten    --      3.8487                 4.9502                 1.0615

                      4                      5                      6
                      A                      A                      A
 Frequencies --     30.6853                32.4627                47.3303
 Red. masses --      1.0303                 3.4270                 4.8283
 Frc consts  --      0.0006                 0.0021                 0.0064
 IR Inten    --      0.6992                 4.5603                 4.3692

                      7                      8                      9
                      A                      A                      A
 Frequencies --     63.7003                75.7895                95.4960
 Red. masses --      2.6881                 1.7417                 3.3048
 Frc consts  --      0.0064                 0.0059                 0.0178
 IR Inten    --      0.4452                 0.2499                 0.3575

                     10                     11                     12
                      A                      A                      A
 Frequencies --    104.6580               108.6956               113.6992
 Red. masses --      2.3925                 1.2167                 2.5144
 Frc consts  --      0.0154                 0.0085                 0.0192
 IR Inten    --      1.4889                 0.3797                 2.3418

                     13                     14                     15
                      A                      A                      A
 Frequencies --    115.6176               122.5814               143.6081
 Red. masses --      5.5807                 1.9034                 1.9141
 Frc consts  --      0.0440                 0.0169                 0.0233
 IR Inten    --      3.5712                 1.4907                 0.1884

                     16                     17                     18
                      A                      A                      A
 Frequencies --    154.4422               161.1982               171.8273
 Red. masses --      5.2027                 2.0846                 1.9851
 Frc consts  --      0.0731                 0.0319                 0.0345
 IR Inten    --      1.4608                 0.1821                 0.6269

                     19                     20                     21
                      A                      A                      A
 Frequencies --    173.7393               196.9927               251.1425
 Red. masses --      3.9679                 4.9182                 4.1710
 Frc consts  --      0.0706                 0.1124                 0.1550
 IR Inten    --      1.3158                 0.3716                 4.0069

                     22                     23                     24
                      A                      A                      A
 Frequencies --    260.9316               270.7814               278.0530
 Red. masses --      1.1140                 2.7997                 3.3690
 Frc consts  --      0.0447                 0.1209                 0.1535
 IR Inten    --      2.2064                 1.6300                 4.5164

                     25                     26                     27
                      A                      A                      A
 Frequencies --    309.1813               328.2644               335.1234
 Red. masses --      3.2686                 2.6404                 3.8108
 Frc consts  --      0.1841                 0.1676                 0.2522
 IR Inten    --      0.7423                 2.2116                 1.3811

                     28                     29                     30
                      A                      A                      A
 Frequencies --    349.9913               368.5092               390.7479
 Red. masses --      5.6249                 4.4006                 6.3671
 Frc consts  --      0.4060                 0.3521                 0.5728
 IR Inten    --     34.9621                 3.5319                44.6073

                     31                     32                     33
                      A                      A                      A
 Frequencies --    399.5670               428.9440               448.6290
 Red. masses --      4.2938                 5.0406                 6.0006
 Frc consts  --      0.4039                 0.5464                 0.7116
 IR Inten    --     37.1671                 0.2458              1033.7566

                     34                     35                     36
                      A                      A                      A
 Frequencies --    479.8098               492.5100               509.0541
 Red. masses --      3.5785                 3.8342                 4.2227
 Frc consts  --      0.4854                 0.5480                 0.6447
 IR Inten    --    131.6818               157.6028               256.1356

                     37                     38                     39
                      A                      A                      A
 Frequencies --    565.1764               588.3679               651.5297
 Red. masses --      5.0043                 6.0389                 4.8656
 Frc consts  --      0.9418                 1.2317                 1.2169
 IR Inten    --    102.6896                64.9726                19.3616

                     40                     41                     42
                      A                      A                      A
 Frequencies --    689.6545               720.9236               727.9150
 Red. masses --      2.2059                 1.0637                 1.0678
 Frc consts  --      0.6181                 0.3257                 0.3334
 IR Inten    --     11.0868                64.4936                 3.8200

                     43                     44                     45
                      A                      A                      A
 Frequencies --    730.1438               731.7191               746.3782
 Red. masses --      9.3511                 1.1346                 1.1983
 Frc consts  --      2.9372                 0.3579                 0.3933
 IR Inten    --      0.9710                 2.1386                11.1812

                     46                     47                     48
                      A                      A                      A
 Frequencies --    765.3290               767.8746               774.9189
 Red. masses --      1.3160                 3.3942                 1.2632
 Frc consts  --      0.4541                 1.1792                 0.4469
 IR Inten    --     53.1510                25.2716                12.8159

                     49                     50                     51
                      A                      A                      A
 Frequencies --    817.1026               868.4260               883.9142
 Red. masses --      1.2862                 1.3941                 2.1958
 Frc consts  --      0.5059                 0.6195                 1.0108
 IR Inten    --     24.5330                88.7399               192.9472

                     52                     53                     54
                      A                      A                      A
 Frequencies --    890.1170               916.8262               947.1139
 Red. masses --      1.9528                 1.8739                 1.6608
 Frc consts  --      0.9116                 0.9280                 0.8777
 IR Inten    --     36.8896                 9.2621                24.3014

                     55                     56                     57
                      A                      A                      A
 Frequencies --    975.1295               983.7080               994.1593
 Red. masses --      5.0001                 4.5089                 1.2990
 Frc consts  --      2.8013                 2.5707                 0.7565
 IR Inten    --      1.5635                 2.6397                18.3807

                     58                     59                     60
                      A                      A                      A
 Frequencies --   1014.2556              1018.8340              1029.5728
 Red. masses --      3.6487                 3.3615                 1.6686
 Frc consts  --      2.2115                 2.0558                 1.0421
 IR Inten    --     13.3582                 2.9127                61.2256

                     61                     62                     63
                      A                      A                      A
 Frequencies --   1040.2102              1041.3871              1044.2315
 Red. masses --      1.4976                 2.1669                 1.6322
 Frc consts  --      0.9547                 1.3846                 1.0486
 IR Inten    --     10.6857                29.1242                 5.9156

                     64                     65                     66
                      A                      A                      A
 Frequencies --   1046.4218              1055.9059              1060.4064
 Red. masses --      1.4549                 2.4179                 1.9058
 Frc consts  --      0.9387                 1.5883                 1.2626
 IR Inten    --      0.3481                13.4061                57.0248

                     67                     68                     69
                      A                      A                      A
 Frequencies --   1060.6296              1061.3785              1083.2771
 Red. masses --      2.1510                 2.3295                 2.9907
 Frc consts  --      1.4257                 1.5462                 2.0678
 IR Inten    --     16.6134                26.3293                38.2841

                     70                     71                     72
                      A                      A                      A
 Frequencies --   1091.1612              1131.5457              1135.3165
 Red. masses --      2.8046                 2.1265                 2.7646
 Frc consts  --      1.9674                 1.6042                 2.0995
 IR Inten    --    273.8450                34.3612                 7.1165

                     73                     74                     75
                      A                      A                      A
 Frequencies --   1173.1921              1200.5330              1218.0288
 Red. masses --      4.7454                 1.8718                 1.2535
 Frc consts  --      3.8483                 1.5895                 1.0957
 IR Inten    --    861.7104                21.4234                 6.8529

                     76                     77                     78
                      A                      A                      A
 Frequencies --   1223.6576              1237.5141              1252.2449
 Red. masses --      2.4990                 2.0377                 1.3006
 Frc consts  --      2.2046                 1.8386                 1.2016
 IR Inten    --     11.0330                27.2030                 1.9115

                     79                     80                     81
                      A                      A                      A
 Frequencies --   1266.4887              1284.6721              1293.6960
 Red. masses --      1.4216                 1.3963                 2.0291
 Frc consts  --      1.3435                 1.3577                 2.0008
 IR Inten    --     11.5417                27.0546               155.7910

                     82                     83                     84
                      A                      A                      A
 Frequencies --   1295.8895              1316.0925              1317.1548
 Red. masses --      1.5955                 1.2290                 1.0454
 Frc consts  --      1.5786                 1.2543                 1.0685
 IR Inten    --    202.3649                 9.9178                41.9410

                     85                     86                     87
                      A                      A                      A
 Frequencies --   1319.3911              1323.8818              1328.5614
 Red. masses --      1.3159                 1.0468                 1.1332
 Frc consts  --      1.3496                 1.0810                 1.1785
 IR Inten    --     30.1696                49.8015                91.2769

                     88                     89                     90
                      A                      A                      A
 Frequencies --   1333.5184              1335.4417              1346.2236
 Red. masses --      1.1012                 1.1046                 1.3898
 Frc consts  --      1.1537                 1.1607                 1.4840
 IR Inten    --      5.0783                16.9866                21.9019

                     91                     92                     93
                      A                      A                      A
 Frequencies --   1362.8181              1371.4214              1376.9320
 Red. masses --      1.4307                 1.4788                 1.4996
 Frc consts  --      1.5655                 1.6388                 1.6751
 IR Inten    --     19.7351               448.3624               143.2726

                     94                     95                     96
                      A                      A                      A
 Frequencies --   1382.2903              1386.7910              1391.6487
 Red. masses --      1.4392                 1.5834                 1.6143
 Frc consts  --      1.6203                 1.7941                 1.8420
 IR Inten    --   1365.1999                31.8349              1505.7217

                     97                     98                     99
                      A                      A                      A
 Frequencies --   1393.3614              1393.5177              1402.9388
 Red. masses --      1.6645                 1.7865                 1.2791
 Frc consts  --      1.9040                 2.0440                 1.4834
 IR Inten    --   1260.2414              1582.8905               416.5887

                    100                    101                    102
                      A                      A                      A
 Frequencies --   1418.6379              1449.5885              1469.3035
 Red. masses --      3.7626                 1.7651                 1.4639
 Frc consts  --      4.4615                 2.1853                 1.8620
 IR Inten    --   7269.4449               200.8182                68.9344

                    103                    104                    105
                      A                      A                      A
 Frequencies --   1471.2931              1475.1469              1478.4824
 Red. masses --      1.1050                 1.4916                 1.0592
 Frc consts  --      1.4093                 1.9124                 1.3642
 IR Inten    --     26.6536                75.9695                 4.2594

                    106                    107                    108
                      A                      A                      A
 Frequencies --   1479.9741              1481.0607              1483.8134
 Red. masses --      1.0816                 1.0726                 1.0793
 Frc consts  --      1.3958                 1.3863                 1.4000
 IR Inten    --      1.2193                 1.4650                21.3792

                    109                    110                    111
                      A                      A                      A
 Frequencies --   1484.2740              1487.4244              1489.6514
 Red. masses --      1.0778                 1.0402                 1.1134
 Frc consts  --      1.3990                 1.3560                 1.4557
 IR Inten    --     14.8210               422.4080                28.0112

                    112                    113                    114
                      A                      A                      A
 Frequencies --   1491.3536              1493.3919              1495.6524
 Red. masses --      1.4679                 1.6621                 1.1878
 Frc consts  --      1.9235                 2.1840                 1.5655
 IR Inten    --    167.9745              1408.5241               179.2564

                    115                    116                    117
                      A                      A                      A
 Frequencies --   1497.9836              1501.6110              1507.2706
 Red. masses --      1.0973                 1.0951                 1.0994
 Frc consts  --      1.4507                 1.4549                 1.4716
 IR Inten    --     53.3329               104.3486                83.6719

                    118                    119                    120
                      A                      A                      A
 Frequencies --   1512.4109              1531.7309              1652.5651
 Red. masses --      1.0998                 3.1149                 5.3487
 Frc consts  --      1.4822                 4.3059                 8.6062
 IR Inten    --      4.2724              3057.6616              3264.1541

                    121                    122                    123
                      A                      A                      A
 Frequencies --   2964.0372              2973.6321              2982.8913
 Red. masses --      1.0503                 1.0617                 1.0572
 Frc consts  --      5.4367                 5.5311                 5.5422
 IR Inten    --    374.7231                 7.8045                 0.2002

                    124                    125                    126
                      A                      A                      A
 Frequencies --   2984.0401              2985.8230              2986.5389
 Red. masses --      1.0580                 1.0522                 1.0406
 Frc consts  --      5.5506                 5.5268                 5.4687
 IR Inten    --      0.1514                 0.5175               635.2367

                    127                    128                    129
                      A                      A                      A
 Frequencies --   2986.8163              2988.8071              2989.4101
 Red. masses --      1.0513                 1.0584                 1.0589
 Frc consts  --      5.5258                 5.5703                 5.5755
 IR Inten    --     13.9177                38.2764               301.7292

                    130                    131                    132
                      A                      A                      A
 Frequencies --   2990.8046              2993.5419              2994.5694
 Red. masses --      1.0538                 1.0778                 1.0666
 Frc consts  --      5.5536                 5.6909                 5.6352
 IR Inten    --     14.2406                73.5114                22.0791

                    133                    134                    135
                      A                      A                      A
 Frequencies --   2998.9314              3001.0556              3001.8629
 Red. masses --      1.0840                 1.0785                 1.0850
 Frc consts  --      5.7441                 5.7231                 5.7603
 IR Inten    --      2.1248                11.2781                45.8418

                    136                    137                    138
                      A                      A                      A
 Frequencies --   3002.5286              3005.3627              3008.9322
 Red. masses --      1.0877                 1.0876                 1.0982
 Frc consts  --      5.7775                 5.7877                 5.8582
 IR Inten    --     51.7455                55.2345                18.7424

                    139                    140                    141
                      A                      A                      A
 Frequencies --   3014.6442              3015.7580              3026.1905
 Red. masses --      1.0957                 1.1026                 1.1043
 Frc consts  --      5.8671                 5.9081                 5.9581
 IR Inten    --    115.0266                 3.1043                10.0362

                    142                    143                    144
                      A                      A                      A
 Frequencies --   3030.0894              3035.9100              3044.5893
 Red. masses --      1.0942                 1.1053                 1.1050
 Frc consts  --      5.9190                 6.0022                 6.0347
 IR Inten    --     23.3186                 3.5066                74.6515

                    145                    146                    147
                      A                      A                      A
 Frequencies --   3051.1476              3051.9483              3060.3072
 Red. masses --      1.1008                 1.1020                 1.1010
 Frc consts  --      6.0378                 6.0479                 6.0755
 IR Inten    --     63.1400                 0.4947                59.4616

                    148                    149                    150
                      A                      A                      A
 Frequencies --   3084.0182              3087.9217              3383.9261
 Red. masses --      1.0972                 1.0935                 1.0636
 Frc consts  --      6.1485                 6.1432                 7.1759
 IR Inten    --     69.7217                20.4796               327.1602

 - Thermochemistry -
 -------------------
 Temperature   298.150 Kelvin.  Pressure   1.00000 Atm.
 Atom     1 has atomic number  6 and mass  12.00000

 Molecular mass:   306.21950 amu.
 Principal axes and moments of inertia in atomic units:
                           1         2         3
     Eigenvalues --  2216.43290********************
           X            0.78183   0.59844   0.17496
           Y           -0.44979   0.34703   0.82296
           Z           -0.43177   0.72211  -0.54049
 This molecule is an asymmetric top.
 Rotational symmetry number  1.
 Warning -- assumption of classical behavior for rotation
           may cause significant error
 Rotational temperatures (Kelvin)      0.03908     0.00252     0.00243
 Rotational constants (GHZ):           0.81425     0.05242     0.05066
 Zero-point vibrational energy    1185077.7 (Joules/Mol)
                                  283.24037 (Kcal/Mol)
 Warning -- explicit consideration of  38 degrees of freedom as
           vibrations may cause significant error
 Vibrational temperatures:     19.82    28.56    35.41    44.15    46.71
          (Kelvin)             68.10    91.65   109.04   137.40   150.58
                              156.39   163.59   166.35   176.37   206.62
                              222.21   231.93   247.22   249.97   283.43
                              361.34   375.42   389.59   400.06   444.84
                              472.30   482.17   503.56   530.20   562.20
                              574.89   617.15   645.48   690.34   708.61
                              732.42   813.16   846.53   937.41   992.26
                             1037.25  1047.31  1050.51  1052.78  1073.87
                             1101.14  1104.80  1114.94  1175.63  1249.47
                             1271.76  1280.68  1319.11  1362.69  1402.99
                             1415.34  1430.37  1459.29  1465.87  1481.33
                             1496.63  1498.32  1502.42  1505.57  1519.21
                             1525.69  1526.01  1527.09  1558.59  1569.94
                             1628.04  1633.47  1687.96  1727.30  1752.47
                             1760.57  1780.51  1801.70  1822.19  1848.36
                             1861.34  1864.50  1893.56  1895.09  1898.31
                             1904.77  1911.50  1918.64  1921.40  1936.92
                             1960.79  1973.17  1981.10  1988.81  1995.28
                             2002.27  2004.74  2004.96  2018.52  2041.10
                             2085.63  2114.00  2116.86  2122.41  2127.21
                             2129.35  2130.92  2134.88  2135.54  2140.07
                             2143.28  2145.73  2148.66  2151.91  2155.26
                             2160.48  2168.63  2176.02  2203.82  2377.67
                             4264.59  4278.39  4291.72  4293.37  4295.93
                             4296.96  4297.36  4300.23  4301.09  4303.10
                             4307.04  4308.52  4314.79  4317.85  4319.01
                             4319.97  4324.05  4329.18  4337.40  4339.00
                             4354.01  4359.62  4368.00  4380.48  4389.92
                             4391.07  4403.10  4437.21  4442.83  4868.71

 Zero-point correction=                           0.451372 (Hartree/Particle)
 Thermal correction to Energy=                    0.477332
 Thermal correction to Enthalpy=                  0.478276
 Thermal correction to Gibbs Free Energy=         0.390817
 Sum of electronic and zero-point Energies=           -967.605519
 Sum of electronic and thermal Energies=              -967.579559
 Sum of electronic and thermal Enthalpies=            -967.578615
 Sum of electronic and thermal Free Energies=         -967.666074

                     E (Thermal)             CV                S
                      KCal/Mol        Cal/Mol-Kelvin    Cal/Mol-Kelvin
 Total                  299.530             93.656            184.073
 Electronic               0.000              0.000              0.000
 Translational            0.889              2.981             43.054
 Rotational               0.889              2.981             36.251
 Vibrational            297.753             87.695            104.768
 Vibration     1          0.593              1.986              7.375
 Vibration     2          0.593              1.986              6.649
 Vibration     3          0.593              1.985              6.222
 Vibration     4          0.594              1.984              5.785
 Vibration     5          0.594              1.983              5.673
 Vibration     6          0.595              1.979              4.926
 Vibration     7          0.597              1.972              4.339
 Vibration     8          0.599              1.965              3.997
 Vibration     9          0.603              1.952              3.544
 Vibration    10          0.605              1.945              3.366
 Vibration    11          0.606              1.942              3.292
 Vibration    12          0.607              1.938              3.205
 Vibration    13          0.608              1.936              3.172
 Vibration    14          0.610              1.930              3.059
 Vibration    15          0.616              1.910              2.755
 Vibration    16          0.620              1.898              2.617
 Vibration    17          0.622              1.890              2.536
 Vibration    18          0.626              1.877              2.415
 Vibration    19          0.627              1.875              2.395
 Vibration    20          0.636              1.844              2.161
 Vibration    21          0.663              1.761              1.723
 Vibration    22          0.669              1.744              1.656
 Vibration    23          0.674              1.727              1.591
 Vibration    24          0.679              1.714              1.546
 Vibration    25          0.699              1.656              1.367
 Vibration    26          0.711              1.619              1.269
 Vibration    27          0.716              1.605              1.235
 Vibration    28          0.727              1.575              1.166
 Vibration    29          0.741              1.537              1.086
 Vibration    30          0.758              1.490              0.997
 Vibration    31          0.766              1.471              0.964
 Vibration    32          0.790              1.407              0.862
 Vibration    33          0.808              1.364              0.800
 Vibration    34          0.836              1.295              0.711
 Vibration    35          0.848              1.267              0.677
 Vibration    36          0.864              1.230              0.636
 Vibration    37          0.921              1.107              0.514
 Vibration    38          0.946              1.057              0.470

 Optimization completed.
    -- Stationary point found.
 Normal termination of Gaussian 16 at Wed Jan 10 23:42:49 2024.
