 Q-Chem 5.4, Q-Chem, Inc., Pleasanton, CA (2021)
 Q-Chem 5.4.0 for Intel X86 EM64T Linux

User input:
--------------------------------------------------------------
$molecule
-2 1
O                  1.2604880000      0.8110080000      2.2445280000
C                  0.6877410000      0.4818820000      1.1437010000
C                 -0.7358280000      0.5371550000      0.9838340000
C                 -1.4267000000      0.2691550000     -0.1947960000
N                 -2.8415450000      0.4002640000     -0.3023260000
C                 -3.5773630000      1.2879020000      0.5882630000
C                 -4.5322050000      0.5317030000      1.5245890000
C                 -5.5917440000     -0.2464750000      0.7076670000
C                 -5.0628170000     -0.5894090000     -0.7034350000
C                 -3.5525200000     -0.8236090000     -0.6986250000
C                 -0.6951780000     -0.1546530000     -1.3842680000
O                 -1.2620860000     -0.4110480000     -2.5062230000
C                  0.7235030000     -0.2768100000     -1.2056310000
C                  1.4161820000      0.0317220000     -0.0380730000
N                  2.8376010000     -0.0209000000      0.0291300000
C                  3.6163980000     -0.0884420000     -1.1893320000
C                  4.9898820000      0.5994400000     -0.9785020000
C                  5.4154440000      0.5718600000      0.5018420000
C                  4.9450890000     -0.7341790000      1.1445660000
C                  3.4019750000     -0.8441150000      1.1022580000
H                 -1.2694520000      0.8537360000      1.8756460000
H                 -4.1771110000      2.0051740000     -0.0050630000
H                 -2.8699670000      1.8871580000      1.1596340000
H                 -5.0185950000      1.2288340000      2.2203750000
H                 -3.9405530000     -0.1625850000      2.1303480000
H                 -5.8682230000     -1.1658060000      1.2388220000
H                 -6.5150190000      0.3408360000      0.6265470000
H                 -5.5767130000     -1.4742760000     -1.0993860000
H                 -5.2834440000      0.2327050000     -1.3945340000
H                 -3.1764750000     -1.1129220000     -1.6830420000
H                 -3.3215220000     -1.6542210000     -0.0013980000
H                  1.2533690000     -0.6344740000     -2.0827840000
H                  3.7692440000     -1.1373440000     -1.5255710000
H                  3.0686550000      0.4127370000     -1.9867640000
H                  5.7471130000      0.0934310000     -1.5948870000
H                  4.9430000000      1.6377190000     -1.3270720000
H                  4.9545660000      1.4110580000      1.0300740000
H                  6.5045090000      0.6890300000      0.5890390000
H                  5.2905040000     -0.8086180000      2.1820980000
H                  5.4058170000     -1.5743260000      0.6075440000
H                  3.1163420000     -1.9072300000      0.9581700000
H                  2.9476390000     -0.4930680000      2.0290620000
$end

$rem
BASIS  =  6-311++G(d,p)
GUI  =  2
JOB_TYPE  =  SP
METHOD  =  B3LYP
SCF_CONVERGENCE  = 8
SOLVENT_METHOD = sm12
$end

$smx
solvent dimethylformamide
charges CM5
$end

--------------------------------------------------------------

             Standard Nuclear Orientation (Angstroms)
    I     Atom           X                Y                Z
 ----------------------------------------------------------------
    1      O       1.2604880000     0.8110080000     2.2445280000
    2      C       0.6877410000     0.4818820000     1.1437010000
    3      C      -0.7358280000     0.5371550000     0.9838340000
    4      C      -1.4267000000     0.2691550000    -0.1947960000
    5      N      -2.8415450000     0.4002640000    -0.3023260000
    6      C      -3.5773630000     1.2879020000     0.5882630000
    7      C      -4.5322050000     0.5317030000     1.5245890000
    8      C      -5.5917440000    -0.2464750000     0.7076670000
    9      C      -5.0628170000    -0.5894090000    -0.7034350000
   10      C      -3.5525200000    -0.8236090000    -0.6986250000
   11      C      -0.6951780000    -0.1546530000    -1.3842680000
   12      O      -1.2620860000    -0.4110480000    -2.5062230000
   13      C       0.7235030000    -0.2768100000    -1.2056310000
   14      C       1.4161820000     0.0317220000    -0.0380730000
   15      N       2.8376010000    -0.0209000000     0.0291300000
   16      C       3.6163980000    -0.0884420000    -1.1893320000
   17      C       4.9898820000     0.5994400000    -0.9785020000
   18      C       5.4154440000     0.5718600000     0.5018420000
   19      C       4.9450890000    -0.7341790000     1.1445660000
   20      C       3.4019750000    -0.8441150000     1.1022580000
   21      H      -1.2694520000     0.8537360000     1.8756460000
   22      H      -4.1771110000     2.0051740000    -0.0050630000
   23      H      -2.8699670000     1.8871580000     1.1596340000
   24      H      -5.0185950000     1.2288340000     2.2203750000
   25      H      -3.9405530000    -0.1625850000     2.1303480000
   26      H      -5.8682230000    -1.1658060000     1.2388220000
   27      H      -6.5150190000     0.3408360000     0.6265470000
   28      H      -5.5767130000    -1.4742760000    -1.0993860000
   29      H      -5.2834440000     0.2327050000    -1.3945340000
   30      H      -3.1764750000    -1.1129220000    -1.6830420000
   31      H      -3.3215220000    -1.6542210000    -0.0013980000
   32      H       1.2533690000    -0.6344740000    -2.0827840000
   33      H       3.7692440000    -1.1373440000    -1.5255710000
   34      H       3.0686550000     0.4127370000    -1.9867640000
   35      H       5.7471130000     0.0934310000    -1.5948870000
   36      H       4.9430000000     1.6377190000    -1.3270720000
   37      H       4.9545660000     1.4110580000     1.0300740000
   38      H       6.5045090000     0.6890300000     0.5890390000
   39      H       5.2905040000    -0.8086180000     2.1820980000
   40      H       5.4058170000    -1.5743260000     0.6075440000
   41      H       3.1163420000    -1.9072300000     0.9581700000
   42      H       2.9476390000    -0.4930680000     2.0290620000
 ----------------------------------------------------------------

   19    -883.0304896452      7.48e-09  Convergence criterion met
 Total energy in the final basis set =     -883.3327633119

                    Orbital Energies (a.u.)
 --------------------------------------------------------------

 Alpha MOs
 -- Occupied --
-19.0116 -19.0095 -14.3058 -14.2973 -10.1991 -10.1976 -10.1874 -10.1856
-10.1756 -10.1754 -10.1747 -10.1737 -10.1731 -10.1729 -10.1707 -10.1686
-10.1618 -10.1590 -10.1254 -10.1253  -0.9407  -0.9351  -0.9185  -0.9123
 -0.8069  -0.8016  -0.7636  -0.7554  -0.7548  -0.7049  -0.6602  -0.6549
 -0.6365  -0.6314  -0.6140  -0.5724  -0.5507  -0.5372  -0.5288  -0.5018
 -0.4959  -0.4931  -0.4720  -0.4644  -0.4442  -0.4351  -0.4263  -0.4253
 -0.4136  -0.4085  -0.4064  -0.3978  -0.3961  -0.3870  -0.3765  -0.3705
 -0.3668  -0.3593  -0.3529  -0.3499  -0.3411  -0.3385  -0.3264  -0.3254
 -0.3226  -0.3198  -0.3178  -0.3062  -0.2586  -0.2349  -0.2013  -0.1929
 -0.1881  -0.1739  -0.1060

          Ground-State Mulliken Net Atomic Charges

     Atom                 Charge (a.u.)
  ----------------------------------------
      1 O                    -0.363203
      2 C                    -1.733729
      3 C                    -0.915087
      4 C                    -1.458078
      5 N                     0.590460
      6 C                    -0.295971
      7 C                     0.775039
      8 C                     0.660758
      9 C                     1.218931
     10 C                    -1.064792
     11 C                    -1.826399
     12 O                    -0.388790
     13 C                    -0.984313
     14 C                    -1.416334
     15 N                     0.550297
     16 C                    -0.577166
     17 C                     1.693122
     18 C                     0.452459
     19 C                     1.549533
     20 C                    -0.997489
     21 H                    -0.310551
     22 H                     0.219225
     23 H                     0.154338
     24 H                     0.412494
     25 H                     0.098169
     26 H                     0.207226
     27 H                     0.267519
     28 H                     0.375671
     29 H                     0.146203
     30 H                    -0.066495
     31 H                    -0.132852
     32 H                    -0.372496
     33 H                     0.058614
     34 H                     0.173372
     35 H                     0.252242
     36 H                     0.212929
     37 H                    -0.058678
     38 H                     0.493168
     39 H                     0.293954
     40 H                     0.202992
     41 H                    -0.089015
     42 H                    -0.007280
  ----------------------------------------
  Sum of atomic charges =    -2.000000

                    Cartesian Multipole Moments
 -----------------------------------------------------------------
    Charge (ESU x 10^10)
                -9.6064
    Dipole Moment (Debye)
         X      -0.4490      Y      -1.1476      Z       1.8316
       Tot       2.2076
    Quadrupole Moments (Debye-Ang)
        XX    -166.8073     XY      -1.9130     YY    -142.1532
        XZ     -18.4073     YZ     -10.9633     ZZ    -179.4614

 Total job time:  2065.22s(wall), 16046.03s(cpu)
        *  Thank you very much for using Q-Chem.  Have a nice day.  *
