 Gaussian 16, Revision A.03,
 Gaussian 16:  ES64L-G16RevA.03 25-Dec-2016

 --------------------------------------
 #P UB3LYP/6-311++G(d,p) nosym opt freq
 --------------------------------------

 -------
 Reduced
 -------
 Symbolic Z-matrix:
 Charge = -2 Multiplicity = 1

 SCF Done:  E(UB3LYP) =  -883.064169457     A.U. after   47 cycles
 Optimization completed.
    -- Stationary point found.
 Normal termination of Gaussian 16 at Wed Jan 10 18:22:18 2024.

 ----------------------------------------------------------------------
 #P Geom=AllCheck Guess=TCheck SCRF=Check GenChk UB3LYP/6-311++G(d,p) F
 req
 ----------------------------------------------------------------------

 Structure from the checkpoint file:  "113-an.chk"
 -------
 Reduced
 -------
 Charge = -2 Multiplicity = 1

                          Input orientation:
 ---------------------------------------------------------------------
 Center     Atomic      Atomic             Coordinates (Angstroms)
 Number     Number       Type             X           Y           Z
 ---------------------------------------------------------------------
      1          8           0        1.260488    0.811008    2.244528
      2          6           0        0.687741    0.481882    1.143701
      3          6           0       -0.735828    0.537155    0.983834
      4          6           0       -1.426700    0.269155   -0.194796
      5          7           0       -2.841545    0.400264   -0.302326
      6          6           0       -3.577363    1.287902    0.588263
      7          6           0       -4.532205    0.531703    1.524589
      8          6           0       -5.591744   -0.246475    0.707667
      9          6           0       -5.062817   -0.589409   -0.703435
     10          6           0       -3.552520   -0.823609   -0.698625
     11          6           0       -0.695178   -0.154653   -1.384268
     12          8           0       -1.262086   -0.411048   -2.506223
     13          6           0        0.723503   -0.276810   -1.205631
     14          6           0        1.416182    0.031722   -0.038073
     15          7           0        2.837601   -0.020900    0.029130
     16          6           0        3.616398   -0.088442   -1.189332
     17          6           0        4.989882    0.599440   -0.978502
     18          6           0        5.415444    0.571860    0.501842
     19          6           0        4.945089   -0.734179    1.144566
     20          6           0        3.401975   -0.844115    1.102258
     21          1           0       -1.269452    0.853736    1.875646
     22          1           0       -4.177111    2.005174   -0.005063
     23          1           0       -2.869967    1.887158    1.159634
     24          1           0       -5.018595    1.228834    2.220375
     25          1           0       -3.940553   -0.162585    2.130348
     26          1           0       -5.868223   -1.165806    1.238822
     27          1           0       -6.515019    0.340836    0.626547
     28          1           0       -5.576713   -1.474276   -1.099386
     29          1           0       -5.283444    0.232705   -1.394534
     30          1           0       -3.176475   -1.112922   -1.683042
     31          1           0       -3.321522   -1.654221   -0.001398
     32          1           0        1.253369   -0.634474   -2.082784
     33          1           0        3.769244   -1.137344   -1.525571
     34          1           0        3.068655    0.412737   -1.986764
     35          1           0        5.747113    0.093431   -1.594887
     36          1           0        4.943000    1.637719   -1.327072
     37          1           0        4.954566    1.411058    1.030074
     38          1           0        6.504509    0.689030    0.589039
     39          1           0        5.290504   -0.808618    2.182098
     40          1           0        5.405817   -1.574326    0.607544
     41          1           0        3.116342   -1.907230    0.958170
     42          1           0        2.947639   -0.493068    2.029062
 ---------------------------------------------------------------------

 SCF Done:  E(UB3LYP) =  -883.064169457     A.U. after    4 cycles

 Alpha  occ. eigenvalues --  -18.80772 -18.80660 -14.09727 -14.08931  -9.99262
 Alpha  occ. eigenvalues --   -9.99245  -9.98365  -9.97797  -9.97788  -9.97767
 Alpha  occ. eigenvalues --   -9.97752  -9.97744  -9.97664  -9.97608  -9.96475
 Alpha  occ. eigenvalues --   -9.96315  -9.95385  -9.95279  -9.90945  -9.90908
 Alpha  occ. eigenvalues --   -0.73373  -0.72764  -0.70985  -0.70503  -0.60485
 Alpha  occ. eigenvalues --   -0.60148  -0.55568  -0.55291  -0.55095  -0.49583
 Alpha  occ. eigenvalues --   -0.45270  -0.45125  -0.43540  -0.42775  -0.41078
 Alpha  occ. eigenvalues --   -0.36762  -0.33899  -0.33458  -0.32320  -0.29876
 Alpha  occ. eigenvalues --   -0.29546  -0.29173  -0.26587  -0.25859  -0.24023
 Alpha  occ. eigenvalues --   -0.23004  -0.22302  -0.22223  -0.21050  -0.20704
 Alpha  occ. eigenvalues --   -0.20326  -0.19315  -0.18936  -0.18412  -0.16952
 Alpha  occ. eigenvalues --   -0.16698  -0.16351  -0.15272  -0.14597  -0.14225
 Alpha  occ. eigenvalues --   -0.13945  -0.13486  -0.12771  -0.12508  -0.12119
 Alpha  occ. eigenvalues --   -0.11943  -0.10762  -0.09615  -0.04444  -0.02344
 Alpha  occ. eigenvalues --    0.01334   0.01774   0.02135   0.04076   0.11379
 Alpha virt. eigenvalues --    0.12779   0.13091   0.14755   0.15331   0.15436
 Alpha virt. eigenvalues --    0.15487   0.16675   0.17033   0.18066   0.18223
 Alpha virt. eigenvalues --    0.18620   0.18898   0.19338   0.19602   0.20073

  Beta  occ. eigenvalues --  -18.80772 -18.80660 -14.09727 -14.08931  -9.99262
  Beta  occ. eigenvalues --   -9.99245  -9.98365  -9.97797  -9.97788  -9.97767
  Beta  occ. eigenvalues --   -9.97752  -9.97744  -9.97664  -9.97608  -9.96475
  Beta  occ. eigenvalues --   -9.96315  -9.95385  -9.95279  -9.90945  -9.90908
  Beta  occ. eigenvalues --   -0.73373  -0.72764  -0.70985  -0.70503  -0.60485
  Beta  occ. eigenvalues --   -0.60148  -0.55568  -0.55291  -0.55095  -0.49583
  Beta  occ. eigenvalues --   -0.45270  -0.45125  -0.43540  -0.42775  -0.41078
  Beta  occ. eigenvalues --   -0.36762  -0.33899  -0.33458  -0.32320  -0.29876
  Beta  occ. eigenvalues --   -0.29546  -0.29173  -0.26587  -0.25859  -0.24023
  Beta  occ. eigenvalues --   -0.23004  -0.22302  -0.22223  -0.21050  -0.20704
  Beta  occ. eigenvalues --   -0.20326  -0.19315  -0.18936  -0.18412  -0.16952
  Beta  occ. eigenvalues --   -0.16698  -0.16351  -0.15272  -0.14597  -0.14225
  Beta  occ. eigenvalues --   -0.13945  -0.13486  -0.12771  -0.12508  -0.12119
  Beta  occ. eigenvalues --   -0.11943  -0.10762  -0.09615  -0.04444  -0.02344
  Beta  occ. eigenvalues --    0.01334   0.01774   0.02135   0.04076   0.11379
  Beta virt. eigenvalues --    0.12779   0.13091   0.14755   0.15331   0.15436
  Beta virt. eigenvalues --    0.15487   0.16675   0.17033   0.18066   0.18223
  Beta virt. eigenvalues --    0.18620   0.18898   0.19338   0.19602   0.20073

 Mulliken charges and spin densities:
               1          2
     1  O   -0.489418   0.000000
     2  C   -0.722658  -0.000000
     3  C   -0.169228   0.000000
     4  C   -0.252388  -0.000000
     5  N    0.415190   0.000000
     6  C   -0.058943   0.000000
     7  C   -0.761300  -0.000000
     8  C    1.350066  -0.000000
     9  C   -0.872382  -0.000000
    10  C   -0.004820   0.000000
    11  C   -0.434783  -0.000000
    12  O   -0.498930  -0.000000
    13  C    0.512903   0.000000
    14  C   -0.122775   0.000000
    15  N    0.370380  -0.000000
    16  C   -0.537921  -0.000000
    17  C    0.993546   0.000000
    18  C   -0.363498  -0.000000
    19  C   -0.378213  -0.000000
    20  C    0.147569   0.000000
    21  H    0.079305  -0.000000
    22  H    0.009682   0.000000
    23  H    0.197299   0.000000
    24  H   -0.299857   0.000000
    25  H    0.220949  -0.000000
    26  H   -0.117465   0.000000
    27  H   -0.470162   0.000000
    28  H   -0.087132   0.000000
    29  H    0.213020   0.000000
    30  H    0.188626  -0.000000
    31  H    0.095225   0.000000
    32  H    0.123693  -0.000000
    33  H    0.011859   0.000000
    34  H    0.165140   0.000000
    35  H   -0.217006  -0.000000
    36  H    0.004272  -0.000000
    37  H    0.266039   0.000000
    38  H   -0.747329  -0.000000
    39  H   -0.032674  -0.000000
    40  H   -0.048770  -0.000000
    41  H    0.059874   0.000000
    42  H    0.263018   0.000000
 Sum of Mulliken charges =  -2.00000  -0.00000

 Dipole moment (field-independent basis, Debye):
    X=             -0.5963    Y=             -1.7296    Z=             -0.0162  Tot=              1.8296
 Quadrupole moment (field-independent basis, Debye-Ang):
   XX=           -324.7481   YY=           -151.3945   ZZ=           -180.5606
   XY=              0.5718   XZ=             -0.4018   YZ=            -10.0516

  Exact polarizability:6793.870 116.3161097.644-424.667 184.7311089.184
 Approx polarizability:********-357.910 878.826******** 195.8841167.144

                      1                      2                      3
                      A                      A                      A
 Frequencies --     27.0052                38.6747                48.3318
 Red. masses --      3.9220                 3.9179                 2.8157
 Frc consts  --      0.0017                 0.0035                 0.0039
 IR Inten    --      0.4643                 1.9290                 0.1922

                      4                      5                      6
                      A                      A                      A
 Frequencies --     73.9782                80.8484               105.8763
 Red. masses --      3.0766                 4.0262                 3.1600
 Frc consts  --      0.0099                 0.0155                 0.0209
 IR Inten    --      0.8341                 1.9438                 1.3398

                      7                      8                      9
                      A                      A                      A
 Frequencies --    120.9106               124.8240               172.9630
 Red. masses --      2.0696                 3.8012                 4.2062
 Frc consts  --      0.0178                 0.0349                 0.0741
 IR Inten    --      8.0053                 5.6190                 4.2217

                     10                     11                     12
                      A                      A                      A
 Frequencies --    209.1742               229.8317               244.2636
 Red. masses --      4.0528                 3.4767                 1.7925
 Frc consts  --      0.1045                 0.1082                 0.0630
 IR Inten    --      1.9296                 2.5755                18.5421

                     13                     14                     15
                      A                      A                      A
 Frequencies --    250.3928               273.3178               285.9568
 Red. masses --      2.9853                 5.0529                 2.4193
 Frc consts  --      0.1103                 0.2224                 0.1166
 IR Inten    --     14.2531                 9.5705                31.4797

                     16                     17                     18
                      A                      A                      A
 Frequencies --    308.1787               324.7739               357.3964
 Red. masses --      3.1478                 4.6716                 3.9143
 Frc consts  --      0.1761                 0.2903                 0.2946
 IR Inten    --     10.1373                70.2407                 5.1093

                     19                     20                     21
                      A                      A                      A
 Frequencies --    400.2987               446.8443               449.8976
 Red. masses --      2.8712                 4.8047                 6.9255
 Frc consts  --      0.2711                 0.5652                 0.8259
 IR Inten    --      4.6152                 1.1967                10.4495

                     22                     23                     24
                      A                      A                      A
 Frequencies --    460.6287               477.2007               488.3170
 Red. masses --      3.5762                 3.3934                 4.3644
 Frc consts  --      0.4471                 0.4553                 0.6132
 IR Inten    --     15.9009                 2.2954                 4.1042

                     25                     26                     27
                      A                      A                      A
 Frequencies --    488.7382               513.5472               553.3566
 Red. masses --      3.7113                 3.8017                 2.0304
 Frc consts  --      0.5223                 0.5907                 0.3663
 IR Inten    --      9.0312                22.3371                75.0662

                     28                     29                     30
                      A                      A                      A
 Frequencies --    598.3388               666.0456               693.2996
 Red. masses --      2.8200                 4.2126                 4.4094
 Frc consts  --      0.5948                 1.1010                 1.2487
 IR Inten    --    111.0710                 9.8742                 4.6050

                     31                     32                     33
                      A                      A                      A
 Frequencies --    723.1663               729.5885               734.4908
 Red. masses --      2.0497                 3.0847                 6.6493
 Frc consts  --      0.6315                 0.9674                 2.1135
 IR Inten    --      9.2027                70.9113                12.6559

                     34                     35                     36
                      A                      A                      A
 Frequencies --    768.4592               784.0379               812.9685
 Red. masses --      1.3591                 1.3211                 3.5121
 Frc consts  --      0.4729                 0.4785                 1.3676
 IR Inten    --     38.5898                45.6575                17.5400

                     37                     38                     39
                      A                      A                      A
 Frequencies --    822.4038               823.2364               845.0609
 Red. masses --      2.7513                 2.4122                 1.5745
 Frc consts  --      1.0964                 0.9632                 0.6625
 IR Inten    --     15.1076                 6.7860                20.2938

                     40                     41                     42
                      A                      A                      A
 Frequencies --    852.1956               868.0570               873.2689
 Red. masses --      3.3125                 1.6764                 1.6560
 Frc consts  --      1.4174                 0.7443                 0.7441
 IR Inten    --     16.4442                65.9302                69.1824

                     43                     44                     45
                      A                      A                      A
 Frequencies --    889.7139               895.3736               910.0256
 Red. masses --      2.2898                 2.3778                 2.5890
 Frc consts  --      1.0680                 1.1232                 1.2633
 IR Inten    --     95.7487                16.1518                17.9026

                     46                     47                     48
                      A                      A                      A
 Frequencies --    941.9509               969.4900               991.3248
 Red. masses --      2.4581                 1.5433                 1.5179
 Frc consts  --      1.2850                 0.8546                 0.8788
 IR Inten    --    145.7036                30.3327                45.4705

                     49                     50                     51
                      A                      A                      A
 Frequencies --   1008.3661              1024.9286              1033.7379
 Red. masses --      2.0852                 2.0366                 2.1643
 Frc consts  --      1.2492                 1.2605                 1.3627
 IR Inten    --     66.6139                43.6124                49.7522

                     52                     53                     54
                      A                      A                      A
 Frequencies --   1052.9824              1081.3086              1081.6092
 Red. masses --      2.0586                 1.7255                 1.7575
 Frc consts  --      1.3448                 1.1887                 1.2114
 IR Inten    --     12.9934                34.9158                23.3882

                     55                     56                     57
                      A                      A                      A
 Frequencies --   1117.0784              1125.6032              1132.9460
 Red. masses --      1.9968                 3.0974                 2.6221
 Frc consts  --      1.4681                 2.3121                 1.9830
 IR Inten    --     90.8591                97.8276               119.8655

                     58                     59                     60
                      A                      A                      A
 Frequencies --   1135.0568              1160.1416              1184.7805
 Red. masses --      2.3774                 1.6172                 1.2358
 Frc consts  --      1.8047                 1.2824                 1.0221
 IR Inten    --     29.3120               201.9981               135.5791

                     61                     62                     63
                      A                      A                      A
 Frequencies --   1196.4220              1211.3617              1221.7589
 Red. masses --      5.5357                 1.8356                 1.7889
 Frc consts  --      4.6686                 1.5870                 1.5733
 IR Inten    --     64.6744               257.6311                31.6418

                     64                     65                     66
                      A                      A                      A
 Frequencies --   1231.7195              1234.4023              1245.1920
 Red. masses --      1.5691                 1.5363                 1.3198
 Frc consts  --      1.4025                 1.3792                 1.2057
 IR Inten    --    229.1341                40.4332                 8.6079

                     67                     68                     69
                      A                      A                      A
 Frequencies --   1258.9704              1271.0771              1281.1258
 Red. masses --      1.6613                 1.3820                 1.2120
 Frc consts  --      1.5514                 1.3155                 1.1720
 IR Inten    --     38.4907                83.1770                16.9593

                     70                     71                     72
                      A                      A                      A
 Frequencies --   1288.8096              1309.3401              1324.1463
 Red. masses --      1.2161                 2.2211                 1.5377
 Frc consts  --      1.1901                 2.2435                 1.5885
 IR Inten    --     85.6137               138.5554                12.9936

                     73                     74                     75
                      A                      A                      A
 Frequencies --   1327.6926              1337.0129              1345.2409
 Red. masses --      1.5891                 1.3600                 1.3573
 Frc consts  --      1.6504                 1.4323                 1.4472
 IR Inten    --    121.5607                27.2989                46.8609

                     76                     77                     78
                      A                      A                      A
 Frequencies --   1349.8205              1351.0352              1360.7468
 Red. masses --      1.3882                 1.3775                 1.5858
 Frc consts  --      1.4903                 1.4814                 1.7300
 IR Inten    --     70.2721                25.9659               102.2056

                     79                     80                     81
                      A                      A                      A
 Frequencies --   1366.1905              1374.2776              1380.8303
 Red. masses --      1.4047                 1.3888                 1.4289
 Frc consts  --      1.5447                 1.5454                 1.6053
 IR Inten    --     17.6830                22.9470                 5.5004

                     82                     83                     84
                      A                      A                      A
 Frequencies --   1395.1860              1401.2218              1410.8595
 Red. masses --      1.7769                 2.2467                 1.8237
 Frc consts  --      2.0379                 2.5990                 2.1388
 IR Inten    --     12.1691                53.8983                35.3730

                     85                     86                     87
                      A                      A                      A
 Frequencies --   1431.5460              1463.9540              1471.5433
 Red. masses --      5.7447                 5.4946                 1.0812
 Frc consts  --      6.9363                 6.9381                 1.3794
 IR Inten    --     19.9661               187.9789               610.0397

                     88                     89                     90
                      A                      A                      A
 Frequencies --   1473.1195              1481.7273              1484.5888
 Red. masses --      1.0833                 1.0958                 1.0972
 Frc consts  --      1.3851                 1.4174                 1.4248
 IR Inten    --     55.7844                26.1501               186.6292

                     91                     92                     93
                      A                      A                      A
 Frequencies --   1489.4106              1490.3406              1497.4918
 Red. masses --      1.1930                 1.1450                 1.6437
 Frc consts  --      1.5592                 1.4984                 2.1718
 IR Inten    --    899.5132               331.5904               323.0137

                     94                     95                     96
                      A                      A                      A
 Frequencies --   1505.2407              1511.7394              1517.7395
 Red. masses --      1.3825                 1.1364                 1.1201
 Frc consts  --      1.8456                 1.5301                 1.5202
 IR Inten    --    407.3189                57.0627                72.0293

                     97                     98                     99
                      A                      A                      A
 Frequencies --   1529.9051              1586.6264              2819.6185
 Red. masses --      1.0931                 5.6260                 1.0744
 Frc consts  --      1.5074                 8.3445                 5.0325
 IR Inten    --     35.3545                42.4595               121.8511

                    100                    101                    102
                      A                      A                      A
 Frequencies --   2842.2565              2854.2443              2867.0568
 Red. masses --      1.0733                 1.0742                 1.0768
 Frc consts  --      5.1088                 5.1559                 5.2151
 IR Inten    --    220.2228               124.3092               150.4016

                    103                    104                    105
                      A                      A                      A
 Frequencies --   2967.9917              2978.0934              2978.2955
 Red. masses --      1.0672                 1.0646                 1.0687
 Frc consts  --      5.5388                 5.5630                 5.5851
 IR Inten    --     45.9290               305.4748                23.3164

                    106                    107                    108
                      A                      A                      A
 Frequencies --   2985.8086              2987.9794              3000.0575
 Red. masses --      1.0698                 1.0643                 1.0620
 Frc consts  --      5.6191                 5.5987                 5.6316
 IR Inten    --     21.9353               117.6289                88.8617

                    109                    110                    111
                      A                      A                      A
 Frequencies --   3005.4199              3017.3004              3020.3842
 Red. masses --      1.1015                 1.0945                 1.0938
 Frc consts  --      5.8620                 5.8707                 5.8792
 IR Inten    --      3.2023                28.7877                 5.9255

                    112                    113                    114
                      A                      A                      A
 Frequencies --   3031.9413              3046.0233              3053.4146
 Red. masses --      1.1006                 1.0966                 1.0865
 Frc consts  --      5.9610                 5.9946                 5.9681
 IR Inten    --     15.5779                85.9759                57.2988

                    115                    116                    117
                      A                      A                      A
 Frequencies --   3058.7434              3085.0130              3094.1810
 Red. masses --      1.0919                 1.0879                 1.0858
 Frc consts  --      6.0191                 6.1005                 6.1248
 IR Inten    --     76.1260                69.1206                20.8906

                    118                    119                    120
                      A                      A                      A
 Frequencies --   3102.8434              3137.6080              3150.8379
 Red. masses --      1.0852                 1.0863                 1.0869
 Frc consts  --      6.1560                 6.3010                 6.3577
 IR Inten    --     17.7488                28.0991                19.7957

 - Thermochemistry -
 -------------------
 Temperature   298.150 Kelvin.  Pressure   1.00000 Atm.
 Atom     1 has atomic number  8 and mass  15.99491

 Molecular mass:   274.16813 amu.
 Principal axes and moments of inertia in atomic units:
                           1         2         3
     Eigenvalues --  1871.84065********************
           X            0.99984  -0.01667   0.00578
           Y           -0.00191   0.22348   0.97471
           Z            0.01754   0.97457  -0.22341
 This molecule is an asymmetric top.
 Rotational symmetry number  1.
 Warning -- assumption of classical behavior for rotation
           may cause significant error
 Rotational temperatures (Kelvin)      0.04627     0.00718     0.00655
 Rotational constants (GHZ):           0.96415     0.14969     0.13642
 Zero-point vibrational energy     935366.6 (Joules/Mol)
                                  223.55799 (Kcal/Mol)
 Warning -- explicit consideration of  28 degrees of freedom as
           vibrations may cause significant error
 Vibrational temperatures:     38.85    55.64    69.54   106.44   116.32
          (Kelvin)            152.33   173.96   179.59   248.86   300.96
                              330.68   351.44   360.26   393.24   411.43
                              443.40   467.28   514.21   575.94   642.91
                              647.30   662.74   686.59   702.58   703.19
                              738.88   796.16   860.88   958.29   997.50
                             1040.47  1049.72  1056.77  1105.64  1128.06
                             1169.68  1183.26  1184.45  1215.85  1226.12
                             1248.94  1256.44  1280.10  1288.24  1309.32
                             1355.26  1394.88  1426.30  1450.81  1474.64
                             1487.32  1515.01  1555.76  1556.19  1607.23
                             1619.49  1630.06  1633.09  1669.18  1704.63
                             1721.38  1742.88  1757.84  1772.17  1776.03
                             1791.55  1811.38  1828.80  1843.25  1854.31
                             1883.85  1905.15  1910.25  1923.66  1935.50
                             1942.09  1943.84  1957.81  1965.64  1977.28
                             1986.71  2007.36  2016.05  2029.91  2059.68
                             2106.30  2117.22  2119.49  2131.88  2135.99
                             2142.93  2144.27  2154.56  2165.71  2175.06
                             2183.69  2201.19  2282.80  4056.80  4089.37
                             4106.62  4125.06  4270.28  4284.81  4285.10
                             4295.91  4299.04  4316.41  4324.13  4341.22
                             4345.66  4362.29  4382.55  4393.18  4400.85
                             4438.65  4451.84  4464.30  4514.32  4533.35

 Zero-point correction=                           0.356262 (Hartree/Particle)
 Thermal correction to Energy=                    0.374523
 Thermal correction to Enthalpy=                  0.375467
 Thermal correction to Gibbs Free Energy=         0.309118
 Sum of electronic and zero-point Energies=           -882.707907
 Sum of electronic and thermal Energies=              -882.689647
 Sum of electronic and thermal Enthalpies=            -882.688703
 Sum of electronic and thermal Free Energies=         -882.755051

                     E (Thermal)             CV                S
                      KCal/Mol        Cal/Mol-Kelvin    Cal/Mol-Kelvin
 Total                  235.016             72.016            139.643
 Electronic               0.000              0.000              0.000
 Translational            0.889              2.981             42.724
 Rotational               0.889              2.981             34.056
 Vibrational            233.239             66.054             62.862
 Vibration     1          0.593              1.984              6.038
 Vibration     2          0.594              1.981              5.326
 Vibration     3          0.595              1.978              4.885
 Vibration     4          0.599              1.966              4.045
 Vibration     5          0.600              1.962              3.870
 Vibration     6          0.605              1.945              3.343
 Vibration     7          0.609              1.932              3.086
 Vibration     8          0.610              1.928              3.024
 Vibration     9          0.626              1.876              2.403
 Vibration    10          0.642              1.827              2.051
 Vibration    11          0.652              1.795              1.880
 Vibration    12          0.660              1.772              1.772
 Vibration    13          0.663              1.762              1.728
 Vibration    14          0.676              1.723              1.575
 Vibration    15          0.684              1.700              1.498
 Vibration    16          0.698              1.658              1.372
 Vibration    17          0.709              1.626              1.286
 Vibration    18          0.733              1.560              1.133
 Vibration    19          0.766              1.469              0.962
 Vibration    20          0.806              1.368              0.805
 Vibration    21          0.809              1.361              0.796
 Vibration    22          0.818              1.337              0.764
 Vibration    23          0.834              1.301              0.718
 Vibration    24          0.844              1.276              0.688
 Vibration    25          0.845              1.275              0.687
 Vibration    26          0.869              1.220              0.625
 Vibration    27          0.909              1.132              0.537
 Vibration    28          0.956              1.035              0.453

 Optimization completed.
    -- Stationary point found.
 Normal termination of Gaussian 16 at Wed Jan 10 21:28:56 2024.
