 Gaussian 16, Revision A.03,
 Gaussian 16:  ES64L-G16RevA.03 25-Dec-2016

 ----------------------------------------------------------------------
 #P UB3LYP/6-311++G(d,p) nosym opt freq SCRF=(PCM,Solvent=n,n-DiMethylF
 ormamide)
 ----------------------------------------------------------------------

 -------
 Radical
 -------
 Symbolic Z-matrix:
 Charge = -1 Multiplicity = 2

 SCF Done:  E(UB3LYP) =  -1035.78148773     A.U. after   17 cycles
 SCF Done:  E(UB3LYP) =  -1035.78190918     A.U. after   13 cycles
 SCF Done:  E(UB3LYP) =  -1035.78216344     A.U. after   13 cycles
 SCF Done:  E(UB3LYP) =  -1035.78221536     A.U. after   12 cycles
 SCF Done:  E(UB3LYP) =  -1035.78222121     A.U. after   11 cycles
 SCF Done:  E(UB3LYP) =  -1035.78222482     A.U. after   10 cycles
 SCF Done:  E(UB3LYP) =  -1035.78222843     A.U. after   12 cycles
 SCF Done:  E(UB3LYP) =  -1035.78223108     A.U. after   11 cycles
 SCF Done:  E(UB3LYP) =  -1035.78223388     A.U. after   12 cycles
 SCF Done:  E(UB3LYP) =  -1035.78223565     A.U. after   10 cycles
 SCF Done:  E(UB3LYP) =  -1035.78223618     A.U. after   10 cycles
 SCF Done:  E(UB3LYP) =  -1035.78223623     A.U. after    8 cycles
 Optimization completed.
    -- Stationary point found.
 Normal termination of Gaussian 16 at Sat Feb 10 19:00:19 2024.

 ----------------------------------------------------------------------
 #P Geom=AllCheck Guess=TCheck SCRF=Check GenChk UB3LYP/6-311++G(d,p) F
 req
 ----------------------------------------------------------------------

 Structure from the checkpoint file:  "173-rad.chk"
 -------
 Radical
 -------
 Charge = -1 Multiplicity = 2

                          Input orientation:
 ---------------------------------------------------------------------
 Center     Atomic      Atomic             Coordinates (Angstroms)
 Number     Number       Type             X           Y           Z
 ---------------------------------------------------------------------
      1          6           0       -1.442203    2.288538   -3.961773
      2          6           0       -1.413388    0.914147   -4.088915
      3          6           0       -1.125124    0.110426   -2.964403
      4          6           0       -1.187893    2.916093   -2.719455
      5          6           0       -0.898499    2.109156   -1.590563
      6          6           0       -0.873906    0.702767   -1.742970
      7          6           0       -1.233428    4.369272   -2.620025
      8          6           0       -0.622154    2.700451   -0.287652
      9          6           0       -0.979309    4.973244   -1.326902
     10          6           0       -0.657135    4.144917   -0.172278
     11          6           0       -1.040257    6.408084   -1.176901
     12          6           0       -0.763040    6.960773    0.080652
     13          6           0       -0.445922    6.170798    1.180505
     14          6           0       -0.374953    4.773697    1.096699
     15          8           0       -1.495896    5.048310   -3.675874
     16          8           0       -0.361376    1.920641    0.696613
     17          1           0       -1.662951    2.919811   -4.813408
     18          1           0       -1.611821    0.451108   -5.049732
     19          1           0       -1.101512   -0.969811   -3.061772
     20          1           0       -0.650231    0.101865   -0.870320
     21          1           0       -0.243202    6.663398    2.122255
     22          1           0       -0.800196    8.033632    0.215700
     23          7           0       -1.403895    7.211949   -2.236470
     24          7           0       -0.004760    4.019130    2.189247
     25          1           0       -1.476423    6.693678   -3.113490
     26          1           0       -0.089114    3.015578    2.019335
     27          6           0        0.048995    4.498357    3.565521
     28          6           0        0.849254    3.494120    4.400461
     29          6           0       -1.348026    4.732718    4.168082
     30          6           0       -1.242746    8.660576   -2.288468
     31          6           0        0.229100    9.090780   -2.424244
     32          6           0       -2.085348    9.203046   -3.446803
     33          1           0        0.594541    5.448765    3.581243
     34          1           0        0.920489    3.829662    5.437899
     35          1           0        1.861216    3.375122    4.005561
     36          1           0        0.362339    2.513241    4.397452
     37          1           0       -1.932080    5.422766    3.554827
     38          1           0       -1.270308    5.154549    5.174810
     39          1           0       -1.895655    3.787293    4.233325
     40          1           0       -1.642306    9.088091   -1.361829
     41          1           0        0.837989    8.677043   -1.617130
     42          1           0        0.318530   10.180979   -2.393351
     43          1           0        0.640027    8.739452   -3.375952
     44          1           0       -1.746681    8.784889   -4.400576
     45          1           0       -1.997502   10.290490   -3.507555
     46          1           0       -3.139997    8.948282   -3.316719
 ---------------------------------------------------------------------

 SCF Done:  E(UB3LYP) =  -1035.78223623     A.U. after    1 cycles

 Alpha  occ. eigenvalues --  -19.06682 -19.06680 -14.29979 -14.29967 -10.21775
 Alpha  occ. eigenvalues --  -10.21774 -10.20433 -10.20422 -10.20374 -10.20367
 Alpha  occ. eigenvalues --  -10.16917 -10.16869 -10.16750 -10.16715 -10.16688
 Alpha  occ. eigenvalues --  -10.16646 -10.16579 -10.16576 -10.15860 -10.15805
 Alpha  occ. eigenvalues --  -10.15732 -10.15726 -10.15386 -10.15382  -0.99194
 Alpha  occ. eigenvalues --   -0.98899  -0.92420  -0.91922  -0.85334  -0.83033
 Alpha  occ. eigenvalues --   -0.78185  -0.77951  -0.75971  -0.74567  -0.73192
 Alpha  occ. eigenvalues --   -0.70244  -0.68561  -0.68513  -0.65921  -0.63385
 Alpha  occ. eigenvalues --   -0.62619  -0.59736  -0.58554  -0.57380  -0.56022
 Alpha  occ. eigenvalues --   -0.52304  -0.52177  -0.50194  -0.48487  -0.47529
 Alpha  occ. eigenvalues --   -0.46545  -0.45679  -0.45346  -0.44308  -0.43879
 Alpha  occ. eigenvalues --   -0.43444  -0.42380  -0.41809  -0.41130  -0.40923
 Alpha  occ. eigenvalues --   -0.40536  -0.39852  -0.39618  -0.38897  -0.38547
 Alpha  occ. eigenvalues --   -0.38264  -0.38027  -0.37214  -0.37063  -0.36198
 Alpha  occ. eigenvalues --   -0.35701  -0.35072  -0.34795  -0.34153  -0.33985
 Alpha  occ. eigenvalues --   -0.33794  -0.33186  -0.33072  -0.30765  -0.26300
 Alpha  occ. eigenvalues --   -0.25189  -0.24801  -0.23842  -0.23808  -0.22908
 Alpha  occ. eigenvalues --   -0.17888  -0.12833
 Alpha virt. eigenvalues --   -0.04088  -0.01743  -0.00616   0.00075   0.00210
 Alpha virt. eigenvalues --    0.00999   0.01395   0.01733   0.02018   0.02295
 Alpha virt. eigenvalues --    0.02307   0.02982   0.03802   0.03926   0.04220

  Beta  occ. eigenvalues --  -19.06259 -19.06257 -14.29870 -14.29858 -10.21609
  Beta  occ. eigenvalues --  -10.21608 -10.20378 -10.20375 -10.20371 -10.20363
  Beta  occ. eigenvalues --  -10.16875 -10.16827 -10.16776 -10.16740 -10.16624
  Beta  occ. eigenvalues --  -10.16601 -10.16571 -10.16548 -10.15731 -10.15725
  Beta  occ. eigenvalues --  -10.15716 -10.15660 -10.15380 -10.15376  -0.98477
  Beta  occ. eigenvalues --   -0.98158  -0.92190  -0.91708  -0.85141  -0.82862
  Beta  occ. eigenvalues --   -0.78117  -0.77617  -0.75831  -0.74388  -0.73058
  Beta  occ. eigenvalues --   -0.69979  -0.68549  -0.68467  -0.65308  -0.63232
  Beta  occ. eigenvalues --   -0.62403  -0.59700  -0.58470  -0.57268  -0.55856
  Beta  occ. eigenvalues --   -0.52100  -0.52070  -0.50070  -0.48431  -0.47283
  Beta  occ. eigenvalues --   -0.46441  -0.45575  -0.45248  -0.44225  -0.43763
  Beta  occ. eigenvalues --   -0.43381  -0.42114  -0.41595  -0.41022  -0.40410
  Beta  occ. eigenvalues --   -0.40326  -0.39524  -0.39443  -0.38782  -0.38502
  Beta  occ. eigenvalues --   -0.38150  -0.37954  -0.36759  -0.36052  -0.36011
  Beta  occ. eigenvalues --   -0.35560  -0.34672  -0.34630  -0.34044  -0.33955
  Beta  occ. eigenvalues --   -0.33516  -0.32948  -0.32349  -0.30107  -0.24848
  Beta  occ. eigenvalues --   -0.24604  -0.23861  -0.23436  -0.23411  -0.22527
  Beta  occ. eigenvalues --   -0.16536
  Beta virt. eigenvalues --   -0.07796  -0.03214  -0.00778  -0.00600   0.00081
  Beta virt. eigenvalues --    0.00216   0.01181   0.01406   0.01741   0.02031
  Beta virt. eigenvalues --    0.02335   0.02705   0.03091   0.03813   0.03935

 Mulliken charges and spin densities:
               1          2
     1  C   -0.155445   0.022497
     2  C   -0.391549   0.033427
     3  C   -0.389830   0.033564
     4  C    0.364803   0.036373
     5  C    0.362387   0.036621
     6  C   -0.155419   0.022414
     7  C   -0.304674   0.092817
     8  C   -0.302335   0.092767
     9  C    0.055946  -0.021708
    10  C    0.054692  -0.022231
    11  C   -0.425319   0.046655
    12  C   -0.034274   0.092610
    13  C   -0.032481   0.093375
    14  C   -0.428084   0.046348
    15  O   -0.487384   0.155591
    16  O   -0.487711   0.155379
    17  H    0.157655  -0.000770
    18  H    0.178681  -0.002769
    19  H    0.178753  -0.002779
    20  H    0.157562  -0.000759
    21  H    0.198673  -0.007475
    22  H    0.198937  -0.007459
    23  N   -0.079605   0.049590
    24  N   -0.081659   0.049677
    25  H    0.397136  -0.002239
    26  H    0.398118  -0.002287
    27  C    0.075330   0.000411
    28  C   -0.533394  -0.000711
    29  C   -0.534732   0.002374
    30  C    0.074511   0.000758
    31  C   -0.535758   0.002291
    32  C   -0.533871  -0.000739
    33  H    0.124907   0.002810
    34  H    0.157625  -0.000077
    35  H    0.154875  -0.000052
    36  H    0.144012  -0.000105
    37  H    0.138909   0.001187
    38  H    0.141198  -0.000253
    39  H    0.158689  -0.000293
    40  H    0.124840   0.002718
    41  H    0.138897   0.001233
    42  H    0.141176  -0.000254
    43  H    0.158784  -0.000293
    44  H    0.144001  -0.000106
    45  H    0.157460  -0.000081
    46  H    0.154969  -0.000049
 Sum of Mulliken charges =  -1.00000   1.00000

 Dipole moment (field-independent basis, Debye):
    X=              4.6207    Y=            -15.4382    Z=              8.0572  Tot=             18.0169
 Quadrupole moment (field-independent basis, Debye-Ang):
   XX=           -160.6612   YY=           -196.7634   ZZ=           -170.2837
   XY=             18.9447   XZ=            -10.6000   YZ=             39.6987

  Exact polarizability: 251.184  -2.915 626.126  70.991  63.183 566.161
 Approx polarizability: 278.785  -8.697 648.914  76.536  47.141 599.760

                      1                      2                      3
                      A                      A                      A
 Frequencies --     24.0382                30.9004                40.4592
 Red. masses --      3.7675                 3.6586                 3.0235
 Frc consts  --      0.0013                 0.0021                 0.0029
 IR Inten    --      9.5073                 2.2540                 0.7899

                      4                      5                      6
                      A                      A                      A
 Frequencies --     51.4016                58.8135                77.5033
 Red. masses --      4.0996                 5.7103                 3.9776
 Frc consts  --      0.0064                 0.0116                 0.0141
 IR Inten    --      0.8231                 7.3235                 1.1110

                      7                      8                      9
                      A                      A                      A
 Frequencies --     97.1458               114.9512               131.2346
 Red. masses --      3.2070                 3.6230                 4.8606
 Frc consts  --      0.0178                 0.0282                 0.0493
 IR Inten    --      3.7052                 0.1359                 0.4823

                     10                     11                     12
                      A                      A                      A
 Frequencies --    135.1386               178.6290               220.9890
 Red. masses --      4.5400                 7.3015                 1.2553
 Frc consts  --      0.0488                 0.1373                 0.0361
 IR Inten    --      7.3428                 1.0320                 0.4872

                     13                     14                     15
                      A                      A                      A
 Frequencies --    224.5779               229.6502               237.2602
 Red. masses --      1.0567                 1.4597                 3.5711
 Frc consts  --      0.0314                 0.0454                 0.1184
 IR Inten    --      0.9286                 2.7119                 1.4342

                     16                     17                     18
                      A                      A                      A
 Frequencies --    249.4330               252.6930               265.1702
 Red. masses --      1.1079                 3.9771                 2.2725
 Frc consts  --      0.0406                 0.1496                 0.0941
 IR Inten    --      0.9816                 4.8671                 6.8720

                     19                     20                     21
                      A                      A                      A
 Frequencies --    271.0818               322.0828               345.3866
 Red. masses --      2.4264                 3.4671                 5.3037
 Frc consts  --      0.1051                 0.2119                 0.3728
 IR Inten    --      1.9369                 0.3647                 5.7169

                     22                     23                     24
                      A                      A                      A
 Frequencies --    374.7316               389.7725               392.4346
 Red. masses --      3.7728                 3.7462                 3.3114
 Frc consts  --      0.3121                 0.3353                 0.3005
 IR Inten    --      1.4908                12.5505                 7.2570

                     25                     26                     27
                      A                      A                      A
 Frequencies --    417.6134               419.3240               420.4042
 Red. masses --      5.6218                 3.6616                 4.2072
 Frc consts  --      0.5777                 0.3793                 0.4381
 IR Inten    --      8.9460                 2.1231                 6.1527

                     28                     29                     30
                      A                      A                      A
 Frequencies --    437.8195               442.0529               466.4835
 Red. masses --     10.7817                 3.4192                 3.9857
 Frc consts  --      1.2177                 0.3937                 0.5110
 IR Inten    --     11.0442                 8.0408                66.2063

                     31                     32                     33
                      A                      A                      A
 Frequencies --    472.7361               497.8291               506.7073
 Red. masses --      2.6254                 5.3780                 4.3310
 Frc consts  --      0.3457                 0.7853                 0.6552
 IR Inten    --     46.9973                 4.0913                 2.5328

                     34                     35                     36
                      A                      A                      A
 Frequencies --    511.3408               596.4570               612.8121
 Red. masses --      5.3370                 3.0337                 4.7000
 Frc consts  --      0.8222                 0.6359                 1.0399
 IR Inten    --     35.2495                56.2339                 5.3223

                     37                     38                     39
                      A                      A                      A
 Frequencies --    628.3616               646.7070               671.1648
 Red. masses --      5.5725                 4.4824                 2.9944
 Frc consts  --      1.2963                 1.1045                 0.7947
 IR Inten    --     18.2260                 2.6174                30.7573

                     40                     41                     42
                      A                      A                      A
 Frequencies --    677.7562               707.5786               722.3245
 Red. masses --      1.2208                 1.4479                 6.6041
 Frc consts  --      0.3304                 0.4271                 2.0302
 IR Inten    --    301.2313                 0.4731                 2.6949

                     43                     44                     45
                      A                      A                      A
 Frequencies --    728.1425               740.3655               790.2704
 Red. masses --      2.0586                 5.8922                 1.8414
 Frc consts  --      0.6431                 1.9029                 0.6776
 IR Inten    --    154.8094                 1.6001                71.8210

                     46                     47                     48
                      A                      A                      A
 Frequencies --    795.8267               796.4018               804.6952
 Red. masses --      5.1064                 4.3878                 1.9585
 Frc consts  --      1.9055                 1.6397                 0.7472
 IR Inten    --      3.7540                 6.3021                28.9825

                     49                     50                     51
                      A                      A                      A
 Frequencies --    837.3755               839.6055               866.8871
 Red. masses --      2.4997                 2.4255                 5.2291
 Frc consts  --      1.0327                 1.0074                 2.3153
 IR Inten    --      8.5055                14.2929                27.4001

                     52                     53                     54
                      A                      A                      A
 Frequencies --    882.3438               893.7038               902.7113
 Red. masses --      1.4636                 4.2234                 1.3335
 Frc consts  --      0.6713                 1.9874                 0.6402
 IR Inten    --      0.1811                70.0392                 0.2743

                     55                     56                     57
                      A                      A                      A
 Frequencies --    929.6460               930.8343               938.1763
 Red. masses --      1.2646                 1.2657                 3.1841
 Frc consts  --      0.6439                 0.6461                 1.6512
 IR Inten    --      3.3658                 5.4328                 4.0268

                     58                     59                     60
                      A                      A                      A
 Frequencies --    948.3443               952.7888               968.1170
 Red. masses --      1.4083                 1.5570                 2.3641
 Frc consts  --      0.7462                 0.8328                 1.3055
 IR Inten    --     11.0322                19.1603                23.1279

                     61                     62                     63
                      A                      A                      A
 Frequencies --    988.5214               998.6542              1030.6090
 Red. masses --      1.3647                 1.2783                 2.4338
 Frc consts  --      0.7857                 0.7511                 1.5231
 IR Inten    --      2.9300                 0.0316                41.9397

                     64                     65                     66
                      A                      A                      A
 Frequencies --   1033.7050              1083.1448              1110.0834
 Red. masses --      2.1813                 2.3219                 2.2392
 Frc consts  --      1.3733                 1.6049                 1.6257
 IR Inten    --     81.1557                16.3030                89.9872

                     67                     68                     69
                      A                      A                      A
 Frequencies --   1132.8119              1133.3116              1148.9834
 Red. masses --      2.1359                 2.1684                 1.3160
 Frc consts  --      1.6149                 1.6409                 1.0236
 IR Inten    --     51.0715                 8.4044                16.6330

                     70                     71                     72
                      A                      A                      A
 Frequencies --   1170.7841              1177.5488              1185.4177
 Red. masses --      2.1239                 2.1412                 2.2177
 Frc consts  --      1.7153                 1.7493                 1.8361
 IR Inten    --    154.8933                19.7956                 4.1554

                     73                     74                     75
                      A                      A                      A
 Frequencies --   1186.2063              1192.0654              1193.7682
 Red. masses --      2.1340                 1.7063                 2.0732
 Frc consts  --      1.7692                 1.4286                 1.7407
 IR Inten    --    167.9575               428.8799                 9.6799

                     76                     77                     78
                      A                      A                      A
 Frequencies --   1226.6284              1245.4477              1272.6718
 Red. masses --      3.4828                 2.1730                 2.3404
 Frc consts  --      3.0875                 1.9860                 2.2334
 IR Inten    --     12.9304               102.0171                12.8608

                     79                     80                     81
                      A                      A                      A
 Frequencies --   1283.2923              1311.0429              1336.8647
 Red. masses --      2.8833                 6.1095                 2.1384
 Frc consts  --      2.7976                 6.1871                 2.2517
 IR Inten    --    162.4466               221.0372               698.1855

                     82                     83                     84
                      A                      A                      A
 Frequencies --   1353.6200              1357.0618              1358.0534
 Red. masses --      6.8955                 1.3440                 1.4033
 Frc consts  --      7.4440                 1.4583                 1.5248
 IR Inten    --    122.4025                11.1296                 0.9465

                     85                     86                     87
                      A                      A                      A
 Frequencies --   1371.4112              1372.3289              1386.3140
 Red. masses --      1.4612                 1.3310                 4.1384
 Frc consts  --      1.6192                 1.4769                 4.6861
 IR Inten    --     34.7053               328.4994               208.1823

                     88                     89                     90
                      A                      A                      A
 Frequencies --   1388.3734              1389.1162              1394.7824
 Red. masses --      1.2464                 1.2464                 2.8118
 Frc consts  --      1.4155                 1.4171                 3.2229
 IR Inten    --     19.5048                14.7842               766.2362

                     91                     92                     93
                      A                      A                      A
 Frequencies --   1407.9372              1408.3666              1436.3553
 Red. masses --      1.2516                 1.2744                 5.1210
 Frc consts  --      1.4618                 1.4893                 6.2248
 IR Inten    --     17.1829                 5.1963                39.9950

                     94                     95                     96
                      A                      A                      A
 Frequencies --   1464.5152              1476.3822              1477.1404
 Red. masses --      4.5417                 1.5630                 1.0527
 Frc consts  --      5.7393                 2.0073                 1.3533
 IR Inten    --    966.5671               114.7131                 4.2389

                     97                     98                     99
                      A                      A                      A
 Frequencies --   1477.3533              1479.2417              1480.3349
 Red. masses --      1.1212                 1.0921                 1.1351
 Frc consts  --      1.4418                 1.4079                 1.4655
 IR Inten    --     19.8314                18.4658                 5.2955

                    100                    101                    102
                      A                      A                      A
 Frequencies --   1486.6961              1488.2679              1494.8176
 Red. masses --      1.0731                 1.1202                 3.4094
 Frc consts  --      1.3974                 1.4618                 4.4885
 IR Inten    --     26.2291                 0.7268               579.8535

                    103                    104                    105
                      A                      A                      A
 Frequencies --   1497.2548              1497.7273              1531.2183
 Red. masses --      1.0780                 1.0704                 2.0927
 Frc consts  --      1.4238                 1.4147                 2.8909
 IR Inten    --     14.5047                17.1797               801.3673

                    106                    107                    108
                      A                      A                      A
 Frequencies --   1552.3151              1587.2048              1596.1077
 Red. masses --      2.6562                 2.6170                 2.4312
 Frc consts  --      3.7711                 3.8844                 3.6492
 IR Inten    --      3.2107               831.1423                58.4673

                    109                    110                    111
                      A                      A                      A
 Frequencies --   1622.5882              1625.2988              3008.3588
 Red. masses --      5.7001                 7.2537                 1.0822
 Frc consts  --      8.8419                11.2896                 5.7705
 IR Inten    --      0.0051               122.9396                31.6574

                    112                    113                    114
                      A                      A                      A
 Frequencies --   3008.7013              3016.5272              3016.6622
 Red. masses --      1.0823                 1.0354                 1.0355
 Frc consts  --      5.7723                 5.5511                 5.5521
 IR Inten    --    111.7378                44.4532                39.9182

                    115                    116                    117
                      A                      A                      A
 Frequencies --   3022.4229              3022.5274              3078.3927
 Red. masses --      1.0377                 1.0378                 1.1020
 Frc consts  --      5.5851                 5.5859                 6.1527
 IR Inten    --     89.4099                19.2300                16.4920

                    118                    119                    120
                      A                      A                      A
 Frequencies --   3078.4439              3085.4042              3085.4469
 Red. masses --      1.1020                 1.1000                 1.1000
 Frc consts  --      6.1529                 6.1700                 6.1697
 IR Inten    --     21.8902                84.3278               165.3454

                    121                    122                    123
                      A                      A                      A
 Frequencies --   3094.0256              3094.6774              3098.4130
 Red. masses --      1.1011                 1.1009                 1.1024
 Frc consts  --      6.2107                 6.2122                 6.2355
 IR Inten    --     49.6903                44.0888                64.8065

                    124                    125                    126
                      A                      A                      A
 Frequencies --   3098.6548              3156.0302              3170.8969
 Red. masses --      1.1024                 1.0860                 1.0911
 Frc consts  --      6.2366                 6.3735                 6.4635
 IR Inten    --     63.7762                16.9034                33.8543

                    127                    128                    129
                      A                      A                      A
 Frequencies --   3185.6115              3191.5150              3194.3057
 Red. masses --      1.0854                 1.0915                 1.0936
 Frc consts  --      6.4900                 6.5504                 6.5745
 IR Inten    --     44.7531                15.4425                54.0645

                    130                    131                    132
                      A                      A                      A
 Frequencies --   3201.7590              3356.3089              3358.6674
 Red. masses --      1.0922                 1.0804                 1.0801
 Frc consts  --      6.5970                 7.1704                 7.1786
 IR Inten    --     38.8196               254.4084                15.0159

 - Thermochemistry -
 -------------------
 Temperature   298.150 Kelvin.  Pressure   1.00000 Atm.
 Atom     1 has atomic number  6 and mass  12.00000

 Molecular mass:   322.16813 amu.
 Principal axes and moments of inertia in atomic units:
                           1         2         3
     Eigenvalues --  7717.420578353.02601**********
           X            0.15650   0.09015   0.98356
           Y           -0.56944   0.82189   0.01527
           Z            0.80700   0.56246  -0.17996
 This molecule is an asymmetric top.
 Rotational symmetry number  1.
 Warning -- assumption of classical behavior for rotation
           may cause significant error
 Rotational temperatures (Kelvin)      0.01122     0.01037     0.00561
 Rotational constants (GHZ):           0.23385     0.21606     0.11695
 Zero-point vibrational energy     990751.3 (Joules/Mol)
                                  236.79525 (Kcal/Mol)
 Warning -- explicit consideration of  36 degrees of freedom as
           vibrations may cause significant error
 Vibrational temperatures:     34.59    44.46    58.21    73.96    84.62
          (Kelvin)            111.51   139.77   165.39   188.82   194.43
                              257.01   317.95   323.12   330.42   341.36
                              358.88   363.57   381.52   390.03   463.41
                              496.93   539.16   560.80   564.63   600.85
                              603.31   604.87   629.92   636.02   671.17
                              680.16   716.26   729.04   735.71   858.17
                              881.70   904.07   930.47   965.66   975.14
                             1018.05  1039.26  1047.63  1065.22  1137.02
                             1145.02  1145.84  1157.78  1204.80  1208.01
                             1247.26  1269.50  1285.84  1298.80  1337.55
                             1339.26  1349.83  1364.46  1370.85  1392.90
                             1422.26  1436.84  1482.82  1487.27  1558.40
                             1597.16  1629.86  1630.58  1653.13  1684.50
                             1694.23  1705.55  1706.69  1715.12  1717.57
                             1764.84  1791.92  1831.09  1846.37  1886.30
                             1923.45  1947.56  1952.51  1953.94  1973.15
                             1974.48  1994.60  1997.56  1998.63  2006.78
                             2025.71  2026.33  2066.59  2107.11  2124.18
                             2125.28  2125.58  2128.30  2129.87  2139.02
                             2141.29  2150.71  2154.22  2154.90  2203.08
                             2233.44  2283.63  2296.44  2334.54  2338.44
                             4328.36  4328.85  4340.11  4340.30  4348.59
                             4348.74  4429.12  4429.19  4439.21  4439.27
                             4451.61  4452.55  4457.93  4458.27  4540.82
                             4562.21  4583.38  4591.88  4595.89  4606.62
                             4828.98  4832.37

 Zero-point correction=                           0.377357 (Hartree/Particle)
 Thermal correction to Energy=                    0.399717
 Thermal correction to Enthalpy=                  0.400661
 Thermal correction to Gibbs Free Energy=         0.324573
 Sum of electronic and zero-point Energies=          -1035.404879
 Sum of electronic and thermal Energies=             -1035.382519
 Sum of electronic and thermal Enthalpies=           -1035.381575
 Sum of electronic and thermal Free Energies=        -1035.457663

                     E (Thermal)             CV                S
                      KCal/Mol        Cal/Mol-Kelvin    Cal/Mol-Kelvin
 Total                  250.826             87.661            160.140
 Electronic               0.000              0.000              1.377
 Translational            0.889              2.981             43.205
 Rotational               0.889              2.981             35.252
 Vibrational            249.049             81.699             80.306
 Vibration     1          0.593              1.985              6.269
 Vibration     2          0.594              1.984              5.771
 Vibration     3          0.594              1.981              5.236
 Vibration     4          0.596              1.977              4.763
 Vibration     5          0.596              1.974              4.497
 Vibration     6          0.599              1.964              3.953
 Vibration     7          0.603              1.951              3.511
 Vibration     8          0.608              1.937              3.184
 Vibration     9          0.612              1.922              2.928
 Vibration    10          0.613              1.918              2.872
 Vibration    11          0.629              1.869              2.343
 Vibration    12          0.648              1.809              1.951
 Vibration    13          0.649              1.804              1.922
 Vibration    14          0.652              1.796              1.882
 Vibration    15          0.656              1.784              1.823
 Vibration    16          0.662              1.764              1.735
 Vibration    17          0.664              1.758              1.712
 Vibration    18          0.671              1.737              1.627
 Vibration    19          0.675              1.727              1.589
 Vibration    20          0.707              1.631              1.300
 Vibration    21          0.724              1.585              1.187
 Vibration    22          0.746              1.524              1.060
 Vibration    23          0.758              1.492              1.001
 Vibration    24          0.760              1.486              0.991
 Vibration    25          0.781              1.432              0.900
 Vibration    26          0.782              1.428              0.894
 Vibration    27          0.783              1.426              0.891
 Vibration    28          0.798              1.388              0.833
 Vibration    29          0.802              1.378              0.820
 Vibration    30          0.824              1.324              0.747
 Vibration    31          0.830              1.311              0.730
 Vibration    32          0.853              1.255              0.664
 Vibration    33          0.862              1.235              0.642
 Vibration    34          0.866              1.225              0.630
 Vibration    35          0.954              1.039              0.456
 Vibration    36          0.972              1.005              0.428

                           ! Non-Optimized Parameters !
 Normal termination of Gaussian 16 at Sat Feb 10 23:03:53 2024.
