 Gaussian 16, Revision A.03,
 Gaussian 16:  ES64L-G16RevA.03 25-Dec-2016

 --------------------------------------
 #P UB3LYP/6-311++G(d,p) nosym opt freq
 --------------------------------------

 --------
 Oxidized
 --------
 Symbolic Z-matrix:
 Charge =  0 Multiplicity = 1

 SCF Done:  E(UB3LYP) =  -744.280386722     A.U. after   17 cycles
 SCF Done:  E(UB3LYP) =  -744.303570086     A.U. after   15 cycles
 SCF Done:  E(UB3LYP) =  -744.314476257     A.U. after   15 cycles
 SCF Done:  E(UB3LYP) =  -744.326100279     A.U. after   15 cycles
 SCF Done:  E(UB3LYP) =  -744.332458671     A.U. after   15 cycles
 SCF Done:  E(UB3LYP) =  -744.335850414     A.U. after   14 cycles
 SCF Done:  E(UB3LYP) =  -744.337450544     A.U. after   13 cycles
 SCF Done:  E(UB3LYP) =  -744.337754825     A.U. after   13 cycles
 SCF Done:  E(UB3LYP) =  -744.337958870     A.U. after   12 cycles
 SCF Done:  E(UB3LYP) =  -744.338103268     A.U. after   12 cycles
 SCF Done:  E(UB3LYP) =  -744.338164434     A.U. after   12 cycles
 SCF Done:  E(UB3LYP) =  -744.338196339     A.U. after   11 cycles
 SCF Done:  E(UB3LYP) =  -744.338205959     A.U. after   11 cycles
 SCF Done:  E(UB3LYP) =  -744.338211264     A.U. after   10 cycles
 SCF Done:  E(UB3LYP) =  -744.338212815     A.U. after   10 cycles
 SCF Done:  E(UB3LYP) =  -744.338213897     A.U. after   10 cycles
 SCF Done:  E(UB3LYP) =  -744.338214330     A.U. after   10 cycles
 SCF Done:  E(UB3LYP) =  -744.338214546     A.U. after   10 cycles
 SCF Done:  E(UB3LYP) =  -744.338214599     A.U. after    8 cycles
 Optimization completed.
    -- Stationary point found.
 Normal termination of Gaussian 16 at Thu Dec 21 07:20:19 2023.

 ----------------------------------------------------------------------
 #P Geom=AllCheck Guess=TCheck SCRF=Check GenChk UB3LYP/6-311++G(d,p) F
 req
 ----------------------------------------------------------------------

 Structure from the checkpoint file:  "150.chk"
 --------
 Oxidized
 --------
 Charge =  0 Multiplicity = 1

                          Input orientation:
 ---------------------------------------------------------------------
 Center     Atomic      Atomic             Coordinates (Angstroms)
 Number     Number       Type             X           Y           Z
 ---------------------------------------------------------------------
      1          7           0       -2.926315    1.849279    0.275049
      2          6           0       -2.527011    0.559600    0.131994
      3          6           0       -3.500936   -0.465055    0.056182
      4          6           0       -3.137972   -1.787329   -0.089512
      5          6           0       -1.789870   -2.154184   -0.166758
      6          6           0       -0.810098   -1.175490   -0.095821
      7          6           0        0.616255   -1.619227   -0.182943
      8          8           0        0.906630   -2.798314   -0.311037
      9          6           0        1.670014   -0.571734   -0.107909
     10          6           0        3.015727   -0.945145   -0.186433
     11          6           0        4.012234    0.020224   -0.118002
     12          6           0        3.670941    1.367958    0.029728
     13          6           0        2.336138    1.746401    0.108518
     14          6           0        1.326012    0.781011    0.040419
     15          6           0       -0.098932    1.218895    0.127833
     16          8           0       -0.351250    2.421752    0.258870
     17          6           0       -1.148346    0.195988    0.054109
     18          1           0       -3.905199    2.071205    0.329571
     19          1           0       -2.219455    2.571659    0.330043
     20          1           0       -4.549115   -0.189855    0.115270
     21          1           0       -3.908210   -2.548630   -0.144427
     22          1           0       -1.489448   -3.187021   -0.280959
     23          1           0        3.253494   -1.995484   -0.300670
     24          1           0        5.054462   -0.271904   -0.179211
     25          1           0        4.449223    2.120920    0.083076
     26          1           0        2.051027    2.784481    0.223020
 ---------------------------------------------------------------------

 SCF Done:  E(UB3LYP) =  -744.338214599     A.U. after    2 cycles

 Alpha  occ. eigenvalues --  -19.12075 -19.11893 -14.33826 -10.27409 -10.27179
 Alpha  occ. eigenvalues --  -10.24901 -10.20383 -10.20339 -10.20211 -10.20021
 Alpha  occ. eigenvalues --  -10.19906 -10.19768 -10.19695 -10.19463 -10.19397
 Alpha  occ. eigenvalues --  -10.19343 -10.18415  -1.05442  -1.05238  -0.94763
 Alpha  occ. eigenvalues --   -0.88665  -0.86650  -0.80876  -0.77450  -0.76863
 Alpha  occ. eigenvalues --   -0.75657  -0.68501  -0.66610  -0.64719  -0.61500
 Alpha  occ. eigenvalues --   -0.58692  -0.57433  -0.55691  -0.53011  -0.50752
 Alpha  occ. eigenvalues --   -0.49902  -0.48446  -0.47567  -0.46869  -0.45055
 Alpha  occ. eigenvalues --   -0.44761  -0.44556  -0.43868  -0.42857  -0.41232
 Alpha  occ. eigenvalues --   -0.40026  -0.39558  -0.38769  -0.37366  -0.36978
 Alpha  occ. eigenvalues --   -0.36453  -0.33386  -0.28519  -0.27852  -0.27431
 Alpha  occ. eigenvalues --   -0.27420  -0.26602  -0.22729
 Alpha virt. eigenvalues --   -0.11066  -0.06380  -0.03448  -0.01455  -0.01399
 Alpha virt. eigenvalues --   -0.00507   0.00368   0.01540   0.01642   0.03287
 Alpha virt. eigenvalues --    0.03497   0.03872   0.04118   0.04434   0.04753

  Beta  occ. eigenvalues --  -19.12075 -19.11893 -14.33826 -10.27409 -10.27179
  Beta  occ. eigenvalues --  -10.24901 -10.20383 -10.20339 -10.20211 -10.20021
  Beta  occ. eigenvalues --  -10.19906 -10.19768 -10.19695 -10.19463 -10.19397
  Beta  occ. eigenvalues --  -10.19343 -10.18415  -1.05442  -1.05238  -0.94763
  Beta  occ. eigenvalues --   -0.88665  -0.86650  -0.80876  -0.77450  -0.76863
  Beta  occ. eigenvalues --   -0.75657  -0.68501  -0.66610  -0.64719  -0.61500
  Beta  occ. eigenvalues --   -0.58692  -0.57433  -0.55691  -0.53011  -0.50752
  Beta  occ. eigenvalues --   -0.49902  -0.48446  -0.47567  -0.46869  -0.45055
  Beta  occ. eigenvalues --   -0.44761  -0.44556  -0.43868  -0.42857  -0.41232
  Beta  occ. eigenvalues --   -0.40026  -0.39558  -0.38769  -0.37366  -0.36978
  Beta  occ. eigenvalues --   -0.36453  -0.33386  -0.28519  -0.27852  -0.27431
  Beta  occ. eigenvalues --   -0.27420  -0.26602  -0.22729
  Beta virt. eigenvalues --   -0.11066  -0.06380  -0.03448  -0.01455  -0.01399
  Beta virt. eigenvalues --   -0.00507   0.00368   0.01540   0.01642   0.03287
  Beta virt. eigenvalues --    0.03497   0.03872   0.04118   0.04434   0.04753

 Mulliken charges and spin densities:
               1          2
     1  N   -0.413435   0.000000
     2  C    0.318507  -0.000000
     3  C   -0.153259   0.000000
     4  C   -0.389505  -0.000000
     5  C    0.066704  -0.000000
     6  C    0.474138   0.000000
     7  C   -0.651855  -0.000000
     8  O   -0.214648  -0.000000
     9  C    0.043261   0.000000
    10  C    0.166659  -0.000000
    11  C   -0.348112  -0.000000
    12  C   -0.406180  -0.000000
    13  C    0.260808  -0.000000
    14  C    0.088670   0.000000
    15  C   -0.493691   0.000000
    16  O   -0.264595  -0.000000
    17  C    0.107005  -0.000000
    18  H    0.273743  -0.000000
    19  H    0.327745   0.000000
    20  H    0.141024  -0.000000
    21  H    0.180091   0.000000
    22  H    0.174711  -0.000000
    23  H    0.180643   0.000000
    24  H    0.173331   0.000000
    25  H    0.173232  -0.000000
    26  H    0.185007   0.000000
 Sum of Mulliken charges =  -0.00000  -0.00000

 Dipole moment (field-independent basis, Debye):
    X=             -1.5920    Y=              1.5135    Z=              0.2047  Tot=              2.2061
 Quadrupole moment (field-independent basis, Debye-Ang):
   XX=            -69.8005   YY=           -103.3342   ZZ=           -101.9082
   XY=              2.5008   XZ=             -0.7282   YZ=             -0.1995

  Exact polarizability: 269.075   9.816 201.854  -4.475  11.633  86.268
 Approx polarizability: 403.128   0.347 387.966  -7.872  25.604 139.657

                      1                      2                      3
                      A                      A                      A
 Frequencies --     41.7181                51.9728               114.6331
 Red. masses --      6.7063                 6.8435                 3.3236
 Frc consts  --      0.0069                 0.0109                 0.0257
 IR Inten    --     11.9143                24.2385                18.3527

                      4                      5                      6
                      A                      A                      A
 Frequencies --    132.0874               188.3191               218.4456
 Red. masses --      2.9574                 4.1474                 1.7342
 Frc consts  --      0.0304                 0.0867                 0.0488
 IR Inten    --     27.7382                24.9826                68.7335

                      7                      8                      9
                      A                      A                      A
 Frequencies --    220.9159               253.1269               324.9851
 Red. masses --      4.8057                 5.9019                 6.2242
 Frc consts  --      0.1382                 0.2228                 0.3873
 IR Inten    --      1.1487                 0.0354                 0.9614

                     10                     11                     12
                      A                      A                      A
 Frequencies --    348.2397               388.5160               420.4982
 Red. masses --      6.5556                 7.3508                11.6319
 Frc consts  --      0.4684                 0.6537                 1.2118
 IR Inten    --      0.2500                 4.9393                18.1577

                     13                     14                     15
                      A                      A                      A
 Frequencies --    427.1697               432.5343               450.8714
 Red. masses --      3.4518                 4.8747                 4.6427
 Frc consts  --      0.3711                 0.5373                 0.5561
 IR Inten    --      0.1934                 0.1217                 8.4213

                     16                     17                     18
                      A                      A                      A
 Frequencies --    485.2774               490.4722               556.3247
 Red. masses --      7.5550                 3.8565                 4.1851
 Frc consts  --      1.0482                 0.5466                 0.7631
 IR Inten    --      0.4186                 2.5216                11.7895

                     19                     20                     21
                      A                      A                      A
 Frequencies --    560.3787               622.2064               650.0558
 Red. masses --      6.1016                 6.4984                 1.0930
 Frc consts  --      1.1289                 1.4823                 0.2721
 IR Inten    --      0.2252                 2.7696                18.9949

                     22                     23                     24
                      A                      A                      A
 Frequencies --    669.9714               670.0383               703.6620
 Red. masses --      3.8679                 6.2090                 7.0580
 Frc consts  --      1.0229                 1.6424                 2.0590
 IR Inten    --      9.2196                 8.8215                 0.3089

                     25                     26                     27
                      A                      A                      A
 Frequencies --    726.5059               746.5612               789.0019
 Red. masses --      2.6293                 2.3012                 2.0880
 Frc consts  --      0.8177                 0.7557                 0.7658
 IR Inten    --     39.9936                46.6519                 4.5881

                     28                     29                     30
                      A                      A                      A
 Frequencies --    797.0670               811.7556               828.7082
 Red. masses --      6.4421                 2.6991                 2.2673
 Frc consts  --      2.4114                 1.0479                 0.9174
 IR Inten    --      1.5759                 1.6384                28.4480

                     31                     32                     33
                      A                      A                      A
 Frequencies --    892.7536               912.0959               918.0618
 Red. masses --      6.9615                 1.3688                 1.4396
 Frc consts  --      3.2690                 0.6709                 0.7149
 IR Inten    --     39.0061                 0.2920                 0.3572

                     34                     35                     36
                      A                      A                      A
 Frequencies --    929.3484               996.3116              1002.5233
 Red. masses --      6.4171                 1.3239                 1.3823
 Frc consts  --      3.2655                 0.7743                 0.8186
 IR Inten    --      2.9004                 0.1821                 2.1137

                     37                     38                     39
                      A                      A                      A
 Frequencies --   1016.7851              1017.2114              1056.3693
 Red. masses --      2.8412                 1.3237                 1.9078
 Frc consts  --      1.7307                 0.8070                 1.2543
 IR Inten    --     58.5455                 0.0121                 0.5596

                     40                     41                     42
                      A                      A                      A
 Frequencies --   1066.3903              1112.7863              1126.0797
 Red. masses --      2.5262                 2.3660                 1.7075
 Frc consts  --      1.6926                 1.7262                 1.2757
 IR Inten    --      5.0535                 0.9288                 1.3790

                     43                     44                     45
                      A                      A                      A
 Frequencies --   1176.4465              1187.1534              1195.7812
 Red. masses --      1.5572                 1.5795                 1.2117
 Frc consts  --      1.2698                 1.3115                 1.0208
 IR Inten    --      1.1423                18.2855                25.5657

                     46                     47                     48
                      A                      A                      A
 Frequencies --   1214.9499              1271.9515              1294.0526
 Red. masses --      1.8702                 1.7980                 5.2169
 Frc consts  --      1.6265                 1.7139                 5.1471
 IR Inten    --      5.1225                 9.3487               744.7003

                     49                     50                     51
                      A                      A                      A
 Frequencies --   1320.5942              1358.1791              1360.9213
 Red. masses --      2.2523                 7.6166                 3.9147
 Frc consts  --      2.3143                 8.2780                 4.2719
 IR Inten    --     15.8486                12.4383                 3.5305

                     52                     53                     54
                      A                      A                      A
 Frequencies --   1393.4318              1473.6100              1478.1739
 Red. masses --      5.8518                 2.4555                 2.8762
 Frc consts  --      6.6944                 3.1416                 3.7027
 IR Inten    --     50.0756                44.0051                13.2244

                     55                     56                     57
                      A                      A                      A
 Frequencies --   1487.1707              1507.9022              1575.7817
 Red. masses --      2.5920                 2.6114                 3.0814
 Frc consts  --      3.3776                 3.4984                 4.5081
 IR Inten    --      2.2233                 0.0063               161.3518

                     58                     59                     60
                      A                      A                      A
 Frequencies --   1606.5859              1613.1684              1629.1561
 Red. masses --      2.7391                 5.5698                 5.5025
 Frc consts  --      4.1654                 8.5398                 8.6047
 IR Inten    --     82.8452                11.1018                60.2511

                     61                     62                     63
                      A                      A                      A
 Frequencies --   1640.8184              1676.9246              1720.5952
 Red. masses --      3.2570                 7.7023                11.9997
 Frc consts  --      5.1664                12.7614                20.9304
 IR Inten    --    264.4241               167.9776               168.2956

                     64                     65                     66
                      A                      A                      A
 Frequencies --   3157.9187              3168.7816              3179.0938
 Red. masses --      1.0877                 1.0870                 1.0934
 Frc consts  --      6.3907                 6.4306                 6.5108
 IR Inten    --      9.5379                 3.6278                18.5839

                     67                     68                     69
                      A                      A                      A
 Frequencies --   3183.5875              3200.7527              3204.5528
 Red. masses --      1.0921                 1.0930                 1.0938
 Frc consts  --      6.5215                 6.5973                 6.6180
 IR Inten    --     12.7920                 3.1332                 9.2915

                     70                     71                     72
                      A                      A                      A
 Frequencies --   3211.0970              3515.9418              3703.5978
 Red. masses --      1.0926                 1.0527                 1.0982
 Frc consts  --      6.6375                 7.6674                 8.8750
 IR Inten    --      2.4258                71.3558                83.0803

 - Thermochemistry -
 -------------------
 Temperature   298.150 Kelvin.  Pressure   1.00000 Atm.
 Atom     1 has atomic number  7 and mass  14.00307

 Molecular mass:   223.06333 amu.
 Principal axes and moments of inertia in atomic units:
                           1         2         3
     Eigenvalues --  1990.949994477.845406468.79465
           X            0.99519  -0.09337   0.02957
           Y            0.09592   0.99021  -0.10143
           Z           -0.01981   0.10377   0.99440
 This molecule is an asymmetric top.
 Rotational symmetry number  1.
 Warning -- assumption of classical behavior for rotation
           may cause significant error
 Rotational temperatures (Kelvin)      0.04350     0.01934     0.01339
 Rotational constants (GHZ):           0.90647     0.40304     0.27899
 Zero-point vibrational energy     513661.0 (Joules/Mol)
                                  122.76792 (Kcal/Mol)
 Warning -- explicit consideration of  19 degrees of freedom as
           vibrations may cause significant error
 Vibrational temperatures:     60.02    74.78   164.93   190.04   270.95
          (Kelvin)            314.29   317.85   364.19   467.58   501.04
                              558.99   605.00   614.60   622.32   648.70
                              698.21   705.68   800.43   806.26   895.22
                              935.29   963.94   964.04  1012.41  1045.28
                             1074.14  1135.20  1146.80  1167.94  1192.33
                             1284.47  1312.30  1320.89  1337.13  1433.47
                             1442.41  1462.93  1463.54  1519.88  1534.30
                             1601.05  1620.18  1692.64  1708.05  1720.46
                             1748.04  1830.05  1861.85  1900.04  1954.12
                             1958.06  2004.84  2120.20  2126.76  2139.71
                             2169.53  2267.20  2311.52  2320.99  2343.99
                             2360.77  2412.72  2475.55  4543.54  4559.17
                             4574.01  4580.47  4605.17  4610.64  4620.05
                             5058.66  5328.65

 Zero-point correction=                           0.195643 (Hartree/Particle)
 Thermal correction to Energy=                    0.208458
 Thermal correction to Enthalpy=                  0.209403
 Thermal correction to Gibbs Free Energy=         0.155994
 Sum of electronic and zero-point Energies=           -744.142571
 Sum of electronic and thermal Energies=              -744.129756
 Sum of electronic and thermal Enthalpies=            -744.128812
 Sum of electronic and thermal Free Energies=         -744.182221

                     E (Thermal)             CV                S
                      KCal/Mol        Cal/Mol-Kelvin    Cal/Mol-Kelvin
 Total                  130.810             51.539            112.409
 Electronic               0.000              0.000              0.000
 Translational            0.889              2.981             42.109
 Rotational               0.889              2.981             32.422
 Vibrational            129.032             45.577             37.877
 Vibration     1          0.594              1.981              5.176
 Vibration     2          0.596              1.977              4.741
 Vibration     3          0.608              1.937              3.189
 Vibration     4          0.612              1.921              2.915
 Vibration     5          0.633              1.856              2.244
 Vibration     6          0.646              1.813              1.972
 Vibration     7          0.648              1.809              1.952
 Vibration     8          0.664              1.758              1.709
 Vibration     9          0.709              1.626              1.285
 Vibration    10          0.726              1.579              1.174
 Vibration    11          0.757              1.495              1.006
 Vibration    12          0.783              1.426              0.890
 Vibration    13          0.789              1.411              0.868
 Vibration    14          0.793              1.399              0.850
 Vibration    15          0.810              1.359              0.793
 Vibration    16          0.841              1.283              0.696
 Vibration    17          0.846              1.271              0.682
 Vibration    18          0.912              1.126              0.531
 Vibration    19          0.916              1.117              0.523

                           ! Non-Optimized Parameters !
 Normal termination of Gaussian 16 at Thu Dec 21 08:29:12 2023.
