 Q-Chem 5.4, Q-Chem, Inc., Pleasanton, CA (2021)
 Q-Chem 5.4.0 for Intel X86 EM64T Linux

User input:
--------------------------------------------------------------
$molecule
-1 2
C                  0.8028010000      1.6574700000     -0.7056460000
C                 -0.5241430000      1.0145160000     -0.6246930000
C                 -0.6511680000     -0.2467360000     -0.0548040000
C                  0.5514430000     -0.9823610000      0.3848720000
C                  1.8478690000     -0.3408120000      0.2723350000
C                  1.9675190000      0.9256540000     -0.2442910000
C                  3.3101780000      1.6058250000     -0.3581460000
C                  3.0536950000     -1.1145230000      0.7473360000
O                  0.9346150000      2.8319350000     -1.1700300000
O                  0.4644500000     -2.1583880000      0.8557840000
H                  4.0149660000      1.0117110000     -0.9534670000
H                  3.7752730000      1.7493760000      0.6260040000
H                  3.1845580000      2.5810030000     -0.8280150000
H                  2.7327120000     -2.0727740000      1.1551010000
H                  3.6072570000     -0.5659650000      1.5198230000
H                  3.7613620000     -1.3024540000     -0.0708390000
C                 -1.9206210000     -1.0705150000      0.2020480000
C                 -3.1226220000     -0.3653480000      0.8510900000
C                 -2.3286040000     -1.9454640000     -1.0027880000
C                 -1.6101200000      1.9243520000     -1.2154730000
C                 -2.2759220000      2.8360860000     -0.1624220000
C                 -2.6288520000      1.3003100000     -2.1830020000
H                 -1.5784620000     -1.7934120000      0.9459750000
H                 -3.8348490000     -1.1229670000      1.2017300000
H                 -3.6682770000      0.3034320000      0.1854170000
H                 -2.8052810000      0.2163290000      1.7214460000
H                 -3.1378120000     -2.6306990000     -0.7179420000
H                 -1.4764260000     -2.5513700000     -1.3201100000
H                 -2.6697340000     -1.3614450000     -1.8593890000
H                 -1.0237370000      2.6149610000     -1.8256230000
H                 -2.9228880000      3.5745260000     -0.6539950000
H                 -1.5058950000      3.3827620000      0.3873600000
H                 -2.8830470000      2.2851640000      0.5579770000
H                 -3.1602510000      2.1031620000     -2.7095590000
H                 -3.3839420000      0.6765390000     -1.7045640000
H                 -2.1219150000      0.6910400000     -2.9369290000
$end
$rem
MAX_SCF_CYCLES=200
BASIS  =  6-311++G(d,p)
GUI  =  2
JOB_TYPE  =  SP
METHOD  =  B3LYP
SOLVENT_METHOD = COSMO
$end
$solvent
dielectric 37.219
opticaldielectric 1.43
$end

--------------------------------------------------------------

             Standard Nuclear Orientation (Angstroms)
    I     Atom           X                Y                Z
 ----------------------------------------------------------------
    1      C       0.8955612434    -1.4302422763     0.1007940669
    2      C      -0.3827106440    -0.6914077203     0.0713306277
    3      C      -0.3827132360     0.6910266600    -0.0719893451
    4      C       0.8955591460     1.4298677607    -0.1014153233
    5      C       2.1392540408     0.6848358895    -0.0455530911
    6      C       2.1392448578    -0.6851713938     0.0451922613
    7      C       3.4270999330    -1.4708135644     0.0954359230
    8      C       3.4270448722     1.4705682795    -0.0954568953
    9      O       0.9182529141    -2.6977477297     0.1736671065
   10      O       0.9181879061     2.6973517447    -0.1744748060
   11      H       4.0624374189    -1.1522743595     0.9314883836
   12      H       4.0201860598    -1.3335402045    -0.8182797560
   13      H       3.2015284589    -2.5311446755     0.2065432503
   14      H       3.2014003868     2.5307506667    -0.2079079180
   15      H       4.0632835444     1.1511134330    -0.9304610183
   16      H       4.0192375486     1.3345304501     0.8190498118
   17      C      -1.5728641447     1.6517200634    -0.2012360437
   18      C      -2.6966509290     1.2844972359    -1.1838718247
   19      C      -2.1139029505     2.1321742462     1.1626028238
   20      C      -1.5730983585    -1.6518529903     0.2005226254
   21      C      -2.1171398903    -2.1297401843    -1.1629693035
   22      C      -2.6942298416    -1.2855370440     1.1865411327
   23      H      -1.1037248572     2.5425775303    -0.6247470091
   24      H      -3.3246959114     2.1679605566    -1.3549107657
   25      H      -3.3541950580     0.4856059553    -0.8410379721
   26      H      -2.2816055809     0.9832733387    -2.1500884320
   27      H      -2.8497610304     2.9341482333     1.0181990619
   28      H      -1.2932931333     2.5377248466     1.7593866328
   29      H      -2.5928023478     1.3371024929     1.7368235278
   30      H      -1.1035567728    -2.5436830405     0.6215198901
   31      H      -2.8530187042    -2.9316535299    -1.0183317893
   32      H      -1.2979054249    -2.5347165195    -1.7620565558
   33      H      -2.5967958423    -1.3336613071    -1.7350524477
   34      H      -3.3230055044    -2.1685536071     1.3572497159
   35      H      -3.3516023866    -0.4850214938     0.8471441979
   36      H      -2.2763620168    -0.9869206565     2.1523649833
 ----------------------------------------------------------------

    9    -696.2246899600      8.79e-06  Convergence criterion met
 Total energy in the final basis set =     -696.2246899600
    4    -696.3036015509      4.93e-06  Convergence criterion met
 Total energy in the final basis set =     -696.3036015509

                    Orbital Energies (a.u.)
 --------------------------------------------------------------

 Alpha MOs
 -- Occupied --
-19.0684 -19.0684 -10.2095 -10.2095 -10.1625 -10.1619 -10.1582 -10.1580
-10.1580 -10.1576 -10.1476 -10.1476 -10.1456 -10.1456 -10.1450 -10.1450
 -0.9932  -0.9907  -0.8233  -0.7981  -0.7749  -0.7344  -0.7160  -0.6763
 -0.6706  -0.6557  -0.6536  -0.5924  -0.5728  -0.5345  -0.5100  -0.4904
 -0.4551  -0.4344  -0.4289  -0.4285  -0.4259  -0.4174  -0.4054  -0.4021
 -0.4013  -0.3908  -0.3823  -0.3803  -0.3778  -0.3700  -0.3660  -0.3589
 -0.3577  -0.3504  -0.3320  -0.3312  -0.3279  -0.3171  -0.3054  -0.3000
 -0.2631  -0.2411  -0.2264  -0.2211  -0.1510

 Beta MOs
 -- Occupied --
-19.0620 -19.0619 -10.2077 -10.2077 -10.1615 -10.1609 -10.1581 -10.1581
-10.1572 -10.1566 -10.1477 -10.1477 -10.1455 -10.1455 -10.1449 -10.1449
 -0.9819  -0.9791  -0.8185  -0.7966  -0.7741  -0.7323  -0.7132  -0.6761
 -0.6704  -0.6541  -0.6466  -0.5884  -0.5723  -0.5304  -0.5076  -0.4886
 -0.4526  -0.4319  -0.4286  -0.4251  -0.4229  -0.4150  -0.4036  -0.3995
 -0.3967  -0.3862  -0.3813  -0.3799  -0.3773  -0.3656  -0.3599  -0.3533
 -0.3493  -0.3379  -0.3305  -0.3288  -0.3241  -0.3155  -0.3033  -0.2988
 -0.2352  -0.2345  -0.2196  -0.2156

          Ground-State Mulliken Net Atomic Charges

     Atom                 Charge (a.u.)    Spin (a.u.)
  --------------------------------------------------------
      1 C                    -1.468830       0.082886
      2 C                     0.793504       0.084184
      3 C                     0.793756       0.084318
      4 C                    -1.468322       0.082821
      5 C                     0.808063       0.096009
      6 C                     0.808369       0.095933
      7 C                    -0.508080      -0.001728
      8 C                    -0.507727      -0.001724
      9 O                    -0.482686       0.232558
     10 O                    -0.482634       0.232511
     11 H                     0.155380       0.003185
     12 H                     0.157957       0.003436
     13 H                     0.184508      -0.001174
     14 H                     0.184503      -0.001171
     15 H                     0.155232       0.003179
     16 H                     0.158034       0.003440
     17 C                     0.151179      -0.007363
     18 C                    -0.658202      -0.000491
     19 C                    -0.715695       0.009411
     20 C                     0.152455      -0.007278
     21 C                    -0.715588       0.009355
     22 C                    -0.659262      -0.000476
     23 H                     0.207635      -0.000058
     24 H                     0.160943      -0.000352
     25 H                     0.126421      -0.000070
     26 H                     0.146313       0.000259
     27 H                     0.146925       0.000980
     28 H                     0.173058      -0.001498
     29 H                     0.121062      -0.000163
     30 H                     0.207700      -0.000089
     31 H                     0.146902       0.000970
     32 H                     0.173006      -0.001485
     33 H                     0.120630      -0.000160
     34 H                     0.160881      -0.000350
     35 H                     0.126348      -0.000066
     36 H                     0.146262       0.000261
  --------------------------------------------------------
  Sum of atomic charges =    -1.000000

                    Cartesian Multipole Moments
 -----------------------------------------------------------------
    Charge (ESU x 10^10)
                -4.8032
    Dipole Moment (Debye)
         X      -3.7246      Y       0.0015      Z       0.0023
       Tot       3.7246
    Quadrupole Moments (Debye-Ang)
        XX    -106.5617     XY      -0.0003     YY    -143.3249
        XZ       0.0048     YZ       1.5646     ZZ    -104.9732

 Total job time:  110.40s(wall), 843.82s(cpu)
        *  Thank you very much for using Q-Chem.  Have a nice day.  *
