 Gaussian 16, Revision A.03,
 Gaussian 16:  ES64L-G16RevA.03 25-Dec-2016

 ----------------------------------------------------------------------
 #P UB3LYP/6-311++G(d,p) nosym opt freq SCRF=(PCM,Solvent=n,n-DiMethylF
 ormamide)
 ----------------------------------------------------------------------

 --------
 Oxidized
 --------
 Symbolic Z-matrix:
 Charge =  0 Multiplicity = 1

 SCF Done:  E(UB3LYP) =  -841.190788086     A.U. after   15 cycles
 SCF Done:  E(UB3LYP) =  -841.190860475     A.U. after   11 cycles
 SCF Done:  E(UB3LYP) =  -841.190869749     A.U. after   10 cycles
 SCF Done:  E(UB3LYP) =  -841.190868534     A.U. after    9 cycles
 SCF Done:  E(UB3LYP) =  -841.190869386     A.U. after   10 cycles
 Optimization completed.
    -- Stationary point found.
 Normal termination of Gaussian 16 at Sat Feb 10 10:07:46 2024.

 ----------------------------------------------------------------------
 #P Geom=AllCheck Guess=TCheck SCRF=Check GenChk UB3LYP/6-311++G(d,p) F
 req
 ----------------------------------------------------------------------

 Structure from the checkpoint file:  "003.chk"
 --------
 Oxidized
 --------
 Charge =  0 Multiplicity = 1

                          Input orientation:
 ---------------------------------------------------------------------
 Center     Atomic      Atomic             Coordinates (Angstroms)
 Number     Number       Type             X           Y           Z
 ---------------------------------------------------------------------
      1         17           0        3.106843   -0.187746    0.031393
      2          6           0        1.378151   -0.023319    0.014091
      3          6           0        0.782681    1.176709    0.012127
      4          6           0       -0.693417    1.290305   -0.003288
      5          8           0       -1.235158    2.387221   -0.004350
      6          6           0       -1.487231    0.039152   -0.015354
      7          6           0       -0.889156   -1.157832   -0.013195
      8          6           0        0.585348   -1.298477    0.001529
      9          8           0        1.121001   -2.390961    0.003831
     10          1           0        1.343408    2.102839    0.021359
     11          1           0       -2.565215    0.148718   -0.026079
     12          1           0       -1.447255   -2.086608   -0.022065
 ---------------------------------------------------------------------

 SCF Done:  E(UB3LYP) =  -841.190869386     A.U. after    1 cycles

 Alpha  occ. eigenvalues -- -101.58142 -19.15827 -19.15257 -10.30682 -10.29941
 Alpha  occ. eigenvalues --  -10.27964 -10.22478 -10.22333 -10.22210  -9.49586
 Alpha  occ. eigenvalues --   -7.26059  -7.25094  -7.24996  -1.09011  -1.08067
 Alpha  occ. eigenvalues --   -0.91529  -0.85996  -0.79029  -0.72129  -0.65095
 Alpha  occ. eigenvalues --   -0.61815  -0.54258  -0.52499  -0.49984  -0.47681
 Alpha  occ. eigenvalues --   -0.46877  -0.46357  -0.44670  -0.43377  -0.42307
 Alpha  occ. eigenvalues --   -0.38475  -0.34225  -0.32213  -0.30609  -0.29657
 Alpha  occ. eigenvalues --   -0.29550
 Alpha virt. eigenvalues --   -0.14885  -0.04466  -0.01448  -0.00430  -0.00135
 Alpha virt. eigenvalues --    0.01177   0.01915   0.04298   0.04828   0.04969
 Alpha virt. eigenvalues --    0.05879   0.07263   0.07897   0.08278   0.08586

  Beta  occ. eigenvalues -- -101.58142 -19.15827 -19.15257 -10.30682 -10.29941
  Beta  occ. eigenvalues --  -10.27964 -10.22478 -10.22333 -10.22210  -9.49586
  Beta  occ. eigenvalues --   -7.26059  -7.25094  -7.24996  -1.09011  -1.08067
  Beta  occ. eigenvalues --   -0.91529  -0.85996  -0.79029  -0.72129  -0.65095
  Beta  occ. eigenvalues --   -0.61815  -0.54258  -0.52499  -0.49984  -0.47681
  Beta  occ. eigenvalues --   -0.46877  -0.46357  -0.44670  -0.43377  -0.42307
  Beta  occ. eigenvalues --   -0.38475  -0.34225  -0.32213  -0.30609  -0.29657
  Beta  occ. eigenvalues --   -0.29550
  Beta virt. eigenvalues --   -0.14885  -0.04466  -0.01448  -0.00430  -0.00135
  Beta virt. eigenvalues --    0.01177   0.01915   0.04298   0.04828   0.04969
  Beta virt. eigenvalues --    0.05879   0.07263   0.07897   0.08278   0.08586

 Mulliken charges and spin densities:
               1          2
     1  Cl   0.304998  -0.000000
     2  C    0.997570   0.000000
     3  C   -0.304864  -0.000000
     4  C   -0.547328   0.000000
     5  O   -0.286039  -0.000000
     6  C    0.139918   0.000000
     7  C    0.077911  -0.000000
     8  C   -0.901394  -0.000000
     9  O   -0.237485   0.000000
    10  H    0.250901  -0.000000
    11  H    0.252249   0.000000
    12  H    0.253562  -0.000000
 Sum of Mulliken charges =  -0.00000  -0.00000

 Dipole moment (field-independent basis, Debye):
    X=             -1.5543    Y=             -0.0789    Z=             -0.0186  Tot=              1.5564
 Quadrupole moment (field-independent basis, Debye-Ang):
   XX=            -58.1028   YY=            -71.4907   ZZ=            -57.4472
   XY=             12.2612   XZ=              0.0355   YZ=              0.0794

  Exact polarizability: 142.858 -42.676 162.158   0.734  -0.084  57.818
 Approx polarizability: 164.085 -72.859 223.144   0.745  -0.219  67.765

                      1                      2                      3
                      A                      A                      A
 Frequencies --     79.4807               146.8936               234.4949
 Red. masses --      8.2350                 6.7710                16.4084
 Frc consts  --      0.0307                 0.0861                 0.5316
 IR Inten    --     17.2422                 4.7219                 0.1786

                      4                      5                      6
                      A                      A                      A
 Frequencies --    256.6585               342.5679               391.6718
 Red. masses --      4.8575                17.9718                 3.7486
 Frc consts  --      0.1885                 1.2426                 0.3388
 IR Inten    --      0.0378                 3.8214                 0.7621

                      7                      8                      9
                      A                      A                      A
 Frequencies --    431.6684               468.0648               559.8303
 Red. masses --      8.8661                10.7410                 5.5610
 Frc consts  --      0.9734                 1.3865                 1.0269
 IR Inten    --     37.2497                 8.4073                20.0662

                     10                     11                     12
                      A                      A                      A
 Frequencies --    599.5623               641.1647               781.8445
 Red. masses --      2.4190                 7.5759                 3.9499
 Frc consts  --      0.5123                 1.8350                 1.4226
 IR Inten    --      1.6999                17.5273                 0.5661

                     13                     14                     15
                      A                      A                      A
 Frequencies --    785.1692               836.6858               850.6272
 Red. masses --      5.2974                 2.0059                 5.5426
 Frc consts  --      1.9242                 0.8273                 2.3629
 IR Inten    --      0.7159                23.7448                32.7636

                     16                     17                     18
                      A                      A                      A
 Frequencies --    916.9692               990.4872              1005.9171
 Red. masses --      1.5803                 4.6652                 1.2479
 Frc consts  --      0.7829                 2.6966                 0.7440
 IR Inten    --     81.3662               273.3077                 0.0001

                     19                     20                     21
                      A                      A                      A
 Frequencies --   1114.4400              1209.2354              1286.2731
 Red. masses --      1.5427                 1.7229                 3.1099
 Frc consts  --      1.1288                 1.4844                 3.0316
 IR Inten    --     44.1656                 7.1504               174.1334

                     22                     23                     24
                      A                      A                      A
 Frequencies --   1324.6786              1387.0067              1629.2102
 Red. masses --      2.0017                 1.7567                 8.5480
 Frc consts  --      2.0696                 1.9912                13.3680
 IR Inten    --     42.1270                 8.2250               193.0556

                     25                     26                     27
                      A                      A                      A
 Frequencies --   1672.6933              1697.6635              1719.8972
 Red. masses --      9.1563                 9.5826                11.2494
 Frc consts  --     15.0939                16.2718                19.6059
 IR Inten    --     26.5431               863.5432               288.1297

                     28                     29                     30
                      A                      A                      A
 Frequencies --   3189.1332              3204.3712              3207.1378
 Red. masses --      1.0879                 1.0992                 1.0946
 Frc consts  --      6.5192                 6.6498                 6.6333
 IR Inten    --      1.5885                 0.5114                 0.5229

 - Thermochemistry -
 -------------------
 Temperature   298.150 Kelvin.  Pressure   1.00000 Atm.
 Atom     1 has atomic number 17 and mass  34.96885

 Molecular mass:   141.98216 amu.
 Principal axes and moments of inertia in atomic units:
                           1         2         3
     Eigenvalues --   761.470421607.145212368.61557
           X            0.88307   0.46914  -0.01033
           Y           -0.46919   0.88309  -0.00337
           Z            0.00754   0.00782   0.99994
 This molecule is an asymmetric top.
 Rotational symmetry number  1.
 Warning -- assumption of classical behavior for rotation
           may cause significant error
 Rotational temperatures (Kelvin)      0.11375     0.05389     0.03657
 Rotational constants (GHZ):           2.37007     1.12295     0.76194
 Zero-point vibrational energy     197153.5 (Joules/Mol)
                                   47.12083 (Kcal/Mol)
 Warning -- explicit consideration of  10 degrees of freedom as
           vibrations may cause significant error
 Vibrational temperatures:    114.36   211.35   337.39   369.27   492.88
          (Kelvin)            563.53   621.07   673.44   805.47   862.64
                              922.49  1124.90  1129.68  1203.80  1223.86
                             1319.31  1425.09  1447.29  1603.43  1739.82
                             1850.66  1905.92  1995.59  2344.07  2406.63
                             2442.56  2474.55  4588.45  4610.38  4614.36

 Zero-point correction=                           0.075092 (Hartree/Particle)
 Thermal correction to Energy=                    0.082535
 Thermal correction to Enthalpy=                  0.083480
 Thermal correction to Gibbs Free Energy=         0.042233
 Sum of electronic and zero-point Energies=           -841.115778
 Sum of electronic and thermal Energies=              -841.108334
 Sum of electronic and thermal Enthalpies=            -841.107390
 Sum of electronic and thermal Free Energies=         -841.148636

                     E (Thermal)             CV                S
                      KCal/Mol        Cal/Mol-Kelvin    Cal/Mol-Kelvin
 Total                   51.792             27.051             86.811
 Electronic               0.000              0.000              0.000
 Translational            0.889              2.981             40.763
 Rotational               0.889              2.981             29.451
 Vibrational             50.014             21.089             16.597
 Vibration     1          0.600              1.963              3.904
 Vibration     2          0.617              1.906              2.712
 Vibration     3          0.654              1.788              1.844
 Vibration     4          0.666              1.752              1.684
 Vibration     5          0.722              1.590              1.200
 Vibration     6          0.759              1.488              0.994
 Vibration     7          0.793              1.401              0.853
 Vibration     8          0.825              1.321              0.743
 Vibration     9          0.915              1.118              0.524
 Vibration    10          0.958              1.033              0.450

 Optimization completed.
    -- Stationary point found.
 Normal termination of Gaussian 16 at Sat Feb 10 10:13:50 2024.
