 Q-Chem 5.4, Q-Chem, Inc., Pleasanton, CA (2021)
 Q-Chem 5.4.0 for Intel X86 EM64T Linux

User input:
--------------------------------------------------------------
$molecule
-1 2
C                 -1.6215400000      3.3894640000     -0.3364540000
C                 -2.6193650000      3.4372750000      0.6190250000
C                 -2.6261370000      2.5078830000      1.6787790000
C                 -0.6007850000      2.4166020000     -0.2668860000
C                 -0.6052640000      1.4770500000      0.8021330000
C                 -1.6313150000      1.5470920000      1.7608710000
C                  0.4443930000      2.3650380000     -1.2648090000
C                  1.4468560000      1.3359000000     -1.1092320000
C                  1.4767320000      0.4056770000     -0.0885500000
C                  0.4387610000      0.4365890000      0.9261440000
O                  0.5470660000      3.1534250000     -2.2617880000
O                  0.4103270000     -0.3808260000      1.8828290000
O                  2.3927780000      1.3634600000     -2.0946460000
C                  2.5565980000     -0.6491780000      0.0268260000
C                  2.5686500000     -1.6449540000     -1.1677640000
C                  3.9721930000     -0.0743820000      0.2312990000
C                  4.9754350000     -1.1853910000      0.6146220000
C                  4.6784450000     -2.5573830000     -0.0555290000
C                  3.9480600000     -2.3055350000     -1.3865500000
C                  5.9549540000     -3.4260120000     -0.1876090000
C                  5.6832300000     -4.8146450000     -0.8030720000
C                  6.6737980000     -3.6063230000      1.1666220000
C                  7.9441860000     -4.4628010000      1.0618920000
C                  7.6566630000     -5.8332680000      0.4373730000
C                  6.9499000000     -5.6769680000     -0.9142920000
H                 -1.5941970000      4.0929730000     -1.1609190000
H                 -3.3988690000      4.1909570000      0.5540120000
H                 -3.4102260000      2.5459620000      2.4291200000
H                 -1.6120480000      0.8203190000      2.5649210000
H                  2.0864420000      2.1207170000     -2.6440590000
H                  2.3033460000     -1.2082210000      0.9321140000
H                  2.2746080000     -1.1298810000     -2.0843870000
H                  1.8159290000     -2.4191850000     -0.9804550000
H                  3.9508780000      0.6864400000      1.0171850000
H                  4.2912320000      0.4341300000     -0.6823510000
H                  4.9788120000     -1.3090540000      1.7024350000
H                  5.9882950000     -0.8628080000      0.3373300000
H                  3.9848820000     -3.1095970000      0.5956900000
H                  3.8110790000     -3.2324170000     -1.9501980000
H                  4.5758450000     -1.6568210000     -2.0115350000
H                  6.6452440000     -2.8925630000     -0.8614890000
H                  5.2333570000     -4.7118150000     -1.7932700000
H                  4.9438720000     -5.3369590000     -0.1793900000
H                  5.9762510000     -4.0804630000      1.8718220000
H                  6.9273730000     -2.6329540000      1.5930660000
H                  8.3973180000     -4.5835470000      2.0527170000
H                  8.6842710000     -3.9353330000      0.4447850000
H                  7.0144510000     -6.4110800000      1.1156570000
H                  8.5844230000     -6.4057640000      0.3216230000
H                  6.6975340000     -6.6603650000     -1.3277070000
H                  7.6413650000     -5.2090690000     -1.6281950000
$end

$rem
BASIS  =  6-311++G(d,p)
GUI  =  2
JOB_TYPE  =  SP
METHOD  =  B3LYP
SCF_CONVERGENCE  = 8
SOLVENT_METHOD = sm12
$end

$smx
solvent dimethylformamide
charges CM5
$end

--------------------------------------------------------------

             Standard Nuclear Orientation (Angstroms)
    I     Atom           X                Y                Z
 ----------------------------------------------------------------
    1      C      -1.6215400000     3.3894640000    -0.3364540000
    2      C      -2.6193650000     3.4372750000     0.6190250000
    3      C      -2.6261370000     2.5078830000     1.6787790000
    4      C      -0.6007850000     2.4166020000    -0.2668860000
    5      C      -0.6052640000     1.4770500000     0.8021330000
    6      C      -1.6313150000     1.5470920000     1.7608710000
    7      C       0.4443930000     2.3650380000    -1.2648090000
    8      C       1.4468560000     1.3359000000    -1.1092320000
    9      C       1.4767320000     0.4056770000    -0.0885500000
   10      C       0.4387610000     0.4365890000     0.9261440000
   11      O       0.5470660000     3.1534250000    -2.2617880000
   12      O       0.4103270000    -0.3808260000     1.8828290000
   13      O       2.3927780000     1.3634600000    -2.0946460000
   14      C       2.5565980000    -0.6491780000     0.0268260000
   15      C       2.5686500000    -1.6449540000    -1.1677640000
   16      C       3.9721930000    -0.0743820000     0.2312990000
   17      C       4.9754350000    -1.1853910000     0.6146220000
   18      C       4.6784450000    -2.5573830000    -0.0555290000
   19      C       3.9480600000    -2.3055350000    -1.3865500000
   20      C       5.9549540000    -3.4260120000    -0.1876090000
   21      C       5.6832300000    -4.8146450000    -0.8030720000
   22      C       6.6737980000    -3.6063230000     1.1666220000
   23      C       7.9441860000    -4.4628010000     1.0618920000
   24      C       7.6566630000    -5.8332680000     0.4373730000
   25      C       6.9499000000    -5.6769680000    -0.9142920000
   26      H      -1.5941970000     4.0929730000    -1.1609190000
   27      H      -3.3988690000     4.1909570000     0.5540120000
   28      H      -3.4102260000     2.5459620000     2.4291200000
   29      H      -1.6120480000     0.8203190000     2.5649210000
   30      H       2.0864420000     2.1207170000    -2.6440590000
   31      H       2.3033460000    -1.2082210000     0.9321140000
   32      H       2.2746080000    -1.1298810000    -2.0843870000
   33      H       1.8159290000    -2.4191850000    -0.9804550000
   34      H       3.9508780000     0.6864400000     1.0171850000
   35      H       4.2912320000     0.4341300000    -0.6823510000
   36      H       4.9788120000    -1.3090540000     1.7024350000
   37      H       5.9882950000    -0.8628080000     0.3373300000
   38      H       3.9848820000    -3.1095970000     0.5956900000
   39      H       3.8110790000    -3.2324170000    -1.9501980000
   40      H       4.5758450000    -1.6568210000    -2.0115350000
   41      H       6.6452440000    -2.8925630000    -0.8614890000
   42      H       5.2333570000    -4.7118150000    -1.7932700000
   43      H       4.9438720000    -5.3369590000    -0.1793900000
   44      H       5.9762510000    -4.0804630000     1.8718220000
   45      H       6.9273730000    -2.6329540000     1.5930660000
   46      H       8.3973180000    -4.5835470000     2.0527170000
   47      H       8.6842710000    -3.9353330000     0.4447850000
   48      H       7.0144510000    -6.4110800000     1.1156570000
   49      H       8.5844230000    -6.4057640000     0.3216230000
   50      H       6.6975340000    -6.6603650000    -1.3277070000
   51      H       7.6413650000    -5.2090690000    -1.6281950000
 ----------------------------------------------------------------

   17   -1080.0555399129      9.54e-09  Convergence criterion met
 Total energy in the final basis set =    -1080.1438207434

                    Orbital Energies (a.u.)
 --------------------------------------------------------------

 Alpha MOs
 -- Occupied --
-19.1418 -19.0849 -19.0724 -10.2239 -10.2225 -10.2202 -10.1809 -10.1795
-10.1791 -10.1779 -10.1772 -10.1764 -10.1700 -10.1691 -10.1660 -10.1637
-10.1633 -10.1629 -10.1625 -10.1623 -10.1614 -10.1610 -10.1603 -10.1600
-10.1591  -1.0623  -0.9980  -0.9940  -0.8631  -0.8456  -0.8259  -0.8030
 -0.7706  -0.7564  -0.7428  -0.7405  -0.7337  -0.7068  -0.6726  -0.6359
 -0.6221  -0.6201  -0.6029  -0.5979  -0.5799  -0.5734  -0.5537  -0.5440
 -0.5253  -0.5082  -0.4885  -0.4819  -0.4781  -0.4622  -0.4565  -0.4458
 -0.4405  -0.4379  -0.4337  -0.4329  -0.4284  -0.4201  -0.4125  -0.4031
 -0.3946  -0.3895  -0.3878  -0.3850  -0.3812  -0.3760  -0.3728  -0.3653
 -0.3590  -0.3530  -0.3523  -0.3475  -0.3425  -0.3407  -0.3387  -0.3323
 -0.3201  -0.3141  -0.3124  -0.2967  -0.2896  -0.2840  -0.2697  -0.2630
 -0.2583  -0.2364  -0.2291  -0.1510

 Beta MOs
 -- Occupied --
-19.1414 -19.0782 -19.0667 -10.2229 -10.2216 -10.2176 -10.1809 -10.1788
-10.1786 -10.1775 -10.1770 -10.1757 -10.1700 -10.1691 -10.1660 -10.1633
-10.1630 -10.1629 -10.1625 -10.1623 -10.1614 -10.1610 -10.1603 -10.1599
-10.1590  -1.0601  -0.9882  -0.9829  -0.8609  -0.8454  -0.8252  -0.7998
 -0.7693  -0.7544  -0.7428  -0.7395  -0.7337  -0.7055  -0.6646  -0.6347
 -0.6215  -0.6190  -0.6013  -0.5979  -0.5790  -0.5712  -0.5536  -0.5427
 -0.5245  -0.5063  -0.4877  -0.4816  -0.4756  -0.4611  -0.4560  -0.4454
 -0.4401  -0.4368  -0.4325  -0.4282  -0.4230  -0.4190  -0.4071  -0.4010
 -0.3929  -0.3877  -0.3836  -0.3813  -0.3779  -0.3754  -0.3684  -0.3640
 -0.3535  -0.3516  -0.3485  -0.3443  -0.3413  -0.3387  -0.3321  -0.3252
 -0.3197  -0.3138  -0.3118  -0.2964  -0.2894  -0.2837  -0.2558  -0.2524
 -0.2497  -0.2311  -0.2188

          Ground-State Mulliken Net Atomic Charges

     Atom                 Charge (a.u.)    Spin (a.u.)
  --------------------------------------------------------
      1 C                     0.011878       0.076113
      2 C                     0.733941       0.004385
      3 C                     0.487396       0.074640
      4 C                    -0.505358       0.009177
      5 C                    -0.972844       0.062890
      6 C                    -0.260079      -0.005298
      7 C                    -1.241685       0.152491
      8 C                    -0.576180       0.045882
      9 C                     0.576712       0.063190
     10 C                    -2.147643       0.056140
     11 O                    -0.375878       0.246555
     12 O                    -0.300868       0.213957
     13 O                    -0.074512       0.016320
     14 C                     0.445226       0.006062
     15 C                    -0.913007      -0.010788
     16 C                    -2.342846      -0.003378
     17 C                     0.488279       0.000985
     18 C                     1.188389      -0.000067
     19 C                    -0.388140       0.005071
     20 C                     0.251309       0.000036
     21 C                     0.078380      -0.000073
     22 C                     0.330190      -0.000155
     23 C                     0.285343      -0.000168
     24 C                    -0.143439       0.000011
     25 C                     0.032215       0.000128
     26 H                     0.170760      -0.003943
     27 H                     0.354970      -0.000534
     28 H                     0.329978      -0.005564
     29 H                     0.158168       0.000054
     30 H                     0.306785      -0.004400
     31 H                     0.096538      -0.003077
     32 H                     0.055360       0.002080
     33 H                     0.140161      -0.000597
     34 H                     0.106847      -0.000383
     35 H                     0.075611       0.002625
     36 H                     0.136420       0.000024
     37 H                     0.236543      -0.000005
     38 H                     0.016391       0.000103
     39 H                     0.243602      -0.000101
     40 H                     0.144191      -0.000086
     41 H                     0.080067      -0.000023
     42 H                     0.148521      -0.000221
     43 H                     0.112020      -0.000010
     44 H                     0.100898      -0.000005
     45 H                     0.212498      -0.000033
     46 H                     0.230488       0.000013
     47 H                     0.151312      -0.000023
     48 H                     0.112636      -0.000000
     49 H                     0.245393       0.000000
     50 H                     0.233347      -0.000001
     51 H                     0.133715       0.000001
  --------------------------------------------------------
  Sum of atomic charges =    -1.000000

                    Cartesian Multipole Moments
 -----------------------------------------------------------------
    Charge (ESU x 10^10)
                -4.8032
    Dipole Moment (Debye)
         X      -2.9153      Y      -5.8145      Z       0.5983
       Tot       6.5319
    Quadrupole Moments (Debye-Ang)
        XX    -168.2977     XY       0.7560     YY    -180.8667
        XZ       2.2197     YZ      12.4823     ZZ    -175.1258

 Total job time:  4423.35s(wall), 25532.69s(cpu)
        *  Thank you very much for using Q-Chem.  Have a nice day.  *
