 Q-Chem 5.4, Q-Chem, Inc., Pleasanton, CA (2021)
 Q-Chem 5.4.0 for Intel X86 EM64T Linux

User input:
--------------------------------------------------------------
$molecule
-2 1
C                  2.8974570000      0.2627530000     -0.0818090000
C                  1.3957590000      0.1340250000     -0.0438020000
C                  0.7859610000     -0.9687950000      0.5757820000
C                 -0.6242900000     -1.1765340000      0.6616190000
O                 -1.1771340000     -2.2108890000      1.2431810000
C                 -1.3957580000     -0.1340400000      0.0438090000
C                 -0.7859530000      0.9687940000     -0.5757820000
C                  0.6242840000      1.1765350000     -0.6616200000
O                  1.1771470000      2.2108790000     -1.2431730000
C                 -2.8974550000     -0.2627480000      0.0818050000
H                  3.3800720000     -0.5880400000      0.4188810000
H                  3.2374120000      1.1933330000      0.4001050000
H                  3.2737980000      0.3220300000     -1.1155600000
H                  1.4164750000     -1.7365670000      1.0322850000
H                 -1.4164850000      1.7365500000     -1.0322880000
H                 -3.2738230000     -0.3219680000      1.1155540000
H                 -3.3800470000      0.5880310000     -0.4189290000
H                 -3.2374230000     -1.1933490000     -0.4000600000
$end
$rem
MAX_SCF_CYCLES=200
BASIS  =  6-311++G(d,p)
GUI  =  2
JOB_TYPE  =  SP
METHOD  =  B3LYP
SOLVENT_METHOD = PCM
$end
$pcm
theory = CPCM
$end
$solvent
dielectric 37.219
opticaldielectric 1.43
$end

--------------------------------------------------------------

             Standard Nuclear Orientation (Angstroms)
    I     Atom           X                Y                Z
 ----------------------------------------------------------------
    1      C       2.8974570000     0.2627530000    -0.0818090000
    2      C       1.3957590000     0.1340250000    -0.0438020000
    3      C       0.7859610000    -0.9687950000     0.5757820000
    4      C      -0.6242900000    -1.1765340000     0.6616190000
    5      O      -1.1771340000    -2.2108890000     1.2431810000
    6      C      -1.3957580000    -0.1340400000     0.0438090000
    7      C      -0.7859530000     0.9687940000    -0.5757820000
    8      C       0.6242840000     1.1765350000    -0.6616200000
    9      O       1.1771470000     2.2108790000    -1.2431730000
   10      C      -2.8974550000    -0.2627480000     0.0818050000
   11      H       3.3800720000    -0.5880400000     0.4188810000
   12      H       3.2374120000     1.1933330000     0.4001050000
   13      H       3.2737980000     0.3220300000    -1.1155600000
   14      H       1.4164750000    -1.7365670000     1.0322850000
   15      H      -1.4164850000     1.7365500000    -1.0322880000
   16      H      -3.2738230000    -0.3219680000     1.1155540000
   17      H      -3.3800470000     0.5880310000    -0.4189290000
   18      H      -3.2374230000    -1.1933490000    -0.4000600000
 ----------------------------------------------------------------

    9    -460.4861661492      5.63e-06  Convergence criterion met
 Total energy in the final basis set =     -460.4861661492

                    Orbital Energies (a.u.)
 --------------------------------------------------------------

 Alpha MOs
 -- Occupied --
-19.0129 -19.0129 -10.1599 -10.1599 -10.1378 -10.1378 -10.1242 -10.1242
-10.1155 -10.1155  -0.9206  -0.9172  -0.7797  -0.7374  -0.6793  -0.6526
 -0.6016  -0.5466  -0.4976  -0.4401  -0.4147  -0.3946  -0.3929  -0.3837
 -0.3736  -0.3568  -0.3507  -0.3369  -0.3270  -0.3128  -0.3042  -0.3010
 -0.2195  -0.1985  -0.1940  -0.1908  -0.1151

          Ground-State Mulliken Net Atomic Charges

     Atom                 Charge (a.u.)
  ----------------------------------------
      1 C                    -0.467047
      2 C                     1.008527
      3 C                    -0.627734
      4 C                    -0.653828
      5 O                    -0.779507
      6 C                     1.008568
      7 C                    -0.627660
      8 C                    -0.653804
      9 O                    -0.779496
     10 C                    -0.467091
     11 H                     0.135941
     12 H                     0.140786
     13 H                     0.140743
     14 H                     0.102071
     15 H                     0.102067
     16 H                     0.140743
     17 H                     0.135938
     18 H                     0.140783
  ----------------------------------------
  Sum of atomic charges =    -2.000000

                    Cartesian Multipole Moments
 -----------------------------------------------------------------
    Charge (ESU x 10^10)
                -9.6064
    Dipole Moment (Debye)
         X       0.0001      Y       0.0001      Z      -0.0001
       Tot       0.0002
    Quadrupole Moments (Debye-Ang)
        XX     -82.3194     XY     -21.5947     YY    -110.4942
        XZ      12.1074     YZ      23.1613     ZZ     -82.3679

 Total job time:  18.51s(wall), 109.11s(cpu)
        *  Thank you very much for using Q-Chem.  Have a nice day.  *
