 Gaussian 16, Revision A.03,
 Gaussian 16:  ES64L-G16RevA.03 25-Dec-2016

 ----------------------------------------------------------------------
 #P UB3LYP/6-311++G(d,p) nosym opt freq SCRF=(PCM,Solvent=n,n-DiMethylF
 ormamide)
 ----------------------------------------------------------------------

 --------
 Oxidized
 --------
 Symbolic Z-matrix:
 Charge =  0 Multiplicity = 1

 SCF Done:  E(UB3LYP) =  -1051.45963503     A.U. after   16 cycles
 SCF Done:  E(UB3LYP) =  -1051.45940971     A.U. after   15 cycles
 SCF Done:  E(UB3LYP) =  -1051.45981618     A.U. after   13 cycles
 SCF Done:  E(UB3LYP) =  -1051.45975129     A.U. after   12 cycles
 SCF Done:  E(UB3LYP) =  -1051.45989460     A.U. after   12 cycles
 SCF Done:  E(UB3LYP) =  -1051.45989622     A.U. after   12 cycles
 SCF Done:  E(UB3LYP) =  -1051.45991983     A.U. after   11 cycles
 SCF Done:  E(UB3LYP) =  -1051.45992657     A.U. after   11 cycles
 SCF Done:  E(UB3LYP) =  -1051.45992823     A.U. after   11 cycles
 SCF Done:  E(UB3LYP) =  -1051.45992971     A.U. after   11 cycles
 SCF Done:  E(UB3LYP) =  -1051.45993432     A.U. after   11 cycles
 SCF Done:  E(UB3LYP) =  -1051.45993843     A.U. after   12 cycles
 SCF Done:  E(UB3LYP) =  -1051.45994034     A.U. after   12 cycles
 SCF Done:  E(UB3LYP) =  -1051.45994122     A.U. after   11 cycles
 SCF Done:  E(UB3LYP) =  -1051.45994135     A.U. after   10 cycles
 SCF Done:  E(UB3LYP) =  -1051.45994138     A.U. after    9 cycles
 SCF Done:  E(UB3LYP) =  -1051.45994139     A.U. after    8 cycles
 SCF Done:  E(UB3LYP) =  -1051.45994139     A.U. after    8 cycles
 Optimization completed.
    -- Stationary point found.
 Normal termination of Gaussian 16 at Sun Feb 11 02:00:44 2024.

 ----------------------------------------------------------------------
 #P Geom=AllCheck Guess=TCheck SCRF=Check GenChk UB3LYP/6-311++G(d,p) F
 req
 ----------------------------------------------------------------------

 Structure from the checkpoint file:  "278.chk"
 --------
 Oxidized
 --------
 Charge =  0 Multiplicity = 1

                          Input orientation:
 ---------------------------------------------------------------------
 Center     Atomic      Atomic             Coordinates (Angstroms)
 Number     Number       Type             X           Y           Z
 ---------------------------------------------------------------------
      1          6           0        0.304239    3.901428    0.422610
      2          6           0       -0.827501    3.486340    1.119117
      3          6           0       -1.200448    2.140500    1.110676
      4          6           0        1.074922    2.968803   -0.275622
      5          6           0        0.703127    1.617265   -0.281636
      6          6           0       -0.440059    1.208827    0.408937
      7          6           0        2.267445    3.421026   -1.041726
      8          6           0        3.183956    2.370810   -1.593379
      9          6           0        2.816126    1.057730   -1.623934
     10          6           0        1.524776    0.620986   -1.019794
     11          8           0        2.476515    4.609243   -1.231744
     12          8           0        1.167356   -0.549343   -1.101841
     13          1           0        0.600391    4.942662    0.414287
     14          1           0       -1.420369    4.210062    1.665847
     15          1           0       -2.083665    1.819644    1.650316
     16          1           0       -0.719968    0.163261    0.391046
     17         16           0        4.680091    2.877783   -2.399036
     18          6           0        3.648318   -0.017626   -2.256982
     19          1           0        3.475268   -0.055230   -3.338591
     20          1           0        3.386126   -0.992441   -1.849610
     21          1           0        4.711321    0.178664   -2.107502
     22          6           0        5.391829    4.229546   -1.347135
     23          6           0        6.865528    4.388021   -1.708528
     24          1           0        5.270671    3.935970   -0.304622
     25          1           0        4.832374    5.142720   -1.526797
     26          1           0        7.434077    3.478905   -1.500459
     27          1           0        7.293350    5.200805   -1.115478
     28          1           0        6.995822    4.643207   -2.763429
 ---------------------------------------------------------------------

 SCF Done:  E(UB3LYP) =  -1051.45994139     A.U. after    1 cycles

 Alpha  occ. eigenvalues --  -88.86491 -19.13771 -19.13352 -10.29080 -10.28336
 Alpha  occ. eigenvalues --  -10.23788 -10.21957 -10.21006 -10.20911 -10.20692
 Alpha  occ. eigenvalues --  -10.20016 -10.19966 -10.19918 -10.19888 -10.17431
 Alpha  occ. eigenvalues --  -10.17187  -7.95103  -5.91486  -5.91078  -5.90530
 Alpha  occ. eigenvalues --   -1.07211  -1.06493  -0.89338  -0.86198  -0.80917
 Alpha  occ. eigenvalues --   -0.78698  -0.78007  -0.74485  -0.70568  -0.68246
 Alpha  occ. eigenvalues --   -0.64300  -0.62348  -0.60447  -0.58597  -0.55109
 Alpha  occ. eigenvalues --   -0.52310  -0.50237  -0.47827  -0.46948  -0.46507
 Alpha  occ. eigenvalues --   -0.46473  -0.45572  -0.45334  -0.44601  -0.42904
 Alpha  occ. eigenvalues --   -0.41714  -0.41339  -0.39974  -0.39501  -0.38675
 Alpha  occ. eigenvalues --   -0.37891  -0.37682  -0.37074  -0.36783  -0.34008
 Alpha  occ. eigenvalues --   -0.30469  -0.29135  -0.28428  -0.28091  -0.27663
 Alpha  occ. eigenvalues --   -0.24121
 Alpha virt. eigenvalues --   -0.12673  -0.05909  -0.03595  -0.00998  -0.00223
 Alpha virt. eigenvalues --    0.00295   0.01497   0.01570   0.01879   0.02245
 Alpha virt. eigenvalues --    0.03007   0.03182   0.03773   0.03936   0.04508

  Beta  occ. eigenvalues --  -88.86491 -19.13771 -19.13352 -10.29080 -10.28336
  Beta  occ. eigenvalues --  -10.23788 -10.21957 -10.21006 -10.20911 -10.20692
  Beta  occ. eigenvalues --  -10.20016 -10.19966 -10.19918 -10.19888 -10.17431
  Beta  occ. eigenvalues --  -10.17187  -7.95103  -5.91486  -5.91078  -5.90530
  Beta  occ. eigenvalues --   -1.07211  -1.06493  -0.89338  -0.86198  -0.80917
  Beta  occ. eigenvalues --   -0.78698  -0.78007  -0.74485  -0.70568  -0.68246
  Beta  occ. eigenvalues --   -0.64300  -0.62348  -0.60447  -0.58597  -0.55109
  Beta  occ. eigenvalues --   -0.52310  -0.50237  -0.47827  -0.46948  -0.46507
  Beta  occ. eigenvalues --   -0.46473  -0.45572  -0.45334  -0.44601  -0.42904
  Beta  occ. eigenvalues --   -0.41714  -0.41339  -0.39974  -0.39501  -0.38675
  Beta  occ. eigenvalues --   -0.37891  -0.37682  -0.37074  -0.36783  -0.34008
  Beta  occ. eigenvalues --   -0.30469  -0.29135  -0.28428  -0.28091  -0.27663
  Beta  occ. eigenvalues --   -0.24121
  Beta virt. eigenvalues --   -0.12673  -0.05909  -0.03595  -0.00998  -0.00223
  Beta virt. eigenvalues --    0.00295   0.01497   0.01570   0.01879   0.02245
  Beta virt. eigenvalues --    0.03007   0.03182   0.03773   0.03936   0.04508

 Mulliken charges and spin densities:
               1          2
     1  C    0.026446  -0.000000
     2  C   -0.428753   0.000000
     3  C   -0.434004  -0.000000
     4  C    0.229254  -0.000000
     5  C    0.648150  -0.000000
     6  C    0.152388   0.000000
     7  C   -1.103509   0.000000
     8  C    1.058733  -0.000000
     9  C    0.869250   0.000000
    10  C   -0.977429   0.000000
    11  O   -0.250766  -0.000000
    12  O   -0.276295   0.000000
    13  H    0.202808  -0.000000
    14  H    0.207558   0.000000
    15  H    0.206994  -0.000000
    16  H    0.192202  -0.000000
    17  S   -0.666857  -0.000000
    18  C   -0.141938   0.000000
    19  H    0.216507  -0.000000
    20  H    0.176956   0.000000
    21  H    0.153621   0.000000
    22  C   -0.290924  -0.000000
    23  C   -0.697719   0.000000
    24  H    0.231198  -0.000000
    25  H    0.219233   0.000000
    26  H    0.160727  -0.000000
    27  H    0.154002  -0.000000
    28  H    0.162166  -0.000000
 Sum of Mulliken charges =  -0.00000   0.00000

 Dipole moment (field-independent basis, Debye):
    X=              0.2550    Y=              1.6859    Z=              2.8139  Tot=              3.2901
 Quadrupole moment (field-independent basis, Debye-Ang):
   XX=            -82.7242   YY=           -103.1540   ZZ=           -103.9896
   XY=              3.0535   XZ=             -1.0038   YZ=              8.9803

  Exact polarizability: 292.564  48.251 312.041 -75.405  11.076 191.710
 Approx polarizability: 307.277  64.452 400.100 -73.885   9.360 217.226

                      1                      2                      3
                      A                      A                      A
 Frequencies --     27.6533                34.2317                40.7438
 Red. masses --      2.4743                 3.0075                 4.5833
 Frc consts  --      0.0011                 0.0021                 0.0045
 IR Inten    --      3.5906                10.1265                 2.9586

                      4                      5                      6
                      A                      A                      A
 Frequencies --     70.6324                95.2233               110.5916
 Red. masses --      3.0195                 1.4445                 3.4699
 Frc consts  --      0.0089                 0.0077                 0.0250
 IR Inten    --      5.2015                 2.4967                 0.0295

                      7                      8                      9
                      A                      A                      A
 Frequencies --    138.8024               166.9507               226.9310
 Red. masses --      3.8662                 6.2261                 4.0560
 Frc consts  --      0.0439                 0.1022                 0.1231
 IR Inten    --      1.2731                 1.8252                 0.3509

                     10                     11                     12
                      A                      A                      A
 Frequencies --    240.1713               253.0557               279.0394
 Red. masses --      1.3618                 3.0878                 5.2907
 Frc consts  --      0.0463                 0.1165                 0.2427
 IR Inten    --      1.0238                 4.1291                 0.4017

                     13                     14                     15
                      A                      A                      A
 Frequencies --    283.0771               351.9143               382.3353
 Red. masses --      4.6962                 3.5772                 6.8596
 Frc consts  --      0.2217                 0.2610                 0.5908
 IR Inten    --      1.8796                 2.1090                 6.8780

                     16                     17                     18
                      A                      A                      A
 Frequencies --    397.5236               409.3305               433.3947
 Red. masses --      7.2908                 5.5912                 4.2451
 Frc consts  --      0.6788                 0.5520                 0.4698
 IR Inten    --     15.4750                23.6286                 5.5684

                     19                     20                     21
                      A                      A                      A
 Frequencies --    436.6463               494.7738               531.6405
 Red. masses --      4.9157                 8.9101                 5.0635
 Frc consts  --      0.5522                 1.2851                 0.8432
 IR Inten    --      5.4782                 2.5310                 0.8310

                     22                     23                     24
                      A                      A                      A
 Frequencies --    581.4963               647.3195               664.0223
 Red. masses --      6.6739                 4.7252                 6.4020
 Frc consts  --      1.3296                 1.1665                 1.6632
 IR Inten    --      7.0444                21.8906                19.2507

                     25                     26                     27
                      A                      A                      A
 Frequencies --    697.9243               704.3623               720.6020
 Red. masses --      4.8250                 5.1446                 2.6650
 Frc consts  --      1.3847                 1.5038                 0.8153
 IR Inten    --      3.8809                 3.5228               111.3420

                     28                     29                     30
                      A                      A                      A
 Frequencies --    787.7728               797.4123               806.4420
 Red. masses --      1.1230                 2.5000                 2.6959
 Frc consts  --      0.4106                 0.9366                 1.0330
 IR Inten    --      8.0502                22.3685                15.8768

                     31                     32                     33
                      A                      A                      A
 Frequencies --    815.0927               849.7019               913.2026
 Red. masses --      5.0181                 6.1621                 1.4094
 Frc consts  --      1.9643                 2.6213                 0.6925
 IR Inten    --     41.9895               111.3172                 1.2178

                     34                     35                     36
                      A                      A                      A
 Frequencies --    962.9094               980.2730               998.3211
 Red. masses --      5.6243                 1.9644                 1.3866
 Frc consts  --      3.0725                 1.1122                 0.8142
 IR Inten    --     68.6924                24.6517                 2.9060

                     37                     38                     39
                      A                      A                      A
 Frequencies --   1021.4891              1035.2899              1044.8950
 Red. masses --      1.3306                 1.7124                 1.2143
 Frc consts  --      0.8180                 1.0814                 0.7811
 IR Inten    --      0.0862                72.0157                 9.7889

                     40                     41                     42
                      A                      A                      A
 Frequencies --   1048.9865              1052.5240              1071.6413
 Red. masses --      2.2535                 1.8564                 2.0123
 Frc consts  --      1.4610                 1.2117                 1.3616
 IR Inten    --     13.6427                39.8592                13.8871

                     43                     44                     45
                      A                      A                      A
 Frequencies --   1113.1646              1120.3485              1179.9541
 Red. masses --      2.3933                 2.8381                 1.1283
 Frc consts  --      1.7473                 2.0989                 0.9256
 IR Inten    --      9.6824                31.9143                11.2580

                     46                     47                     48
                      A                      A                      A
 Frequencies --   1197.3904              1258.0837              1259.5401
 Red. masses --      2.5502                 1.5392                 1.7490
 Frc consts  --      2.1543                 1.4353                 1.6348
 IR Inten    --     75.2747                72.5530               125.2207

                     49                     50                     51
                      A                      A                      A
 Frequencies --   1283.0756              1287.9550              1316.9548
 Red. masses --      1.5943                 2.4598                 2.8782
 Frc consts  --      1.5464                 2.4041                 2.9412
 IR Inten    --    326.2919               402.3786               188.6518

                     52                     53                     54
                      A                      A                      A
 Frequencies --   1360.1735              1398.9890              1408.4975
 Red. masses --      7.7545                 1.2374                 1.2230
 Frc consts  --      8.4526                 1.4269                 1.4295
 IR Inten    --     32.2602                21.0517                 4.2802

                     55                     56                     57
                      A                      A                      A
 Frequencies --   1458.3965              1474.6894              1477.3525
 Red. masses --      1.0723                 1.1365                 1.0705
 Frc consts  --      1.3437                 1.4561                 1.3766
 IR Inten    --     32.0377                27.5067                13.3788

                     58                     59                     60
                      A                      A                      A
 Frequencies --   1481.4035              1481.5211              1491.6816
 Red. masses --      1.2987                 1.5185                 1.0614
 Frc consts  --      1.6792                 1.9637                 1.3914
 IR Inten    --     16.5767                 2.8648                 7.9558

                     61                     62                     63
                      A                      A                      A
 Frequencies --   1506.2284              1583.0046              1619.4081
 Red. masses --      2.6312                 6.9117                 6.3444
 Frc consts  --      3.5171                10.2046                 9.8028
 IR Inten    --     20.4582               184.9597               226.0687

                     64                     65                     66
                      A                      A                      A
 Frequencies --   1622.3767              1675.9771              1698.5330
 Red. masses --      6.9908                11.7331                12.4748
 Frc consts  --     10.8414                19.4177                21.2047
 IR Inten    --     74.0238               632.1489               405.9653

                     67                     68                     69
                      A                      A                      A
 Frequencies --   3025.6993              3030.1067              3079.6118
 Red. masses --      1.0472                 1.0347                 1.0713
 Frc consts  --      5.6483                 5.5975                 5.9865
 IR Inten    --     11.6768                41.1087                 3.0099

                     70                     71                     72
                      A                      A                      A
 Frequencies --   3086.7793              3094.9873              3098.5026
 Red. masses --      1.0880                 1.0922                 1.1029
 Frc consts  --      6.1080                 6.1641                 6.2388
 IR Inten    --     13.2754                45.1280                25.8954

                     73                     74                     75
                      A                      A                      A
 Frequencies --   3139.4963              3158.0643              3178.9633
 Red. masses --      1.1006                 1.1045                 1.0874
 Frc consts  --      6.3916                 6.4904                 6.4746
 IR Inten    --      7.3365                16.4050                 3.4829

                     76                     77                     78
                      A                      A                      A
 Frequencies --   3191.1690              3203.0350              3206.1296
 Red. masses --      1.0913                 1.0927                 1.0957
 Frc consts  --      6.5479                 6.6049                 6.6359
 IR Inten    --     10.3140                 3.4760                17.9383

 - Thermochemistry -
 -------------------
 Temperature   298.150 Kelvin.  Pressure   1.00000 Atm.
 Atom     1 has atomic number  6 and mass  12.00000

 Molecular mass:   232.05580 amu.
 Principal axes and moments of inertia in atomic units:
                           1         2         3
     Eigenvalues --  2155.937365416.047697310.06343
           X            0.89565  -0.11286   0.43020
           Y            0.23584   0.94060  -0.24424
           Z           -0.37708   0.32021   0.86907
 This molecule is an asymmetric top.
 Rotational symmetry number  1.
 Warning -- assumption of classical behavior for rotation
           may cause significant error
 Rotational temperatures (Kelvin)      0.04017     0.01599     0.01185
 Rotational constants (GHZ):           0.83710     0.33322     0.24688
 Zero-point vibrational energy     567350.4 (Joules/Mol)
                                  135.60001 (Kcal/Mol)
 Warning -- explicit consideration of  22 degrees of freedom as
           vibrations may cause significant error
 Vibrational temperatures:     39.79    49.25    58.62   101.62   137.01
          (Kelvin)            159.12   199.71   240.20   326.50   345.55
                              364.09   401.48   407.28   506.33   550.10
                              571.95   588.94   623.56   628.24   711.87
                              764.91   836.64   931.35   955.38  1004.16
                             1013.42  1036.79  1133.43  1147.30  1160.29
                             1172.74  1222.53  1313.89  1385.41  1410.39
                             1436.36  1469.69  1489.55  1503.37  1509.26
                             1514.35  1541.85  1601.60  1611.93  1697.69
                             1722.78  1810.10  1812.20  1846.06  1853.08
                             1894.80  1956.99  2012.83  2026.51  2098.31
                             2121.75  2125.58  2131.41  2131.58  2146.20
                             2167.13  2277.59  2329.97  2334.24  2411.36
                             2443.81  4353.31  4359.65  4430.87  4441.19
                             4453.00  4458.05  4517.03  4543.75  4573.82
                             4591.38  4608.45  4612.91

 Zero-point correction=                           0.216092 (Hartree/Particle)
 Thermal correction to Energy=                    0.231444
 Thermal correction to Enthalpy=                  0.232389
 Thermal correction to Gibbs Free Energy=         0.171533
 Sum of electronic and zero-point Energies=          -1051.243849
 Sum of electronic and thermal Energies=             -1051.228497
 Sum of electronic and thermal Enthalpies=           -1051.227553
 Sum of electronic and thermal Free Energies=        -1051.288408

                     E (Thermal)             CV                S
                      KCal/Mol        Cal/Mol-Kelvin    Cal/Mol-Kelvin
 Total                  145.234             56.598            128.081
 Electronic               0.000              0.000              0.000
 Translational            0.889              2.981             42.227
 Rotational               0.889              2.981             32.812
 Vibrational            143.456             50.636             53.042
 Vibration     1          0.593              1.984              5.991
 Vibration     2          0.594              1.983              5.568
 Vibration     3          0.594              1.981              5.223
 Vibration     4          0.598              1.968              4.136
 Vibration     5          0.603              1.953              3.550
 Vibration     6          0.606              1.941              3.259
 Vibration     7          0.614              1.915              2.820
 Vibration     8          0.624              1.883              2.470
 Vibration     9          0.651              1.800              1.903
 Vibration    10          0.657              1.779              1.802
 Vibration    11          0.664              1.758              1.709
 Vibration    12          0.679              1.712              1.540
 Vibration    13          0.682              1.705              1.515
 Vibration    14          0.728              1.571              1.158
 Vibration    15          0.752              1.508              1.030
 Vibration    16          0.764              1.475              0.972
 Vibration    17          0.774              1.450              0.929
 Vibration    18          0.794              1.397              0.848
 Vibration    19          0.797              1.390              0.837
 Vibration    20          0.850              1.262              0.671
 Vibration    21          0.887              1.180              0.584
 Vibration    22          0.938              1.071              0.483

 Optimization completed.
    -- Stationary point found.
 Normal termination of Gaussian 16 at Sun Feb 11 02:52:40 2024.
