 Gaussian 16, Revision A.03,
 Gaussian 16:  ES64L-G16RevA.03 25-Dec-2016

 ----------------------------------------------------------------------
 #P UB3LYP/6-311++G(d,p) nosym opt freq SCRF=(PCM,Solvent=n,n-DiMethylF
 ormamide)
 ----------------------------------------------------------------------

 --------
 Oxidized
 --------
 Symbolic Z-matrix:
 Charge =  0 Multiplicity = 1

 SCF Done:  E(UB3LYP) =  -460.235099057     A.U. after   14 cycles
 SCF Done:  E(UB3LYP) =  -460.235185593     A.U. after   11 cycles
 SCF Done:  E(UB3LYP) =  -460.235196070     A.U. after   11 cycles
 SCF Done:  E(UB3LYP) =  -460.235196595     A.U. after    9 cycles
 Optimization completed.
    -- Stationary point found.
 Normal termination of Gaussian 16 at Sat Feb 10 10:05:05 2024.

 ----------------------------------------------------------------------
 #P Geom=AllCheck Guess=TCheck SCRF=Check GenChk UB3LYP/6-311++G(d,p) F
 req
 ----------------------------------------------------------------------

 Structure from the checkpoint file:  "039.chk"
 --------
 Oxidized
 --------
 Charge =  0 Multiplicity = 1

                          Input orientation:
 ---------------------------------------------------------------------
 Center     Atomic      Atomic             Coordinates (Angstroms)
 Number     Number       Type             X           Y           Z
 ---------------------------------------------------------------------
      1          6           0       -2.613479   -0.670149   -0.216750
      2          6           0       -1.296678    0.016727   -0.028257
      3          6           0       -1.171052    1.320798    0.272678
      4          6           0        0.145892    1.961717    0.451238
      5          8           0        0.234763    3.156015    0.726398
      6          6           0        1.353127    1.128754    0.291032
      7          6           0        1.284432   -0.179586   -0.009615
      8          6           0        2.484991   -1.057474   -0.180055
      9          6           0       -0.060821   -0.816784   -0.189534
     10          8           0       -0.149127   -2.004614   -0.464258
     11          1           0       -2.722155   -1.495705    0.492171
     12          1           0       -3.438894    0.027715   -0.077227
     13          1           0       -2.680990   -1.105308   -1.217746
     14          1           0       -2.035608    1.963912    0.398750
     15          1           0        2.303156    1.633757    0.430167
     16          1           0        3.404128   -0.491911   -0.027837
     17          1           0        2.500565   -1.498634   -1.180555
     18          1           0        2.457751   -1.889232    0.529402
 ---------------------------------------------------------------------

 SCF Done:  E(UB3LYP) =  -460.235196595     A.U. after    1 cycles

 Alpha  occ. eigenvalues --  -19.14513 -19.13851 -10.28799 -10.28346 -10.22131
 Alpha  occ. eigenvalues --  -10.22130 -10.20336 -10.20335 -10.17918 -10.17918
 Alpha  occ. eigenvalues --   -1.07513  -1.06510  -0.86890  -0.82078  -0.74626
 Alpha  occ. eigenvalues --   -0.71290  -0.68448  -0.60665  -0.59393  -0.53305
 Alpha  occ. eigenvalues --   -0.50677  -0.47268  -0.46572  -0.44339  -0.44335
 Alpha  occ. eigenvalues --   -0.43084  -0.42989  -0.42421  -0.40713  -0.40021
 Alpha  occ. eigenvalues --   -0.39435  -0.38927  -0.30527  -0.29175  -0.28669
 Alpha  occ. eigenvalues --   -0.27954
 Alpha virt. eigenvalues --   -0.13431  -0.02523  -0.00732  -0.00377   0.00672
 Alpha virt. eigenvalues --    0.01215   0.02835   0.02876   0.03131   0.05061
 Alpha virt. eigenvalues --    0.05213   0.05851   0.06167   0.06569   0.07892

  Beta  occ. eigenvalues --  -19.14513 -19.13851 -10.28799 -10.28346 -10.22131
  Beta  occ. eigenvalues --  -10.22130 -10.20336 -10.20335 -10.17918 -10.17918
  Beta  occ. eigenvalues --   -1.07513  -1.06510  -0.86890  -0.82078  -0.74626
  Beta  occ. eigenvalues --   -0.71290  -0.68448  -0.60665  -0.59393  -0.53305
  Beta  occ. eigenvalues --   -0.50677  -0.47268  -0.46572  -0.44339  -0.44335
  Beta  occ. eigenvalues --   -0.43084  -0.42989  -0.42421  -0.40713  -0.40021
  Beta  occ. eigenvalues --   -0.39435  -0.38927  -0.30527  -0.29175  -0.28669
  Beta  occ. eigenvalues --   -0.27954
  Beta virt. eigenvalues --   -0.13431  -0.02523  -0.00732  -0.00377   0.00672
  Beta virt. eigenvalues --    0.01215   0.02835   0.02876   0.03131   0.05061
  Beta virt. eigenvalues --    0.05213   0.05851   0.06167   0.06569   0.07892

 Mulliken charges and spin densities:
               1          2
     1  C   -0.343050   0.000000
     2  C    1.390587  -0.000000
     3  C   -0.612285   0.000000
     4  C   -0.244582  -0.000000
     5  O   -0.310655  -0.000000
     6  C   -0.612722   0.000000
     7  C    1.391328  -0.000000
     8  C   -0.342930  -0.000000
     9  C   -1.574888   0.000000
    10  O   -0.246783  -0.000000
    11  H    0.188844   0.000000
    12  H    0.167286  -0.000000
    13  H    0.188704   0.000000
    14  H    0.208169  -0.000000
    15  H    0.208198   0.000000
    16  H    0.167255   0.000000
    17  H    0.188804  -0.000000
    18  H    0.188719  -0.000000
 Sum of Mulliken charges =  -0.00000  -0.00000

 Dipole moment (field-independent basis, Debye):
    X=             -0.1229    Y=             -1.6455    Z=             -0.3751  Tot=              1.6921
 Quadrupole moment (field-independent basis, Debye-Ang):
   XX=            -46.9323   YY=            -80.0625   ZZ=            -59.4364
   XY=             -2.4984   XZ=             -0.2938   YZ=             -5.0481

  Exact polarizability: 125.942   5.745 204.150   2.532  29.294  83.512
 Approx polarizability: 125.448  11.164 275.523   3.438  42.830  99.299

                      1                      2                      3
                      A                      A                      A
 Frequencies --     64.3485               133.7950               140.5668
 Red. masses --      6.3821                 1.8180                 1.2023
 Frc consts  --      0.0156                 0.0192                 0.0140
 IR Inten    --     16.8629                 0.2540                 0.1131

                      4                      5                      6
                      A                      A                      A
 Frequencies --    165.6001               201.6667               271.4136
 Red. masses --      1.4834                 2.4736                 2.6401
 Frc consts  --      0.0240                 0.0593                 0.1146
 IR Inten    --      3.7525                 0.0012                 1.3606

                      7                      8                      9
                      A                      A                      A
 Frequencies --    306.3386               306.8880               396.7591
 Red. masses --      3.6910                 3.7137                 8.8209
 Frc consts  --      0.2041                 0.2061                 0.8181
 IR Inten    --      0.8371                 1.3316                34.5519

                     10                     11                     12
                      A                      A                      A
 Frequencies --    435.9167               446.7093               469.4397
 Red. masses --      3.1615                 8.4323                 5.8195
 Frc consts  --      0.3540                 0.9914                 0.7556
 IR Inten    --      0.0001                 0.0301                10.7375

                     13                     14                     15
                      A                      A                      A
 Frequencies --    568.2403               618.2786               654.5075
 Red. masses --      5.7189                 3.7059                 2.8486
 Frc consts  --      1.0880                 0.8347                 0.7190
 IR Inten    --      2.1073                 0.0203                 5.6896

                     16                     17                     18
                      A                      A                      A
 Frequencies --    767.5094               790.8214               864.3198
 Red. masses --      4.0567                 6.7380                 1.2521
 Frc consts  --      1.4080                 2.4828                 0.5511
 IR Inten    --      1.9992                 2.4470                 0.0046

                     19                     20                     21
                      A                      A                      A
 Frequencies --    909.8913               927.9711               939.7736
 Red. masses --      3.4466                 1.5625                 3.6581
 Frc consts  --      1.6812                 0.7927                 1.9035
 IR Inten    --     35.6402                73.1405                40.0800

                     22                     23                     24
                      A                      A                      A
 Frequencies --   1037.4634              1049.7888              1053.2860
 Red. masses --      1.5641                 1.6391                 1.5049
 Frc consts  --      0.9919                 1.0643                 0.9837
 IR Inten    --     36.4825                 3.1103                 0.0129

                     25                     26                     27
                      A                      A                      A
 Frequencies --   1058.0818              1193.3438              1219.3793
 Red. masses --      1.5646                 2.8448                 1.7926
 Frc consts  --      1.0320                 2.3869                 1.5704
 IR Inten    --      7.9213                71.4007                17.3412

                     28                     29                     30
                      A                      A                      A
 Frequencies --   1300.9780              1333.4392              1374.7633
 Red. masses --      5.9869                 1.7051                 2.5774
 Frc consts  --      5.9702                 1.7863                 2.8700
 IR Inten    --    218.1721                12.3308                 8.0799

                     31                     32                     33
                      A                      A                      A
 Frequencies --   1407.9610              1409.0533              1458.3901
 Red. masses --      1.2648                 1.3478                 1.0430
 Frc consts  --      1.4773                 1.5767                 1.3070
 IR Inten    --     23.4720                 9.5100                 4.2608

                     34                     35                     36
                      A                      A                      A
 Frequencies --   1459.3170              1469.2070              1471.0476
 Red. masses --      1.0431                 1.0749                 1.0672
 Frc consts  --      1.3088                 1.3670                 1.3606
 IR Inten    --     23.8819                 4.7739                34.2122

                     37                     38                     39
                      A                      A                      A
 Frequencies --   1658.6362              1671.9887              1688.0722
 Red. masses --      7.3233                11.5884                10.6371
 Frc consts  --     11.8703                19.0871                17.8589
 IR Inten    --     85.6724               533.3749               790.2017

                     40                     41                     42
                      A                      A                      A
 Frequencies --   1714.5907              3036.0269              3036.4588
 Red. masses --      8.1250                 1.0366                 1.0366
 Frc consts  --     14.0732                 5.6295                 5.6310
 IR Inten    --      0.6051                13.2381                 8.1821

                     43                     44                     45
                      A                      A                      A
 Frequencies --   3086.4379              3086.8007              3126.4952
 Red. masses --      1.0992                 1.0992                 1.1025
 Frc consts  --      6.1695                 6.1709                 6.3493
 IR Inten    --      6.5940                15.6268                23.1872

                     46                     47                     48
                      A                      A                      A
 Frequencies --   3126.6071              3175.8086              3177.4093
 Red. masses --      1.1024                 1.0923                 1.0927
 Frc consts  --      6.3497                 6.4909                 6.4997
 IR Inten    --      9.8528                10.4643                 5.5393

 - Thermochemistry -
 -------------------
 Temperature   298.150 Kelvin.  Pressure   1.00000 Atm.
 Atom     1 has atomic number  6 and mass  12.00000

 Molecular mass:   136.05243 amu.
 Principal axes and moments of inertia in atomic units:
                           1         2         3
     Eigenvalues --  1068.170101288.872522334.88539
           X            0.07251   0.99708  -0.02396
           Y            0.97189  -0.07604  -0.22283
           Z            0.22400   0.00713   0.97456
 This molecule is an asymmetric top.
 Rotational symmetry number  1.
 Warning -- assumption of classical behavior for rotation
           may cause significant error
 Rotational temperatures (Kelvin)      0.08109     0.06720     0.03710
 Rotational constants (GHZ):           1.68956     1.40025     0.77295
 Zero-point vibrational energy     366425.7 (Joules/Mol)
                                   87.57784 (Kcal/Mol)
 Warning -- explicit consideration of  14 degrees of freedom as
           vibrations may cause significant error
 Vibrational temperatures:     92.58   192.50   202.24   238.26   290.15
          (Kelvin)            390.50   440.75   441.54   570.85   627.19
                              642.72   675.42   817.57   889.57   941.69
                             1104.27  1137.82  1243.56  1309.13  1335.14
                             1352.12  1492.68  1510.41  1515.44  1522.34
                             1716.96  1754.41  1871.82  1918.52  1977.98
                             2025.74  2027.31  2098.30  2099.63  2113.86
                             2116.51  2386.41  2405.62  2428.76  2466.91
                             4368.17  4368.79  4440.70  4441.22  4498.33
                             4498.49  4569.28  4571.58

 Zero-point correction=                           0.139564 (Hartree/Particle)
 Thermal correction to Energy=                    0.149161
 Thermal correction to Enthalpy=                  0.150105
 Thermal correction to Gibbs Free Energy=         0.104799
 Sum of electronic and zero-point Energies=           -460.095632
 Sum of electronic and thermal Energies=              -460.086035
 Sum of electronic and thermal Enthalpies=            -460.085091
 Sum of electronic and thermal Free Energies=         -460.130398

                     E (Thermal)             CV                S
                      KCal/Mol        Cal/Mol-Kelvin    Cal/Mol-Kelvin
 Total                   93.600             35.226             95.356
 Electronic               0.000              0.000              0.000
 Translational            0.889              2.981             40.636
 Rotational               0.889              2.981             29.554
 Vibrational             91.823             29.264             25.166
 Vibration     1          0.597              1.971              4.319
 Vibration     2          0.613              1.920              2.891
 Vibration     3          0.615              1.913              2.796
 Vibration     4          0.624              1.885              2.485
 Vibration     5          0.639              1.838              2.118
 Vibration     6          0.675              1.726              1.587
 Vibration     7          0.697              1.662              1.382
 Vibration     8          0.697              1.661              1.379
 Vibration     9          0.763              1.477              0.975
 Vibration    10          0.796              1.392              0.840
 Vibration    11          0.806              1.368              0.806
 Vibration    12          0.827              1.318              0.739
 Vibration    13          0.924              1.100              0.508
 Vibration    14          0.978              0.993              0.419

                           ! Non-Optimized Parameters !
 Normal termination of Gaussian 16 at Sat Feb 10 10:11:06 2024.
