 Gaussian 16, Revision A.03,
 Gaussian 16:  ES64L-G16RevA.03 25-Dec-2016

 ----------------------------------------------------------------------
 #P UB3LYP/6-311++G(d,p) nosym opt freq SCRF=(PCM,Solvent=n,n-DiMethylF
 ormamide)
 ----------------------------------------------------------------------

 --------
 Oxidized
 --------
 Symbolic Z-matrix:
 Charge =  0 Multiplicity = 1

 SCF Done:  E(UB3LYP) =  -649.844887833     A.U. after   14 cycles
 SCF Done:  E(UB3LYP) =  -649.845024348     A.U. after   12 cycles
 SCF Done:  E(UB3LYP) =  -649.845035618     A.U. after   12 cycles
 SCF Done:  E(UB3LYP) =  -649.845009201     A.U. after   11 cycles
 SCF Done:  E(UB3LYP) =  -649.845049046     A.U. after   11 cycles
 SCF Done:  E(UB3LYP) =  -649.845050246     A.U. after    9 cycles
 SCF Done:  E(UB3LYP) =  -649.845050697     A.U. after    9 cycles
 SCF Done:  E(UB3LYP) =  -649.845050972     A.U. after    9 cycles
 SCF Done:  E(UB3LYP) =  -649.845051076     A.U. after    9 cycles
 Optimization completed.
    -- Stationary point found.
 Normal termination of Gaussian 16 at Sun Feb 11 15:24:46 2024.

 ----------------------------------------------------------------------
 #P Geom=AllCheck Guess=TCheck SCRF=Check GenChk UB3LYP/6-311++G(d,p) F
 req
 ----------------------------------------------------------------------

 Structure from the checkpoint file:  "308.chk"
 --------
 Oxidized
 --------
 Charge =  0 Multiplicity = 1

                          Input orientation:
 ---------------------------------------------------------------------
 Center     Atomic      Atomic             Coordinates (Angstroms)
 Number     Number       Type             X           Y           Z
 ---------------------------------------------------------------------
      1          6           0       -4.073272    3.602653    1.535947
      2          6           0       -4.561705    3.821520    0.248347
      3          6           0       -3.980143    3.181155   -0.832938
      4          6           0       -2.895167    2.308660   -0.654918
      5          6           0       -2.382397    2.074713    0.641140
      6          6           0       -3.000074    2.741066    1.728428
      7          6           0       -2.507534    2.527158    3.122338
      8          6           0       -1.380974    1.609584    3.320969
      9          6           0       -0.773867    0.967211    2.307774
     10          6           0       -1.232111    1.168957    0.889774
     11          8           0       -3.024554    3.095200    4.080256
     12          8           0       -0.636507    0.580197   -0.003055
     13          1           0       -4.515670    4.092390    2.393019
     14          1           0       -4.360126    3.348885   -1.835491
     15          8           0       -2.342257    1.690595   -1.724481
     16          6           0        0.376905    0.031802    2.512948
     17          1           0       -5.397812    4.491614    0.087903
     18          1           0       -1.058219    1.476151    4.348311
     19          1           0       -2.810023    1.956489   -2.527007
     20          1           0        0.633419   -0.042028    3.569655
     21          1           0        1.253395    0.372282    1.955076
     22          1           0        0.134632   -0.964786    2.133622
 ---------------------------------------------------------------------

 SCF Done:  E(UB3LYP) =  -649.845051076     A.U. after    1 cycles

 Alpha  occ. eigenvalues --  -19.17681 -19.13221 -19.13090 -10.28381 -10.28181
 Alpha  occ. eigenvalues --  -10.27197 -10.22042 -10.21171 -10.21118 -10.20330
 Alpha  occ. eigenvalues --  -10.20067 -10.20048 -10.19439 -10.17760  -1.09348
 Alpha  occ. eigenvalues --   -1.06333  -1.06154  -0.88998  -0.84738  -0.79119
 Alpha  occ. eigenvalues --   -0.77456  -0.73168  -0.68600  -0.66226  -0.62773
 Alpha  occ. eigenvalues --   -0.60652  -0.55740  -0.54608  -0.50979  -0.50784
 Alpha  occ. eigenvalues --   -0.48135  -0.47216  -0.46432  -0.45869  -0.43478
 Alpha  occ. eigenvalues --   -0.43229  -0.42421  -0.42241  -0.40608  -0.39932
 Alpha  occ. eigenvalues --   -0.39821  -0.38539  -0.38116  -0.36083  -0.29862
 Alpha  occ. eigenvalues --   -0.28546  -0.28233  -0.27230  -0.25540
 Alpha virt. eigenvalues --   -0.12478  -0.04991  -0.03520  -0.00846   0.00108
 Alpha virt. eigenvalues --    0.00704   0.02078   0.02399   0.02749   0.03292
 Alpha virt. eigenvalues --    0.03775   0.04918   0.05133   0.05259   0.06009

  Beta  occ. eigenvalues --  -19.17681 -19.13221 -19.13090 -10.28381 -10.28181
  Beta  occ. eigenvalues --  -10.27197 -10.22042 -10.21171 -10.21118 -10.20330
  Beta  occ. eigenvalues --  -10.20067 -10.20048 -10.19439 -10.17760  -1.09348
  Beta  occ. eigenvalues --   -1.06333  -1.06154  -0.88998  -0.84738  -0.79119
  Beta  occ. eigenvalues --   -0.77456  -0.73168  -0.68600  -0.66226  -0.62773
  Beta  occ. eigenvalues --   -0.60652  -0.55740  -0.54608  -0.50979  -0.50784
  Beta  occ. eigenvalues --   -0.48135  -0.47216  -0.46432  -0.45869  -0.43478
  Beta  occ. eigenvalues --   -0.43229  -0.42421  -0.42241  -0.40608  -0.39932
  Beta  occ. eigenvalues --   -0.39821  -0.38539  -0.38116  -0.36083  -0.29862
  Beta  occ. eigenvalues --   -0.28546  -0.28233  -0.27230  -0.25540
  Beta virt. eigenvalues --   -0.12478  -0.04991  -0.03520  -0.00846   0.00108
  Beta virt. eigenvalues --    0.00704   0.02078   0.02399   0.02749   0.03292
  Beta virt. eigenvalues --    0.03775   0.04918   0.05133   0.05259   0.06009

 Mulliken charges and spin densities:
               1          2
     1  C   -0.037108   0.000000
     2  C   -0.296060  -0.000000
     3  C   -0.164236   0.000000
     4  C    0.238798  -0.000000
     5  C   -0.189645   0.000000
     6  C    0.879421  -0.000000
     7  C   -0.937844   0.000000
     8  C   -0.357304  -0.000000
     9  C    0.670919  -0.000000
    10  C   -0.380494   0.000000
    11  O   -0.301194   0.000000
    12  O   -0.273536  -0.000000
    13  H    0.177644   0.000000
    14  H    0.183069  -0.000000
    15  O   -0.208480  -0.000000
    16  C   -0.289003   0.000000
    17  H    0.222683  -0.000000
    18  H    0.196692   0.000000
    19  H    0.306732   0.000000
    20  H    0.177675  -0.000000
    21  H    0.190006   0.000000
    22  H    0.191266   0.000000
 Sum of Mulliken charges =  -0.00000   0.00000

 Dipole moment (field-independent basis, Debye):
    X=             -1.9447    Y=              1.0542    Z=             -3.0576  Tot=              3.7739
 Quadrupole moment (field-independent basis, Debye-Ang):
   XX=            -65.8655   YY=            -76.5075   ZZ=            -85.3768
   XY=             -9.8389   XZ=             22.9240   YZ=            -19.5086

  Exact polarizability: 189.190 -77.059 161.643   2.758  18.179 241.173
 Approx polarizability: 220.058 -91.311 193.182 -17.328  40.312 297.428

                      1                      2                      3
                      A                      A                      A
 Frequencies --     37.3856                66.1962               136.8403
 Red. masses --      6.2459                 6.7484                 2.2150
 Frc consts  --      0.0051                 0.0174                 0.0244
 IR Inten    --     19.7042                 0.5932                 0.0593

                      4                      5                      6
                      A                      A                      A
 Frequencies --    166.5418               195.5811               236.5045
 Red. masses --      1.6167                 2.9515                 4.5789
 Frc consts  --      0.0264                 0.0665                 0.1509
 IR Inten    --      0.5579                 1.9101                 6.5648

                      7                      8                      9
                      A                      A                      A
 Frequencies --    238.9381               314.1193               359.9399
 Red. masses --      4.7007                 4.0429                 3.3904
 Frc consts  --      0.1581                 0.2350                 0.2588
 IR Inten    --      2.8997                 0.4328                 4.1410

                     10                     11                     12
                      A                      A                      A
 Frequencies --    370.4397               388.3913               410.6142
 Red. masses --      8.8864                 8.0166                 8.0237
 Frc consts  --      0.7185                 0.7125                 0.7971
 IR Inten    --      8.4382                 1.5844                49.2992

                     13                     14                     15
                      A                      A                      A
 Frequencies --    427.4424               475.0197               476.5078
 Red. masses --      1.1932                 5.8279                 4.0934
 Frc consts  --      0.1284                 0.7748                 0.5476
 IR Inten    --    138.4336                 5.3076                 7.1686

                     16                     17                     18
                      A                      A                      A
 Frequencies --    521.8873               545.4164               576.1321
 Red. masses --      7.5641                 4.5252                 5.9706
 Frc consts  --      1.2138                 0.7931                 1.1676
 IR Inten    --     15.2201                 3.6583                 1.0465

                     19                     20                     21
                      A                      A                      A
 Frequencies --    664.1770               694.9564               706.0666
 Red. masses --      4.2309                 3.2620                 6.2093
 Frc consts  --      1.0996                 0.9282                 1.8238
 IR Inten    --      4.5725                27.0405                25.1781

                     22                     23                     24
                      A                      A                      A
 Frequencies --    716.2908               784.3072               784.9783
 Red. masses --      3.5533                 4.8336                 2.4395
 Frc consts  --      1.0741                 1.7518                 0.8856
 IR Inten    --      6.6263                15.6782                28.2043

                     25                     26                     27
                      A                      A                      A
 Frequencies --    819.0340               900.8348               908.8733
 Red. masses --      2.5542                 5.6850                 1.4325
 Frc consts  --      1.0095                 2.7181                 0.6972
 IR Inten    --     51.2538                55.1123                26.6080

                     28                     29                     30
                      A                      A                      A
 Frequencies --    926.6044               990.0185              1002.2863
 Red. masses --      1.4832                 5.7701                 1.3177
 Frc consts  --      0.7503                 3.3321                 0.7799
 IR Inten    --      5.2364                53.6635                 0.2354

                     31                     32                     33
                      A                      A                      A
 Frequencies --   1030.7077              1054.1936              1091.3973
 Red. masses --      1.6201                 1.5527                 2.4276
 Frc consts  --      1.0141                 1.0166                 1.7037
 IR Inten    --     57.6429                 5.6520                 0.6398

                     34                     35                     36
                      A                      A                      A
 Frequencies --   1156.0838              1170.0480              1193.8005
 Red. masses --      2.2876                 2.2534                 1.1518
 Frc consts  --      1.8014                 1.8176                 0.9672
 IR Inten    --    155.6316                43.3815                19.3095

                     37                     38                     39
                      A                      A                      A
 Frequencies --   1224.8163              1273.4461              1300.5016
 Red. masses --      1.9177                 2.6467                 3.2133
 Frc consts  --      1.6950                 2.5288                 3.2020
 IR Inten    --     45.3696               535.0758               219.6132

                     40                     41                     42
                      A                      A                      A
 Frequencies --   1311.9492              1365.4867              1378.2568
 Red. masses --      2.8892                 2.6017                 5.2376
 Frc consts  --      2.9299                 2.8582                 5.8619
 IR Inten    --    261.6724                11.3050                28.1758

                     43                     44                     45
                      A                      A                      A
 Frequencies --   1406.1034              1457.5079              1468.4672
 Red. masses --      1.3004                 1.0438                 1.0825
 Frc consts  --      1.5148                 1.3064                 1.3754
 IR Inten    --     20.7190                13.6940                34.0759

                     46                     47                     48
                      A                      A                      A
 Frequencies --   1483.0605              1499.8596              1608.2035
 Red. masses --      2.7566                 2.5395                 5.8094
 Frc consts  --      3.5722                 3.3659                 8.8524
 IR Inten    --     58.8243                28.4093               133.6849

                     49                     50                     51
                      A                      A                      A
 Frequencies --   1619.2003              1671.0482              1687.0152
 Red. masses --      6.1670                 9.9592                10.4191
 Frc consts  --      9.5263                16.3853                17.4711
 IR Inten    --    397.2626               141.8894               904.3883

                     52                     53                     54
                      A                      A                      A
 Frequencies --   1698.3895              3036.9759              3087.4705
 Red. masses --      9.0141                 1.0364                 1.0989
 Frc consts  --     15.3196                 5.6320                 6.1720
 IR Inten    --     56.7154                11.4325                10.8678

                     55                     56                     57
                      A                      A                      A
 Frequencies --   3126.2858              3166.2233              3172.6462
 Red. masses --      1.1029                 1.0899                 1.0921
 Frc consts  --      6.3507                 6.4376                 6.4769
 IR Inten    --     18.9726                10.3726                12.8533

                     58                     59                     60
                      A                      A                      A
 Frequencies --   3190.9116              3211.7406              3787.5326
 Red. masses --      1.0923                 1.0935                 1.0663
 Frc consts  --      6.5525                 6.6459                 9.0121
 IR Inten    --      9.2181                 5.0712               169.3493

 - Thermochemistry -
 -------------------
 Temperature   298.150 Kelvin.  Pressure   1.00000 Atm.
 Atom     1 has atomic number  6 and mass  12.00000

 Molecular mass:   188.04734 amu.
 Principal axes and moments of inertia in atomic units:
                           1         2         3
     Eigenvalues --  1844.062492487.873054320.67864
           X            0.63857  -0.43658   0.63375
           Y           -0.43967   0.46891   0.76604
           Z            0.63160   0.76781  -0.10748
 This molecule is an asymmetric top.
 Rotational symmetry number  1.
 Warning -- assumption of classical behavior for rotation
           may cause significant error
 Rotational temperatures (Kelvin)      0.04697     0.03481     0.02005
 Rotational constants (GHZ):           0.97868     0.72542     0.41770
 Zero-point vibrational energy     429289.8 (Joules/Mol)
                                  102.60273 (Kcal/Mol)
 Warning -- explicit consideration of  18 degrees of freedom as
           vibrations may cause significant error
 Vibrational temperatures:     53.79    95.24   196.88   239.62   281.40
          (Kelvin)            340.28   343.78   451.95   517.87   532.98
                              558.81   590.78   614.99   683.45   685.59
                              750.88   784.73   828.93   955.60   999.89
                             1015.87  1030.58  1128.44  1129.41  1178.41
                             1296.10  1307.67  1333.18  1424.42  1442.07
                             1482.96  1516.75  1570.28  1663.35  1683.44
                             1717.61  1762.24  1832.20  1871.13  1887.60
                             1964.63  1983.00  2023.07  2097.03  2112.80
                             2133.79  2157.96  2313.85  2329.67  2404.27
                             2427.24  2443.60  4369.53  4442.18  4498.03
                             4555.49  4564.73  4591.01  4620.98  5449.41

 Zero-point correction=                           0.163508 (Hartree/Particle)
 Thermal correction to Energy=                    0.175097
 Thermal correction to Enthalpy=                  0.176041
 Thermal correction to Gibbs Free Energy=         0.125543
 Sum of electronic and zero-point Energies=           -649.681543
 Sum of electronic and thermal Energies=              -649.669954
 Sum of electronic and thermal Enthalpies=            -649.669010
 Sum of electronic and thermal Free Energies=         -649.719508

                     E (Thermal)             CV                S
                      KCal/Mol        Cal/Mol-Kelvin    Cal/Mol-Kelvin
 Total                  109.875             44.939            106.283
 Electronic               0.000              0.000              0.000
 Translational            0.889              2.981             41.600
 Rotational               0.889              2.981             31.361
 Vibrational            108.097             38.977             33.321
 Vibration     1          0.594              1.982              5.393
 Vibration     2          0.598              1.970              4.263
 Vibration     3          0.614              1.917              2.848
 Vibration     4          0.624              1.884              2.474
 Vibration     5          0.636              1.846              2.174
 Vibration     6          0.655              1.785              1.829
 Vibration     7          0.657              1.781              1.811
 Vibration     8          0.702              1.647              1.341
 Vibration     9          0.734              1.555              1.122
 Vibration    10          0.742              1.533              1.078
 Vibration    11          0.757              1.495              1.006
 Vibration    12          0.775              1.447              0.924
 Vibration    13          0.789              1.411              0.867
 Vibration    14          0.832              1.305              0.724
 Vibration    15          0.833              1.302              0.720
 Vibration    16          0.877              1.202              0.606
 Vibration    17          0.901              1.150              0.554
 Vibration    18          0.933              1.083              0.493

                           ! Non-Optimized Parameters !
 Normal termination of Gaussian 16 at Sun Feb 11 15:52:37 2024.
