 Q-Chem 5.4, Q-Chem, Inc., Pleasanton, CA (2021)
 Q-Chem 5.4.0 for Intel X86 EM64T Linux

User input:
--------------------------------------------------------------
$molecule
-1 2
C                 -1.7007020000      3.0824660000      0.2787380000
C                 -2.8744810000      2.3644840000      0.1415910000
C                 -2.8297390000      0.9818470000     -0.1293530000
C                 -0.4418760000      2.4561210000      0.1481810000
C                 -0.4008810000      1.0618400000     -0.1210560000
C                 -1.6057850000      0.3480590000     -0.2558010000
C                  0.7750370000      3.2591920000      0.3211680000
C                  2.0410820000      2.5504580000      0.1470740000
C                  2.0570850000      1.1871490000     -0.1213950000
C                  0.8891700000      0.3670140000     -0.2598120000
O                  0.7059030000      4.4851980000      0.6213590000
O                  0.9558770000     -0.8680280000     -0.5042170000
N                  3.2416270000      3.2746190000      0.3389830000
C                  3.4045260000      4.5140630000     -0.4155130000
C                  4.4744430000      2.5227770000      0.4355910000
H                 -1.7095080000      4.1452220000      0.4916050000
H                 -3.8328560000      2.8661390000      0.2433860000
H                 -3.7519780000      0.4180310000     -0.2365210000
H                 -1.5341530000     -0.7141510000     -0.4620190000
H                  2.9944270000      0.6608170000     -0.2545290000
H                  2.4786450000      5.0819880000     -0.3733490000
H                  3.6770450000      4.3178680000     -1.4696990000
H                  4.2062090000      5.1084920000      0.0366170000
H                  4.3699790000      1.7110980000      1.1582180000
H                  5.2659630000      3.1949550000      0.7818560000
H                  4.8038440000      2.0840710000     -0.5254700000
$end

$rem
BASIS  =  6-311++G(d,p)
GUI  =  2
JOB_TYPE  =  SP
METHOD  =  B3LYP
SCF_CONVERGENCE  = 8
SOLVENT_METHOD = sm12
$end

$smx
solvent dimethylformamide
charges CM5
$end

--------------------------------------------------------------

             Standard Nuclear Orientation (Angstroms)
    I     Atom           X                Y                Z
 ----------------------------------------------------------------
    1      C      -1.7007020000     3.0824660000     0.2787380000
    2      C      -2.8744810000     2.3644840000     0.1415910000
    3      C      -2.8297390000     0.9818470000    -0.1293530000
    4      C      -0.4418760000     2.4561210000     0.1481810000
    5      C      -0.4008810000     1.0618400000    -0.1210560000
    6      C      -1.6057850000     0.3480590000    -0.2558010000
    7      C       0.7750370000     3.2591920000     0.3211680000
    8      C       2.0410820000     2.5504580000     0.1470740000
    9      C       2.0570850000     1.1871490000    -0.1213950000
   10      C       0.8891700000     0.3670140000    -0.2598120000
   11      O       0.7059030000     4.4851980000     0.6213590000
   12      O       0.9558770000    -0.8680280000    -0.5042170000
   13      N       3.2416270000     3.2746190000     0.3389830000
   14      C       3.4045260000     4.5140630000    -0.4155130000
   15      C       4.4744430000     2.5227770000     0.4355910000
   16      H      -1.7095080000     4.1452220000     0.4916050000
   17      H      -3.8328560000     2.8661390000     0.2433860000
   18      H      -3.7519780000     0.4180310000    -0.2365210000
   19      H      -1.5341530000    -0.7141510000    -0.4620190000
   20      H       2.9944270000     0.6608170000    -0.2545290000
   21      H       2.4786450000     5.0819880000    -0.3733490000
   22      H       3.6770450000     4.3178680000    -1.4696990000
   23      H       4.2062090000     5.1084920000     0.0366170000
   24      H       4.3699790000     1.7110980000     1.1582180000
   25      H       5.2659630000     3.1949550000     0.7818560000
   26      H       4.8038440000     2.0840710000    -0.5254700000
 ----------------------------------------------------------------

   17    -669.3291627059      9.23e-09  Convergence criterion met
 Total energy in the final basis set =     -669.4199067429

                    Orbital Energies (a.u.)
 --------------------------------------------------------------

 Alpha MOs
 -- Occupied --
-19.0771 -19.0722 -14.3298 -10.2247 -10.2232 -10.2105 -10.1960 -10.1897
-10.1834 -10.1826 -10.1804 -10.1796 -10.1787 -10.1781 -10.1601  -1.0034
 -0.9954  -0.9409  -0.8643  -0.8040  -0.7578  -0.7476  -0.7179  -0.6882
 -0.6517  -0.6228  -0.5936  -0.5648  -0.5188  -0.5144  -0.4895  -0.4697
 -0.4657  -0.4541  -0.4365  -0.4296  -0.4188  -0.4179  -0.4053  -0.4011
 -0.3920  -0.3863  -0.3771  -0.3696  -0.3594  -0.3575  -0.3448  -0.2942
 -0.2671  -0.2643  -0.2440  -0.2368  -0.2198  -0.1508

 Beta MOs
 -- Occupied --
-19.0703 -19.0666 -14.3291 -10.2226 -10.2222 -10.2092 -10.1961 -10.1897
-10.1833 -10.1819 -10.1799 -10.1798 -10.1784 -10.1771 -10.1594  -0.9920
 -0.9855  -0.9386  -0.8623  -0.7995  -0.7560  -0.7457  -0.7172  -0.6828
 -0.6474  -0.6212  -0.5911  -0.5625  -0.5169  -0.5125  -0.4873  -0.4678
 -0.4633  -0.4532  -0.4353  -0.4276  -0.4162  -0.4072  -0.4010  -0.3978
 -0.3904  -0.3827  -0.3738  -0.3580  -0.3503  -0.3488  -0.3430  -0.2801
 -0.2578  -0.2503  -0.2378  -0.2312  -0.2101

          Ground-State Mulliken Net Atomic Charges

     Atom                 Charge (a.u.)    Spin (a.u.)
  --------------------------------------------------------
      1 C                     0.077860       0.069970
      2 C                     1.036566       0.012764
      3 C                     0.887345       0.054891
      4 C                    -0.776515      -0.000988
      5 C                    -0.876564       0.070771
      6 C                     0.003374       0.002222
      7 C                    -1.662567       0.135645
      8 C                    -0.722511       0.088531
      9 C                     0.300987       0.035532
     10 C                    -1.289681       0.052034
     11 O                    -0.313165       0.258613
     12 O                    -0.363879       0.206490
     13 N                     0.140414       0.020406
     14 C                    -0.155154       0.005615
     15 C                     0.300336      -0.001661
     16 H                     0.160923      -0.003380
     17 H                     0.364110      -0.001190
     18 H                     0.363786      -0.003966
     19 H                     0.144280      -0.000932
     20 H                     0.159868      -0.006612
     21 H                     0.081883      -0.003066
     22 H                     0.165641       0.003897
     23 H                     0.265685       0.000516
     24 H                     0.192764      -0.000054
     25 H                     0.349108      -0.000307
     26 H                     0.165109       0.004258
  --------------------------------------------------------
  Sum of atomic charges =    -1.000000

                    Cartesian Multipole Moments
 -----------------------------------------------------------------
    Charge (ESU x 10^10)
                -4.8032
    Dipole Moment (Debye)
         X      -2.0524      Y      -7.7473      Z      -0.3571
       Tot       8.0225
    Quadrupole Moments (Debye-Ang)
        XX     -90.4865     XY      -0.2324     YY    -136.6655
        XZ       0.2219     YZ      -8.2372     ZZ     -97.9711

 Total job time:  646.16s(wall), 4263.13s(cpu)
        *  Thank you very much for using Q-Chem.  Have a nice day.  *
