 Q-Chem 5.4, Q-Chem, Inc., Pleasanton, CA (2021)
 Q-Chem 5.4.0 for Intel X86 EM64T Linux

User input:
--------------------------------------------------------------
$molecule
-2 1
O                  3.9123840000      2.7713940000      0.9778710000
C                  3.0207080000      1.8996060000      1.0370800000
N                  2.9423720000      0.9427960000      1.9948090000
C                  1.9483320000     -0.1214750000      2.1421160000
O                  2.1391740000     -0.8718440000      3.1319720000
C                  0.9437470000     -0.1284940000      1.1505430000
N                 -0.0949270000     -1.0796780000      1.1474890000
C                 -0.9934490000     -0.9815080000      0.1682210000
C                 -2.0939600000     -1.9012320000      0.0665300000
C                 -3.0490500000     -1.8187510000     -0.9515630000
C                 -2.9851840000     -0.8305040000     -1.9342560000
C                 -1.9065440000      0.0970330000     -1.8661170000
C                 -0.9427260000      0.0442530000     -0.8720850000
N                  0.1014270000      0.9876550000     -0.8536270000
C                  0.9648910000      0.8582640000      0.1276530000
N                  2.0045640000      1.8141620000      0.1234800000
H                  3.6635060000      0.9337820000      2.6992690000
H                 -2.1594690000     -2.6771150000      0.8253850000
H                 -3.8605550000     -2.5480710000     -0.9711260000
H                 -3.7264660000     -0.7670800000     -2.7269440000
H                 -1.8111020000      0.8864890000     -2.6105950000
H                  1.9797280000      2.4933180000     -0.6222680000
$end

$rem
BASIS  =  6-311++G(d,p)
GUI  =  2
JOB_TYPE  =  SP
METHOD  =  B3LYP
SCF_CONVERGENCE  = 8
SOLVENT_METHOD = sm12
$end

$smx
solvent dimethylformamide
charges CM5
$end

--------------------------------------------------------------

             Standard Nuclear Orientation (Angstroms)
    I     Atom           X                Y                Z
 ----------------------------------------------------------------
    1      O       3.9123840000     2.7713940000     0.9778710000
    2      C       3.0207080000     1.8996060000     1.0370800000
    3      N       2.9423720000     0.9427960000     1.9948090000
    4      C       1.9483320000    -0.1214750000     2.1421160000
    5      O       2.1391740000    -0.8718440000     3.1319720000
    6      C       0.9437470000    -0.1284940000     1.1505430000
    7      N      -0.0949270000    -1.0796780000     1.1474890000
    8      C      -0.9934490000    -0.9815080000     0.1682210000
    9      C      -2.0939600000    -1.9012320000     0.0665300000
   10      C      -3.0490500000    -1.8187510000    -0.9515630000
   11      C      -2.9851840000    -0.8305040000    -1.9342560000
   12      C      -1.9065440000     0.0970330000    -1.8661170000
   13      C      -0.9427260000     0.0442530000    -0.8720850000
   14      N       0.1014270000     0.9876550000    -0.8536270000
   15      C       0.9648910000     0.8582640000     0.1276530000
   16      N       2.0045640000     1.8141620000     0.1234800000
   17      H       3.6635060000     0.9337820000     2.6992690000
   18      H      -2.1594690000    -2.6771150000     0.8253850000
   19      H      -3.8605550000    -2.5480710000    -0.9711260000
   20      H      -3.7264660000    -0.7670800000    -2.7269440000
   21      H      -1.8111020000     0.8864890000    -2.6105950000
   22      H       1.9797280000     2.4933180000    -0.6222680000
 ----------------------------------------------------------------

   17    -754.3459935918      7.29e-09  Convergence criterion met
 Total energy in the final basis set =     -754.6465573601

                    Orbital Energies (a.u.)
 --------------------------------------------------------------

 Alpha MOs
 -- Occupied --
-19.0914 -19.0658 -14.3563 -14.3440 -14.2859 -14.2586 -10.3059 -10.2508
-10.2501 -10.2000 -10.1978 -10.1774 -10.1772 -10.1664 -10.1639 -10.1561
 -1.0571  -1.0014  -0.9711  -0.9251  -0.8974  -0.8624  -0.8300  -0.7541
 -0.7356  -0.6862  -0.6585  -0.6303  -0.5941  -0.5834  -0.5479  -0.5417
 -0.5068  -0.4818  -0.4662  -0.4598  -0.4571  -0.4320  -0.4291  -0.4138
 -0.4098  -0.4027  -0.3782  -0.3646  -0.3564  -0.3549  -0.3115  -0.2929
 -0.2914  -0.2846  -0.2678  -0.2432  -0.2352  -0.2322  -0.2277  -0.1234

          Ground-State Mulliken Net Atomic Charges

     Atom                 Charge (a.u.)
  ----------------------------------------
      1 O                    -0.205242
      2 C                     1.222131
      3 N                    -0.254091
      4 C                     2.090971
      5 O                    -0.354848
      6 C                    -2.636755
      7 N                    -0.475470
      8 C                    -4.059880
      9 C                     0.246487
     10 C                     0.963733
     11 C                     1.261390
     12 C                     1.007025
     13 C                    -3.116828
     14 N                    -0.743755
     15 C                     0.779603
     16 N                     0.179871
     17 H                     0.586173
     18 H                     0.115092
     19 H                     0.394451
     20 H                     0.373322
     21 H                     0.161536
     22 H                     0.465083
  ----------------------------------------
  Sum of atomic charges =    -2.000000

                    Cartesian Multipole Moments
 -----------------------------------------------------------------
    Charge (ESU x 10^10)
                -9.6064
    Dipole Moment (Debye)
         X      -1.8823      Y       2.6720      Z      -5.6325
       Tot       6.5121
    Quadrupole Moments (Debye-Ang)
        XX    -151.6110     XY     -19.9030     YY    -128.3196
        XZ     -25.1989     YZ       6.1170     ZZ    -136.2936

 Total job time:  362.57s(wall), 2783.31s(cpu)
        *  Thank you very much for using Q-Chem.  Have a nice day.  *
