 Gaussian 16, Revision A.03,
 Gaussian 16:  ES64L-G16RevA.03 25-Dec-2016

 --------------------------------------
 #P UB3LYP/6-311++G(d,p) nosym opt freq
 --------------------------------------

 -------
 Reduced
 -------
 Symbolic Z-matrix:
 Charge = -2 Multiplicity = 1

 SCF Done:  E(UB3LYP) =  -754.357081140     A.U. after   29 cycles
 Optimization completed.
    -- Stationary point found.
 Normal termination of Gaussian 16 at Fri Jan 12 19:32:09 2024.

 ----------------------------------------------------------------------
 #P Geom=AllCheck Guess=TCheck SCRF=Check GenChk UB3LYP/6-311++G(d,p) F
 req
 ----------------------------------------------------------------------

 Structure from the checkpoint file:  "348-an.chk"
 -------
 Reduced
 -------
 Charge = -2 Multiplicity = 1

                          Input orientation:
 ---------------------------------------------------------------------
 Center     Atomic      Atomic             Coordinates (Angstroms)
 Number     Number       Type             X           Y           Z
 ---------------------------------------------------------------------
      1          8           0        3.912384    2.771394    0.977871
      2          6           0        3.020708    1.899606    1.037080
      3          7           0        2.942372    0.942796    1.994809
      4          6           0        1.948332   -0.121475    2.142116
      5          8           0        2.139174   -0.871844    3.131972
      6          6           0        0.943747   -0.128494    1.150543
      7          7           0       -0.094927   -1.079678    1.147489
      8          6           0       -0.993449   -0.981508    0.168221
      9          6           0       -2.093960   -1.901232    0.066530
     10          6           0       -3.049050   -1.818751   -0.951563
     11          6           0       -2.985184   -0.830504   -1.934256
     12          6           0       -1.906544    0.097033   -1.866117
     13          6           0       -0.942726    0.044253   -0.872085
     14          7           0        0.101427    0.987655   -0.853627
     15          6           0        0.964891    0.858264    0.127653
     16          7           0        2.004564    1.814162    0.123480
     17          1           0        3.663506    0.933782    2.699269
     18          1           0       -2.159469   -2.677115    0.825385
     19          1           0       -3.860555   -2.548071   -0.971126
     20          1           0       -3.726466   -0.767080   -2.726944
     21          1           0       -1.811102    0.886489   -2.610595
     22          1           0        1.979728    2.493318   -0.622268
 ---------------------------------------------------------------------

 SCF Done:  E(UB3LYP) =  -754.357081140     A.U. after    1 cycles

 Alpha  occ. eigenvalues --  -18.85337 -18.80406 -14.10801 -14.09821 -14.01923
 Alpha  occ. eigenvalues --  -13.98544 -10.06316  -9.98677  -9.98555  -9.92574
 Alpha  occ. eigenvalues --   -9.92533  -9.91206  -9.91117  -9.89693  -9.89613
 Alpha  occ. eigenvalues --   -9.88422  -0.81446  -0.74501  -0.71724  -0.66773
 Alpha  occ. eigenvalues --   -0.64304  -0.59338  -0.56100  -0.48987  -0.46673
 Alpha  occ. eigenvalues --   -0.42002  -0.40630  -0.37544  -0.32886  -0.31686
 Alpha  occ. eigenvalues --   -0.28836  -0.28549  -0.24295  -0.22664  -0.21883
 Alpha  occ. eigenvalues --   -0.20968  -0.19139  -0.17804  -0.16298  -0.14719
 Alpha  occ. eigenvalues --   -0.14408  -0.14190  -0.12128  -0.09810  -0.09350
 Alpha  occ. eigenvalues --   -0.08821  -0.04941  -0.04377  -0.03036  -0.02105
 Alpha  occ. eigenvalues --   -0.01915   0.01431   0.02915   0.04273   0.04321
 Alpha  occ. eigenvalues --    0.14804
 Alpha virt. eigenvalues --    0.16673   0.18131   0.19039   0.19637   0.20669
 Alpha virt. eigenvalues --    0.21830   0.23873   0.24161   0.24778   0.25693
 Alpha virt. eigenvalues --    0.25944   0.26803   0.27318   0.27659   0.27683

  Beta  occ. eigenvalues --  -18.85337 -18.80406 -14.10801 -14.09821 -14.01923
  Beta  occ. eigenvalues --  -13.98544 -10.06316  -9.98677  -9.98555  -9.92574
  Beta  occ. eigenvalues --   -9.92533  -9.91206  -9.91117  -9.89693  -9.89613
  Beta  occ. eigenvalues --   -9.88422  -0.81446  -0.74501  -0.71724  -0.66773
  Beta  occ. eigenvalues --   -0.64304  -0.59338  -0.56100  -0.48987  -0.46673
  Beta  occ. eigenvalues --   -0.42002  -0.40630  -0.37544  -0.32886  -0.31686
  Beta  occ. eigenvalues --   -0.28836  -0.28549  -0.24295  -0.22664  -0.21883
  Beta  occ. eigenvalues --   -0.20968  -0.19139  -0.17804  -0.16298  -0.14719
  Beta  occ. eigenvalues --   -0.14408  -0.14190  -0.12128  -0.09810  -0.09350
  Beta  occ. eigenvalues --   -0.08821  -0.04941  -0.04377  -0.03036  -0.02105
  Beta  occ. eigenvalues --   -0.01915   0.01431   0.02915   0.04273   0.04321
  Beta  occ. eigenvalues --    0.14804
  Beta virt. eigenvalues --    0.16673   0.18131   0.19039   0.19637   0.20669
  Beta virt. eigenvalues --    0.21830   0.23873   0.24161   0.24778   0.25693
  Beta virt. eigenvalues --    0.25944   0.26803   0.27318   0.27659   0.27683

 Mulliken charges and spin densities:
               1          2
     1  O   -0.486403   0.000000
     2  C    0.357165  -0.000000
     3  N   -0.437196  -0.000000
     4  C    0.099413  -0.000000
     5  O   -0.497193   0.000000
     6  C   -0.041515   0.000000
     7  N   -0.168557  -0.000000
     8  C   -0.150185   0.000000
     9  C   -0.191300  -0.000000
    10  C   -0.303611  -0.000000
    11  C   -0.321632  -0.000000
    12  C   -0.289250  -0.000000
    13  C    0.138637   0.000000
    14  N   -0.239047   0.000000
    15  C    0.129556  -0.000000
    16  N   -0.448443  -0.000000
    17  H    0.337684   0.000000
    18  H    0.080073  -0.000000
    19  H    0.056704   0.000000
    20  H    0.060301  -0.000000
    21  H    0.047789  -0.000000
    22  H    0.267009  -0.000000
 Sum of Mulliken charges =  -2.00000   0.00000

 Dipole moment (field-independent basis, Debye):
    X=             -3.2392    Y=              1.5551    Z=             -5.7697  Tot=              6.7971
 Quadrupole moment (field-independent basis, Debye-Ang):
   XX=           -161.3713   YY=           -131.2348   ZZ=           -138.9176
   XY=            -25.1929   XZ=            -30.0658   YZ=              4.7140

  Exact polarizability: 276.209  80.650 152.132 124.219 -41.311 186.094
 Approx polarizability: 448.459  73.586 273.567 199.863 -40.138 409.564

                      1                      2                      3
                      A                      A                      A
 Frequencies --      6.9214                52.5846                89.2652
 Red. masses --      8.1263                 9.3367                 8.0841
 Frc consts  --      0.0002                 0.0152                 0.0380
 IR Inten    --      0.8081                 0.0277                 0.7246

                      4                      5                      6
                      A                      A                      A
 Frequencies --    128.7664               140.9217               195.2361
 Red. masses --      8.2579                 8.0212                 7.3637
 Frc consts  --      0.0807                 0.0939                 0.1654
 IR Inten    --      0.0873                 0.2480                 6.2633

                      7                      8                      9
                      A                      A                      A
 Frequencies --    252.4901               280.3707               325.5000
 Red. masses --      8.6707                 6.4622                11.1845
 Frc consts  --      0.3257                 0.2993                 0.6982
 IR Inten    --      4.3488                17.5348                 5.7029

                     10                     11                     12
                      A                      A                      A
 Frequencies --    370.7109               406.4788               422.0264
 Red. masses --      7.2033                 9.4767                 3.0287
 Frc consts  --      0.5832                 0.9225                 0.3178
 IR Inten    --      1.6480                17.4870                10.8153

                     13                     14                     15
                      A                      A                      A
 Frequencies --    455.7020               496.2408               514.9303
 Red. masses --      1.1242                 5.9048                 4.2905
 Frc consts  --      0.1375                 0.8567                 0.6703
 IR Inten    --      0.0692                 2.9072               196.5714

                     16                     17                     18
                      A                      A                      A
 Frequencies --    519.7917               529.3772               570.9744
 Red. masses --      9.1839                 9.2174                 6.8121
 Frc consts  --      1.4620                 1.5219                 1.3085
 IR Inten    --     27.4039                15.4935                13.1641

                     19                     20                     21
                      A                      A                      A
 Frequencies --    579.9308               595.1728               603.0853
 Red. masses --      1.1256                 1.3417                 7.6349
 Frc consts  --      0.2230                 0.2800                 1.6361
 IR Inten    --     79.0885                76.1473                 0.5834

                     22                     23                     24
                      A                      A                      A
 Frequencies --    628.8088               654.5850               681.2503
 Red. masses --     10.1736                 9.7745                 2.3934
 Frc consts  --      2.3701                 2.4676                 0.6545
 IR Inten    --      0.5839                67.4800               104.5862

                     25                     26                     27
                      A                      A                      A
 Frequencies --    699.3724               703.5586               727.1482
 Red. masses --      5.6791                 2.0446                 9.8535
 Frc consts  --      1.6366                 0.5963                 3.0696
 IR Inten    --     17.1192               193.2126                21.0071

                     28                     29                     30
                      A                      A                      A
 Frequencies --    760.4291               769.4912               813.9849
 Red. masses --      6.8419                 1.3624                 1.1525
 Frc consts  --      2.3310                 0.4753                 0.4499
 IR Inten    --     49.6404                76.8113               375.2416

                     31                     32                     33
                      A                      A                      A
 Frequencies --    834.9289               897.2378              1022.1804
 Red. masses --      6.2245                 5.6525                 2.4827
 Frc consts  --      2.5566                 2.6810                 1.5284
 IR Inten    --     10.9157                27.2585                56.5367

                     34                     35                     36
                      A                      A                      A
 Frequencies --   1043.2114              1046.6935              1088.2036
 Red. masses --      3.2503                 3.1949                 1.7265
 Frc consts  --      2.0841                 2.0623                 1.2046
 IR Inten    --     65.0315                 3.1953                21.8888

                     37                     38                     39
                      A                      A                      A
 Frequencies --   1137.2939              1160.9060              1186.0417
 Red. masses --      1.1168                 3.6558                 4.9842
 Frc consts  --      0.8511                 2.9028                 4.1309
 IR Inten    --      2.4708                36.0551               131.8001

                     40                     41                     42
                      A                      A                      A
 Frequencies --   1226.5421              1288.4083              1315.2592
 Red. masses --      3.5360                 2.3059                 2.8529
 Frc consts  --      3.1342                 2.2553                 2.9078
 IR Inten    --      2.1866                 6.7913               204.1603

                     43                     44                     45
                      A                      A                      A
 Frequencies --   1334.5891              1348.9677              1371.6932
 Red. masses --      5.1338                 2.3741                 2.7540
 Frc consts  --      5.3874                 2.5453                 3.0530
 IR Inten    --    130.2134                32.8926                56.1082

                     46                     47                     48
                      A                      A                      A
 Frequencies --   1383.1717              1425.1039              1459.7696
 Red. masses --      3.9556                 3.9560                 4.0492
 Frc consts  --      4.4587                 4.7337                 5.0837
 IR Inten    --    337.2817                40.7481               139.2395

                     49                     50                     51
                      A                      A                      A
 Frequencies --   1489.8187              1504.7553              1543.6411
 Red. masses --      4.2374                 6.6193                 4.8586
 Frc consts  --      5.5414                 8.8307                 6.8210
 IR Inten    --     60.4772               259.0934               174.0244

                     52                     53                     54
                      A                      A                      A
 Frequencies --   1610.9953              1640.1413              1685.5099
 Red. masses --      6.7072                 8.8374                 5.7932
 Frc consts  --     10.2560                14.0068                 9.6969
 IR Inten    --    789.4494              1166.6938              1323.0399

                     55                     56                     57
                      A                      A                      A
 Frequencies --   3069.4609              3097.2573              3124.7664
 Red. masses --      1.0831                 1.0853                 1.0893
 Frc consts  --      6.0124                 6.1342                 6.2665
 IR Inten    --     65.4034                65.2030               116.4350

                     58                     59                     60
                      A                      A                      A
 Frequencies --   3133.9375              3625.1490              3641.4453
 Red. masses --      1.0932                 1.0765                 1.0770
 Frc consts  --      6.3261                 8.3353                 8.4143
 IR Inten    --     75.4730                14.2596                20.3391

 - Thermochemistry -
 -------------------
 Temperature   298.150 Kelvin.  Pressure   1.00000 Atm.
 Atom     1 has atomic number  8 and mass  15.99491

 Molecular mass:   214.04908 amu.
 Principal axes and moments of inertia in atomic units:
                           1         2         3
     Eigenvalues --  1337.947735280.321326618.24542
           X            0.82983  -0.03142  -0.55714
           Y            0.38012  -0.69912   0.60559
           Z            0.40853   0.71432   0.56820
 This molecule is an asymmetric top.
 Rotational symmetry number  1.
 Warning -- assumption of classical behavior for rotation
           may cause significant error
 Rotational temperatures (Kelvin)      0.06474     0.01640     0.01309
 Rotational constants (GHZ):           1.34889     0.34179     0.27269
 Zero-point vibrational energy     387064.8 (Joules/Mol)
                                   92.51072 (Kcal/Mol)
 Warning -- explicit consideration of  21 degrees of freedom as
           vibrations may cause significant error
 Vibrational temperatures:      9.96    75.66   128.43   185.27   202.75
          (Kelvin)            280.90   363.28   403.39   468.32   533.37
                              584.83   607.20   655.65   713.98   740.87
                              747.86   761.66   821.50   834.39   856.32
                              867.71   904.72   941.80   980.17  1006.24
                             1012.26  1046.20  1094.09  1107.13  1171.14
                             1201.28  1290.93  1470.69  1500.95  1505.96
                             1565.68  1636.31  1670.28  1706.45  1764.72
                             1853.73  1892.36  1920.18  1940.86  1973.56
                             1990.08  2050.41  2100.28  2143.52  2165.01
                             2220.96  2317.86  2359.80  2425.07  4416.27
                             4456.26  4495.84  4509.04  5215.78  5239.23

 Zero-point correction=                           0.147425 (Hartree/Particle)
 Thermal correction to Energy=                    0.160097
 Thermal correction to Enthalpy=                  0.161041
 Thermal correction to Gibbs Free Energy=         0.106143
 Sum of electronic and zero-point Energies=           -754.209656
 Sum of electronic and thermal Energies=              -754.196984
 Sum of electronic and thermal Enthalpies=            -754.196040
 Sum of electronic and thermal Free Energies=         -754.250938

                     E (Thermal)             CV                S
                      KCal/Mol        Cal/Mol-Kelvin    Cal/Mol-Kelvin
 Total                  100.462             49.357            115.542
 Electronic               0.000              0.000              0.000
 Translational            0.889              2.981             41.987
 Rotational               0.889              2.981             32.214
 Vibrational             98.685             43.395             41.342
 Vibration     1          0.593              1.987              8.742
 Vibration     2          0.596              1.977              4.718
 Vibration     3          0.602              1.957              3.676
 Vibration     4          0.611              1.924              2.964
 Vibration     5          0.615              1.912              2.791
 Vibration     6          0.636              1.847              2.178
 Vibration     7          0.664              1.759              1.713
 Vibration     8          0.680              1.710              1.531
 Vibration     9          0.710              1.624              1.282
 Vibration    10          0.743              1.532              1.077
 Vibration    11          0.771              1.456              0.939
 Vibration    12          0.784              1.422              0.885
 Vibration    13          0.814              1.348              0.779
 Vibration    14          0.852              1.258              0.668
 Vibration    15          0.870              1.217              0.622
 Vibration    16          0.875              1.206              0.610
 Vibration    17          0.884              1.185              0.589
 Vibration    18          0.927              1.094              0.502
 Vibration    19          0.937              1.075              0.485
 Vibration    20          0.953              1.042              0.458
 Vibration    21          0.961              1.025              0.444

                           ! Non-Optimized Parameters !
 Normal termination of Gaussian 16 at Fri Jan 12 20:05:26 2024.
