 Gaussian 16, Revision A.03,
 Gaussian 16:  ES64L-G16RevA.03 25-Dec-2016

 ----------------------------------------------------------------
 #P UB3LYP/6-311++G(d,p) SCRF=(PCM,Solvent=n,n-DiMethylFormamide)
 ----------------------------------------------------------------

 ------------------
 Radical PCM in DMF
 ------------------
 Symbolic Z-matrix:
 Charge = -1 Multiplicity = 2

                         Standard orientation:
 ---------------------------------------------------------------------
 Center     Atomic      Atomic             Coordinates (Angstroms)
 Number     Number       Type             X           Y           Z
 ---------------------------------------------------------------------
      1          6           0       -0.804464   -0.862758   -0.690013
      2          6           0       -2.161408   -1.372509   -0.542637
      3          6           0       -3.200587   -0.651139   -0.033469
      4          6           0       -2.991908    0.732915    0.407175
      5          6           0       -1.656680    1.244642    0.272808
      6          8           0        0.085611   -1.558172   -1.239007
      7          8           0       -3.940863    1.420219    0.881041
      8          1           0       -2.311183   -2.391492   -0.891782
      9          6           0       -0.588602    0.500932   -0.206185
     10          6           0        0.735100    1.163430   -0.276226
     11          6           0        2.002690    0.387015   -0.011715
     12          6           0        3.201722    0.863414   -0.553165
     13          6           0        2.039934   -0.721116    0.840616
     14          6           0        4.410624    0.233847   -0.269221
     15          6           0        4.439234   -0.866785    0.587772
     16          6           0        3.250674   -1.336181    1.147752
     17          8           0        0.839328    2.372871   -0.478401
     18          1           0        3.165097    1.735525   -1.195027
     19          1           0        1.117633   -1.099570    1.261877
     20          1           0        5.330949    0.603781   -0.710225
     21          1           0        5.380730   -1.355874    0.817343
     22          1           0        3.265635   -2.190987    1.816026
     23          6           0       -4.588165   -1.216358    0.093945
     24          1           0       -1.490400    2.269035    0.588047
     25          1           0       -4.628277   -2.249939   -0.260176
     26          1           0       -5.305327   -0.615282   -0.474451
     27          1           0       -4.926440   -1.180641    1.134690
 ---------------------------------------------------------------------

 SCF Done:  E(UB3LYP) =  -765.528682250     A.U. after   19 cycles

 The electronic state is 2-A.
 Alpha  occ. eigenvalues --  -19.10960 -19.08378 -19.08316 -10.26190 -10.23254
 Alpha  occ. eigenvalues --  -10.22359 -10.18609 -10.18262 -10.18168 -10.18146
 Alpha  occ. eigenvalues --  -10.18025 -10.17955 -10.17916 -10.17546 -10.17242
 Alpha  occ. eigenvalues --  -10.16518 -10.16124  -1.04142  -1.00890  -1.00418
 Alpha  occ. eigenvalues --   -0.86490  -0.83307  -0.78222  -0.76228  -0.75353
 Alpha  occ. eigenvalues --   -0.70335  -0.68988  -0.63479  -0.61309  -0.59629
 Alpha  occ. eigenvalues --   -0.58296  -0.54677  -0.51089  -0.48998  -0.47817
 Alpha  occ. eigenvalues --   -0.46068  -0.45357  -0.44343  -0.43781  -0.43005
 Alpha  occ. eigenvalues --   -0.42551  -0.42284  -0.40939  -0.40671  -0.39297
 Alpha  occ. eigenvalues --   -0.38852  -0.37538  -0.37364  -0.36645  -0.36127
 Alpha  occ. eigenvalues --   -0.35868  -0.34782  -0.28746  -0.27433  -0.26477
 Alpha  occ. eigenvalues --   -0.26034  -0.25397  -0.24683  -0.23721  -0.17008
 Alpha virt. eigenvalues --   -0.06845  -0.01903  -0.01679  -0.00332   0.00329
 Alpha virt. eigenvalues --    0.01242   0.01398   0.01894   0.02098   0.03334
 Alpha virt. eigenvalues --    0.03798   0.03941   0.04518   0.04912   0.04986

  Beta  occ. eigenvalues --  -19.10895 -19.07717 -19.07634 -10.26177 -10.23174
  Beta  occ. eigenvalues --  -10.22237 -10.18611 -10.18260 -10.18163 -10.18108
  Beta  occ. eigenvalues --  -10.18023 -10.17954 -10.17916 -10.17432 -10.16997
  Beta  occ. eigenvalues --  -10.16436 -10.16129  -1.04017  -0.99855  -0.99114
  Beta  occ. eigenvalues --   -0.86479  -0.82739  -0.78003  -0.76145  -0.75342
  Beta  occ. eigenvalues --   -0.70014  -0.68188  -0.63296  -0.61282  -0.59310
  Beta  occ. eigenvalues --   -0.58034  -0.54547  -0.50903  -0.48820  -0.47595
  Beta  occ. eigenvalues --   -0.45975  -0.45140  -0.44098  -0.43561  -0.42837
  Beta  occ. eigenvalues --   -0.42161  -0.41996  -0.40456  -0.40315  -0.38783
  Beta  occ. eigenvalues --   -0.38101  -0.37157  -0.36466  -0.36023  -0.35672
  Beta  occ. eigenvalues --   -0.34968  -0.34524  -0.27416  -0.26524  -0.25897
  Beta  occ. eigenvalues --   -0.25121  -0.24834  -0.24063  -0.23215
  Beta virt. eigenvalues --   -0.10039  -0.06149  -0.01778  -0.00933  -0.00292
  Beta virt. eigenvalues --    0.00340   0.01369   0.01780   0.02060   0.02495
  Beta virt. eigenvalues --    0.03577   0.03914   0.04129   0.04641   0.04987

 Mulliken charges and spin densities:
               1          2
     1  C   -1.153531   0.039773
     2  C   -0.461781   0.065203
     3  C    0.900468   0.032754
     4  C   -0.793985   0.105156
     5  C    0.328643   0.143493
     6  O   -0.402822   0.215546
     7  O   -0.466676   0.268896
     8  H    0.177993  -0.005928
     9  C    1.511900   0.079630
    10  C   -1.248650   0.027533
    11  C    1.345708  -0.005085
    12  C    0.337362  -0.002629
    13  C   -0.902156   0.014557
    14  C   -0.442294   0.001606
    15  C   -0.302835   0.002950
    16  C   -0.393215  -0.004186
    17  O   -0.299269   0.022550
    18  H    0.208131  -0.000437
    19  H    0.176015   0.001929
    20  H    0.196242   0.000079
    21  H    0.182235  -0.000133
    22  H    0.199886  -0.000087
    23  C   -0.407224   0.007597
    24  H    0.215303  -0.013538
    25  H    0.149126  -0.000431
    26  H    0.172552   0.001372
    27  H    0.172873   0.001831
 Sum of Mulliken charges =  -1.00000   1.00000

 Dipole moment (field-independent basis, Debye):
    X=              6.8690    Y=             -4.6848    Z=              1.6675  Tot=              8.4800
 Quadrupole moment (field-independent basis, Debye-Ang):
   XX=           -125.3552   YY=           -121.1898   ZZ=           -107.8105
   XY=             12.8757   XZ=              9.7057   YZ=             -9.3955

 Normal termination of Gaussian 16 at Wed Jan 24 22:54:23 2024.
