 Q-Chem 5.4, Q-Chem, Inc., Pleasanton, CA (2021)
 Q-Chem 5.4.0 for Intel X86 EM64T Linux

User input:
--------------------------------------------------------------
$molecule
-1 2
C                  2.3895730000      3.4480130000      2.8292620000
C                  3.4647290000      3.4409140000      1.8852710000
C                  3.3869650000      2.7589690000      0.6861290000
C                  2.2027800000      1.9638330000      0.3327400000
C                  1.1275990000      1.9709780000      1.2767040000
C                  1.2053640000      2.6529260000      2.4758430000
O                  2.4024800000      4.1017370000      3.9203050000
O                  2.1899120000      1.3100080000     -0.7582440000
N                  0.2169530000      2.6511080000      3.4543140000
C                 -1.1740750000      2.4276050000      3.1312820000
C                 -2.0509290000      2.5636750000      4.3744350000
N                  4.3753510000      2.7608680000     -0.2923880000
C                  5.7664090000      2.9841730000      0.0306830000
C                  6.6432110000      2.8484970000     -1.2125500000
H                  4.3393900000      4.0268870000      2.1483790000
H                  0.2529200000      1.3850400000      1.0135780000
H                  0.4208300000      3.3802440000      4.1344160000
H                 -1.2897560000      1.4186190000      2.7183220000
H                 -1.5287330000      3.1209190000      2.3468830000
H                 -1.7459960000      1.8478370000      5.1431550000
H                 -3.1023250000      2.3841670000      4.1295310000
H                 -1.9730250000      3.5692960000      4.8011060000
H                  4.1714380000      2.0317430000     -0.9724980000
H                  6.1210620000      2.2905630000      0.8148240000
H                  5.8821540000      3.9930050000      0.4439910000
H                  6.5651990000      1.8430450000     -1.6396030000
H                  7.6946330000      3.0278090000     -0.9676100000
H                  6.3383180000      3.5646530000     -1.9809880000
$end

$rem
BASIS  =  6-311++G(d,p)
GUI  =  2
JOB_TYPE  =  SP
METHOD  =  B3LYP
SCF_CONVERGENCE  = 8
SOLVENT_METHOD = sm12
$end

$smx
solvent dimethylformamide
charges CM5
$end

--------------------------------------------------------------

             Standard Nuclear Orientation (Angstroms)
    I     Atom           X                Y                Z
 ----------------------------------------------------------------
    1      C       2.3895730000     3.4480130000     2.8292620000
    2      C       3.4647290000     3.4409140000     1.8852710000
    3      C       3.3869650000     2.7589690000     0.6861290000
    4      C       2.2027800000     1.9638330000     0.3327400000
    5      C       1.1275990000     1.9709780000     1.2767040000
    6      C       1.2053640000     2.6529260000     2.4758430000
    7      O       2.4024800000     4.1017370000     3.9203050000
    8      O       2.1899120000     1.3100080000    -0.7582440000
    9      N       0.2169530000     2.6511080000     3.4543140000
   10      C      -1.1740750000     2.4276050000     3.1312820000
   11      C      -2.0509290000     2.5636750000     4.3744350000
   12      N       4.3753510000     2.7608680000    -0.2923880000
   13      C       5.7664090000     2.9841730000     0.0306830000
   14      C       6.6432110000     2.8484970000    -1.2125500000
   15      H       4.3393900000     4.0268870000     2.1483790000
   16      H       0.2529200000     1.3850400000     1.0135780000
   17      H       0.4208300000     3.3802440000     4.1344160000
   18      H      -1.2897560000     1.4186190000     2.7183220000
   19      H      -1.5287330000     3.1209190000     2.3468830000
   20      H      -1.7459960000     1.8478370000     5.1431550000
   21      H      -3.1023250000     2.3841670000     4.1295310000
   22      H      -1.9730250000     3.5692960000     4.8011060000
   23      H       4.1714380000     2.0317430000    -0.9724980000
   24      H       6.1210620000     2.2905630000     0.8148240000
   25      H       5.8821540000     3.9930050000     0.4439910000
   26      H       6.5651990000     1.8430450000    -1.6396030000
   27      H       7.6946330000     3.0278090000    -0.9676100000
   28      H       6.3383180000     3.5646530000    -1.9809880000
 ----------------------------------------------------------------

   17    -649.6828083324      3.00e-09  Convergence criterion met
 Total energy in the final basis set =     -649.7750156156

                    Orbital Energies (a.u.)
 --------------------------------------------------------------

 Alpha MOs
 -- Occupied --
-19.0682 -19.0682 -14.3183 -14.3183 -10.2152 -10.2152 -10.2054 -10.2054
-10.2017 -10.2017 -10.1667 -10.1667 -10.1517 -10.1517  -0.9937  -0.9903
 -0.9273  -0.9267  -0.8105  -0.7689  -0.7478  -0.7143  -0.6697  -0.6416
 -0.6206  -0.5784  -0.5750  -0.5139  -0.4936  -0.4897  -0.4763  -0.4673
 -0.4538  -0.4345  -0.4217  -0.4135  -0.4083  -0.3980  -0.3867  -0.3799
 -0.3792  -0.3702  -0.3685  -0.3621  -0.3612  -0.3491  -0.3096  -0.2961
 -0.2419  -0.2378  -0.2353  -0.2057  -0.1423

 Beta MOs
 -- Occupied --
-19.0624 -19.0624 -14.3170 -14.3170 -10.2133 -10.2133 -10.2054 -10.2054
-10.1994 -10.1994 -10.1667 -10.1667 -10.1523 -10.1523  -0.9843  -0.9806
 -0.9240  -0.9229  -0.8056  -0.7675  -0.7470  -0.7129  -0.6620  -0.6405
 -0.6183  -0.5750  -0.5724  -0.5118  -0.4919  -0.4870  -0.4745  -0.4654
 -0.4523  -0.4331  -0.4198  -0.4065  -0.4015  -0.3923  -0.3817  -0.3786
 -0.3767  -0.3672  -0.3669  -0.3592  -0.3474  -0.3409  -0.3019  -0.2771
 -0.2363  -0.2298  -0.2204  -0.1975

          Ground-State Mulliken Net Atomic Charges

     Atom                 Charge (a.u.)    Spin (a.u.)
  --------------------------------------------------------
      1 C                    -1.252921       0.105014
      2 C                     0.367612      -0.075738
      3 C                    -0.554536       0.207440
      4 C                    -1.252529       0.105031
      5 C                     0.367437      -0.075742
      6 C                    -0.554202       0.207418
      7 O                    -0.400385       0.211837
      8 O                    -0.400392       0.211838
      9 N                    -0.000299       0.054806
     10 C                    -0.188378      -0.011064
     11 C                     0.249519       0.002349
     12 N                    -0.000283       0.054803
     13 C                    -0.188355      -0.011069
     14 C                     0.249404       0.002349
     15 H                     0.117718      -0.000524
     16 H                     0.117716      -0.000523
     17 H                     0.243036      -0.003437
     18 H                     0.163819      -0.000026
     19 H                     0.135882       0.009129
     20 H                     0.165075       0.001686
     21 H                     0.288276      -0.000656
     22 H                     0.165378      -0.000810
     23 H                     0.243019      -0.003436
     24 H                     0.135875       0.009131
     25 H                     0.163818      -0.000027
     26 H                     0.165367      -0.000811
     27 H                     0.288266      -0.000656
     28 H                     0.165063       0.001687
  --------------------------------------------------------
  Sum of atomic charges =    -1.000000

                    Cartesian Multipole Moments
 -----------------------------------------------------------------
    Charge (ESU x 10^10)
                -4.8032
    Dipole Moment (Debye)
         X     -11.0295      Y     -12.9970      Z      -7.5936
       Tot      18.6610
    Quadrupole Moments (Debye-Ang)
        XX    -105.5019     XY     -32.5487     YY    -135.6028
        XZ     -24.6934     YZ     -33.5042     ZZ    -128.0174

 Total job time:  545.21s(wall), 4180.69s(cpu)
        *  Thank you very much for using Q-Chem.  Have a nice day.  *
