 Gaussian 16, Revision A.03,
 Gaussian 16:  ES64L-G16RevA.03 25-Dec-2016

 ----------------------------------------------
 #P UB3LYP/6-311++G(d,p) nosym opt freq SCF=YQC
 ----------------------------------------------

 -------
 Reduced
 -------
 Symbolic Z-matrix:
 Charge = -2 Multiplicity = 1

 SCF Done:  E(UB3LYP) =  -764.137900582     a.u. after   15 cycles
 SCF Done:  E(UB3LYP) =  -764.138668640     A.U. after   33 cycles
 SCF Done:  E(UB3LYP) =  -764.139126238     a.u. after    9 cycles
 SCF Done:  E(UB3LYP) =  -764.165189651     a.u. after   29 cycles
 SCF Done:  E(UB3LYP) =  -764.165984098     A.U. after   28 cycles
 SCF Done:  E(UB3LYP) =  -764.170662434     a.u. after   26 cycles
 SCF Done:  E(UB3LYP) =  -764.170882903     A.U. after   26 cycles
 SCF Done:  E(UB3LYP) =  -764.171151481     a.u. after   15 cycles
 SCF Done:  E(UB3LYP) =  -764.171246851     A.U. after   20 cycles
 SCF Done:  E(UB3LYP) =  -764.171507193     a.u. after   32 cycles
 SCF Done:  E(UB3LYP) =  -764.173641419     a.u. after   16 cycles
 SCF Done:  E(UB3LYP) =  -764.173788555     A.U. after   28 cycles
 SCF Done:  E(UB3LYP) =  -764.173784472     a.u. after    7 cycles
 SCF Done:  E(UB3LYP) =  -764.173831599     A.U. after   22 cycles
 SCF Done:  E(UB3LYP) =  -764.173788389     a.u. after    4 cycles
 SCF Done:  E(UB3LYP) =  -764.173839909     A.U. after   23 cycles
 SCF Done:  E(UB3LYP) =  -764.173834558     a.u. after    1 cycles
 SCF Done:  E(UB3LYP) =  -764.173840864     A.U. after   21 cycles
 Optimization completed.
    -- Stationary point found.
 Normal termination of Gaussian 16 at Thu Dec 21 11:18:17 2023.

 ----------------------------------------------------------------------
 #P Geom=AllCheck Guess=TCheck SCRF=Check GenChk UB3LYP/6-311++G(d,p) F
 req
 ----------------------------------------------------------------------

 Structure from the checkpoint file:  "178-an.chk"
 -------
 Reduced
 -------
 Charge = -2 Multiplicity = 1

                          Input orientation:
 ---------------------------------------------------------------------
 Center     Atomic      Atomic             Coordinates (Angstroms)
 Number     Number       Type             X           Y           Z
 ---------------------------------------------------------------------
      1          8           0       -4.607197   -0.852204    1.196263
      2          6           0       -3.407001   -0.343884    0.690471
      3          6           0       -3.412051    0.850316   -0.077832
      4          6           0       -2.217340    1.335154   -0.573245
      5          6           0       -0.978712    0.706482   -0.314057
      6          6           0        0.238532    1.297081   -0.847388
      7          8           0        0.237872    2.373047   -1.539796
      8          6           0        1.451237    0.564464   -0.538497
      9          6           0        2.694918    1.049831   -1.011504
     10          6           0        3.886884    0.403705   -0.750286
     11          6           0        3.879466   -0.792012    0.022657
     12          6           0        2.684860   -1.290620    0.499449
     13          6           0        1.441776   -0.653843    0.246604
     14          6           0        0.228083   -1.235889    0.784251
     15          8           0        0.230016   -2.310902    1.485005
     16          6           0       -0.983598   -0.507475    0.471054
     17          6           0       -2.231588   -1.005715    0.940347
     18          1           0       -5.328723   -0.536265    0.631438
     19          1           0       -4.348344    1.376408   -0.255372
     20          1           0       -2.187706    2.242620   -1.167894
     21          1           0        2.665364    1.964327   -1.596268
     22          1           0        4.825053    0.803986   -1.130612
     23          1           0        4.813547   -1.309578    0.235473
     24          1           0        2.647340   -2.199672    1.091885
     25          1           0       -2.222690   -1.929360    1.507854
 ---------------------------------------------------------------------

 SCF Done:  E(UB3LYP) =  -764.173840864     a.u. after    1 cycles
 SCF Done:  E(UB3LYP) =  -764.173840864     A.U. after    2 cycles

 Alpha  occ. eigenvalues --  -18.92467 -18.79668 -18.78861  -9.98877  -9.95436
 Alpha  occ. eigenvalues --   -9.94740  -9.93779  -9.93674  -9.93575  -9.93203
 Alpha  occ. eigenvalues --   -9.92994  -9.92830  -9.91898  -9.91464  -9.91407
 Alpha  occ. eigenvalues --   -9.91368  -9.91283  -0.82501  -0.71446  -0.70515
 Alpha  occ. eigenvalues --   -0.60639  -0.60058  -0.52992  -0.50484  -0.50389
 Alpha  occ. eigenvalues --   -0.48490  -0.41587  -0.39198  -0.37653  -0.34302
 Alpha  occ. eigenvalues --   -0.32173  -0.30203  -0.28362  -0.25514  -0.23069
 Alpha  occ. eigenvalues --   -0.22169  -0.20890  -0.18994  -0.18147  -0.17919
 Alpha  occ. eigenvalues --   -0.16386  -0.16071  -0.15066  -0.14776  -0.13180
 Alpha  occ. eigenvalues --   -0.12799  -0.10826  -0.10289  -0.09831  -0.09384
 Alpha  occ. eigenvalues --   -0.07641  -0.06787  -0.01239  -0.00069   0.00483
 Alpha  occ. eigenvalues --    0.01611   0.02787   0.03670   0.12772
 Alpha virt. eigenvalues --    0.14563   0.15660   0.17432   0.17938   0.19483
 Alpha virt. eigenvalues --    0.19761   0.20907   0.21149   0.22037   0.22417
 Alpha virt. eigenvalues --    0.23902   0.24769   0.25489   0.25979   0.26527

  Beta  occ. eigenvalues --  -18.92467 -18.79668 -18.78861  -9.98877  -9.95436
  Beta  occ. eigenvalues --   -9.94740  -9.93779  -9.93674  -9.93575  -9.93203
  Beta  occ. eigenvalues --   -9.92994  -9.92830  -9.91898  -9.91464  -9.91407
  Beta  occ. eigenvalues --   -9.91368  -9.91283  -0.82501  -0.71446  -0.70515
  Beta  occ. eigenvalues --   -0.60639  -0.60058  -0.52992  -0.50484  -0.50389
  Beta  occ. eigenvalues --   -0.48490  -0.41587  -0.39198  -0.37653  -0.34302
  Beta  occ. eigenvalues --   -0.32173  -0.30203  -0.28362  -0.25514  -0.23069
  Beta  occ. eigenvalues --   -0.22169  -0.20890  -0.18994  -0.18147  -0.17919
  Beta  occ. eigenvalues --   -0.16386  -0.16071  -0.15066  -0.14776  -0.13180
  Beta  occ. eigenvalues --   -0.12799  -0.10826  -0.10289  -0.09831  -0.09384
  Beta  occ. eigenvalues --   -0.07641  -0.06787  -0.01239  -0.00069   0.00483
  Beta  occ. eigenvalues --    0.01611   0.02787   0.03670   0.12772
  Beta virt. eigenvalues --    0.14563   0.15660   0.17432   0.17938   0.19483
  Beta virt. eigenvalues --    0.19761   0.20907   0.21149   0.22037   0.22417
  Beta virt. eigenvalues --    0.23902   0.24769   0.25489   0.25979   0.26527

 Mulliken charges and spin densities:
               1          2
     1  O   -0.342129   0.000000
     2  C    0.197540  -0.000000
     3  C   -0.463571   0.000000
     4  C   -0.217539   0.000000
     5  C    0.182904   0.000000
     6  C   -0.814128  -0.000000
     7  O   -0.481608  -0.000000
     8  C    0.321299  -0.000000
     9  C    0.053387  -0.000000
    10  C   -0.438024  -0.000000
    11  C   -0.430750  -0.000000
    12  C   -0.011870  -0.000000
    13  C    0.499046   0.000000
    14  C   -0.656915  -0.000000
    15  O   -0.492866  -0.000000
    16  C    0.809458  -0.000000
    17  C    0.335173  -0.000000
    18  H   -0.332980   0.000000
    19  H   -0.481289   0.000000
    20  H    0.178596  -0.000000
    21  H    0.134013  -0.000000
    22  H    0.075416   0.000000
    23  H    0.077581   0.000000
    24  H    0.132067   0.000000
    25  H    0.167186  -0.000000
 Sum of Mulliken charges =  -2.00000  -0.00000

 Dipole moment (field-independent basis, Debye):
    X=              5.6781    Y=              0.8839    Z=             -0.8874  Tot=              5.8146
 Quadrupole moment (field-independent basis, Debye-Ang):
   XX=           -200.0882   YY=           -144.9281   ZZ=           -129.3653
   XY=             -2.8562   XZ=              8.9774   YZ=             21.2451

  Exact polarizability:1714.840 -67.203 354.919  -4.128-111.474 199.260
 Approx polarizability:5640.266-129.013 474.190 -20.630-164.516 297.880

                      1                      2                      3
                      A                      A                      A
 Frequencies --     52.4412               102.6282               134.7255
 Red. masses --      7.2172                 4.7879                 5.0696
 Frc consts  --      0.0117                 0.0297                 0.0542
 IR Inten    --      1.0905                 2.1389                 3.0544

                      4                      5                      6
                      A                      A                      A
 Frequencies --    164.1096               193.0502               211.6051
 Red. masses --      7.0406                 6.1700                 5.2169
 Frc consts  --      0.1117                 0.1355                 0.1376
 IR Inten    --     10.1880                 1.2351                 2.8707

                      7                      8                      9
                      A                      A                      A
 Frequencies --    279.7570               288.3457               319.4981
 Red. masses --      6.9157                 1.1304                 6.0672
 Frc consts  --      0.3189                 0.0554                 0.3649
 IR Inten    --      2.0241                74.5631                 5.5777

                     10                     11                     12
                      A                      A                      A
 Frequencies --    335.5159               368.5247               387.7243
 Red. masses --      8.5817                 9.8819                 6.6616
 Frc consts  --      0.5692                 0.7907                 0.5900
 IR Inten    --     56.1481                 2.9601                84.7874

                     13                     14                     15
                      A                      A                      A
 Frequencies --    406.8460               435.6085               450.0739
 Red. masses --      6.0203                 3.7166                 5.2678
 Frc consts  --      0.5871                 0.4155                 0.6287
 IR Inten    --      2.2004                 4.6080                 7.8868

                     16                     17                     18
                      A                      A                      A
 Frequencies --    473.5010               482.5338               537.8908
 Red. masses --      2.9436                11.9951                 4.4507
 Frc consts  --      0.3888                 1.6455                 0.7587
 IR Inten    --     14.8831               420.9375                 9.4002

                     19                     20                     21
                      A                      A                      A
 Frequencies --    573.8256               636.1039               642.3786
 Red. masses --      6.4959                 6.2896                 3.7116
 Frc consts  --      1.2602                 1.4995                 0.9024
 IR Inten    --      2.7637                 2.8651                12.7662

                     22                     23                     24
                      A                      A                      A
 Frequencies --    663.5473               689.2992               692.7254
 Red. masses --      6.8215                 1.8564                 5.9277
 Frc consts  --      1.7696                 0.5197                 1.6759
 IR Inten    --     22.3975                78.4933                 5.9275

                     25                     26                     27
                      A                      A                      A
 Frequencies --    710.5812               746.3613               749.5302
 Red. masses --      4.2948                 1.7358                 6.1296
 Frc consts  --      1.2777                 0.5697                 2.0289
 IR Inten    --      8.3617                73.7241                41.9204

                     28                     29                     30
                      A                      A                      A
 Frequencies --    760.0979               783.1249               825.4463
 Red. masses --      2.2559                 1.6633                 3.8820
 Frc consts  --      0.7679                 0.6010                 1.5584
 IR Inten    --     32.1141                20.5034                 4.0564

                     31                     32                     33
                      A                      A                      A
 Frequencies --    854.8326               907.4902               930.6705
 Red. masses --      6.6027                 1.4304                 6.0353
 Frc consts  --      2.8427                 0.6941                 3.0799
 IR Inten    --     79.5941                17.5004                 6.5267

                     34                     35                     36
                      A                      A                      A
 Frequencies --    954.3434               960.2642               964.4101
 Red. masses --      1.2461                 1.3091                 1.3626
 Frc consts  --      0.6686                 0.7112                 0.7467
 IR Inten    --      4.8461                17.4602                30.0824

                     37                     38                     39
                      A                      A                      A
 Frequencies --    975.1845              1012.5569              1091.2798
 Red. masses --      3.4483                 2.0542                 2.5671
 Frc consts  --      1.9321                 1.2409                 1.8012
 IR Inten    --    215.2285               317.6025                80.0970

                     40                     41                     42
                      A                      A                      A
 Frequencies --   1101.8571              1109.8106              1132.5784
 Red. masses --      1.7129                 1.7680                 1.3765
 Frc consts  --      1.2253                 1.2830                 1.0403
 IR Inten    --     66.1980               110.4513               325.8234

                     43                     44                     45
                      A                      A                      A
 Frequencies --   1178.7341              1185.2376              1205.2634
 Red. masses --      1.7588                 1.7306                 1.6990
 Frc consts  --      1.4398                 1.4324                 1.4541
 IR Inten    --    171.6212                17.9549                15.9398

                     46                     47                     48
                      A                      A                      A
 Frequencies --   1214.2982              1224.6412              1250.3150
 Red. masses --      4.5193                 2.3740                 2.2685
 Frc consts  --      3.9262                 2.0977                 2.0895
 IR Inten    --     91.6588               643.2574               196.8176

                     49                     50                     51
                      A                      A                      A
 Frequencies --   1335.2014              1343.5988              1352.8705
 Red. masses --      6.9826                 2.3261                 6.7796
 Frc consts  --      7.3343                 2.4741                 7.3108
 IR Inten    --    403.8211                63.7739               154.9263

                     52                     53                     54
                      A                      A                      A
 Frequencies --   1382.5892              1445.6019              1462.4094
 Red. masses --      2.9864                 3.2432                 4.1685
 Frc consts  --      3.3635                 3.9932                 5.2525
 IR Inten    --    795.9357               238.9738               221.1374

                     55                     56                     57
                      A                      A                      A
 Frequencies --   1468.0795              1483.8779              1497.0894
 Red. masses --      3.9187                 4.3019                 4.6499
 Frc consts  --      4.9761                 5.5810                 6.1403
 IR Inten    --   2144.7462               115.1020               314.4324

                     58                     59                     60
                      A                      A                      A
 Frequencies --   1530.8358              1569.9876              1585.2947
 Red. masses --      5.5783                 7.2288                 5.4046
 Frc consts  --      7.7021                10.4980                 8.0026
 IR Inten    --    462.6882              1726.9278               118.4377

                     61                     62                     63
                      A                      A                      A
 Frequencies --   1615.9526              3091.9833              3112.7033
 Red. masses --      5.6952                 1.0826                 1.0877
 Frc consts  --      8.7623                 6.0978                 6.2093
 IR Inten    --    227.4130                45.3595                91.5638

                     64                     65                     66
                      A                      A                      A
 Frequencies --   3115.7447              3156.4268              3159.6230
 Red. masses --      1.0903                 1.0904                 1.0913
 Frc consts  --      6.2364                 6.4009                 6.4189
 IR Inten    --    261.2838                44.8287               163.2495

                     67                     68                     69
                      A                      A                      A
 Frequencies --   3163.1275              3179.7185              3666.6503
 Red. masses --      1.0906                 1.0891                 1.0657
 Frc consts  --      6.4289                 6.4876                 8.4417
 IR Inten    --     27.2993                13.7148              2306.4794

 - Thermochemistry -
 -------------------
 Temperature   298.150 Kelvin.  Pressure   1.00000 Atm.
 Atom     1 has atomic number  8 and mass  15.99491

 Molecular mass:   224.04734 amu.
 Principal axes and moments of inertia in atomic units:
                           1         2         3
     Eigenvalues --  1768.545975330.129347097.62112
           X            0.98896  -0.10077   0.10868
           Y            0.02651   0.84174   0.53923
           Z           -0.14582  -0.53040   0.83512
 This molecule is an asymmetric top.
 Rotational symmetry number  1.
 Warning -- assumption of classical behavior for rotation
           may cause significant error
 Rotational temperatures (Kelvin)      0.04897     0.01625     0.01220
 Rotational constants (GHZ):           1.02047     0.33859     0.25427
 Zero-point vibrational energy     466965.5 (Joules/Mol)
                                  111.60743 (Kcal/Mol)
 Warning -- explicit consideration of  19 degrees of freedom as
           vibrations may cause significant error
 Vibrational temperatures:     75.45   147.66   193.84   236.12   277.76
          (Kelvin)            304.45   402.51   414.87   459.69   482.73
                              530.22   557.85   585.36   626.74   647.56
                              681.26   694.26   773.90   825.61   915.21
                              924.24   954.70   991.75   996.68  1022.37
                             1073.85  1078.41  1093.61  1126.74  1187.63
                             1229.91  1305.68  1339.03  1373.09  1381.61
                             1387.57  1403.07  1456.84  1570.11  1585.33
                             1596.77  1629.53  1695.94  1705.29  1734.11
                             1747.10  1761.99  1798.92  1921.06  1933.14
                             1946.48  1989.24  2079.90  2104.08  2112.24
                             2134.97  2153.98  2202.53  2258.86  2280.89
                             2325.00  4448.67  4478.49  4482.86  4541.39
                             4545.99  4551.03  4574.91  5275.49

 Zero-point correction=                           0.177858 (Hartree/Particle)
 Thermal correction to Energy=                    0.190493
 Thermal correction to Enthalpy=                  0.191437
 Thermal correction to Gibbs Free Energy=         0.139178
 Sum of electronic and zero-point Energies=           -763.995983
 Sum of electronic and thermal Energies=              -763.983348
 Sum of electronic and thermal Enthalpies=            -763.982403
 Sum of electronic and thermal Free Energies=         -764.034663

                     E (Thermal)             CV                S
                      KCal/Mol        Cal/Mol-Kelvin    Cal/Mol-Kelvin
 Total                  119.536             51.876            109.989
 Electronic               0.000              0.000              0.000
 Translational            0.889              2.981             42.123
 Rotational               0.889              2.981             32.570
 Vibrational            117.759             45.914             35.297
 Vibration     1          0.596              1.977              4.723
 Vibration     2          0.605              1.947              3.404
 Vibration     3          0.613              1.919              2.877
 Vibration     4          0.623              1.887              2.502
 Vibration     5          0.635              1.850              2.198
 Vibration     6          0.643              1.823              2.030
 Vibration     7          0.680              1.711              1.535
 Vibration     8          0.685              1.695              1.484
 Vibration     9          0.705              1.636              1.313
 Vibration    10          0.717              1.605              1.233
 Vibration    11          0.741              1.537              1.086
 Vibration    12          0.756              1.496              1.009
 Vibration    13          0.772              1.455              0.938
 Vibration    14          0.796              1.393              0.841
 Vibration    15          0.809              1.361              0.796
 Vibration    16          0.830              1.309              0.728
 Vibration    17          0.839              1.289              0.703
 Vibration    18          0.893              1.166              0.570
 Vibration    19          0.930              1.088              0.497

 Optimization completed.
    -- Stationary point found.
 Normal termination of Gaussian 16 at Thu Dec 21 11:42:31 2023.
