 Gaussian 16, Revision A.03,
 Gaussian 16:  ES64L-G16RevA.03 25-Dec-2016

 ----------------------------------------------------------------------
 #P UB3LYP/6-311++G(d,p) nosym opt freq SCRF=(PCM,Solvent=n,n-DiMethylF
 ormamide)
 ----------------------------------------------------------------------

 --------
 Oxidized
 --------
 Symbolic Z-matrix:
 Charge =  0 Multiplicity = 1

 SCF Done:  E(UB3LYP) =  -843.789666185     A.U. after   16 cycles
 SCF Done:  E(UB3LYP) =  -843.789902322     A.U. after   13 cycles
 SCF Done:  E(UB3LYP) =  -843.789959141     A.U. after   13 cycles
 SCF Done:  E(UB3LYP) =  -843.790080484     A.U. after   13 cycles
 SCF Done:  E(UB3LYP) =  -843.790085978     A.U. after   12 cycles
 SCF Done:  E(UB3LYP) =  -843.790086570     A.U. after   11 cycles
 SCF Done:  E(UB3LYP) =  -843.790088346     A.U. after   11 cycles
 SCF Done:  E(UB3LYP) =  -843.790088435     A.U. after   10 cycles
 SCF Done:  E(UB3LYP) =  -843.790088420     A.U. after    9 cycles
 Optimization completed.
    -- Stationary point found.
 Normal termination of Gaussian 16 at Sat Feb 10 11:12:14 2024.

 ----------------------------------------------------------------------
 #P Geom=AllCheck Guess=TCheck SCRF=Check GenChk UB3LYP/6-311++G(d,p) F
 req
 ----------------------------------------------------------------------

 Structure from the checkpoint file:  "063.chk"
 --------
 Oxidized
 --------
 Charge =  0 Multiplicity = 1

                          Input orientation:
 ---------------------------------------------------------------------
 Center     Atomic      Atomic             Coordinates (Angstroms)
 Number     Number       Type             X           Y           Z
 ---------------------------------------------------------------------
      1          6           0       -1.570099   -1.977386    1.424632
      2          6           0       -2.124110   -2.043406    0.055093
      3          6           0       -1.782793   -1.144527   -0.871635
      4          6           0       -0.808903   -0.072157   -0.574059
      5          6           0       -0.225780    0.013220    0.807718
      6          6           0       -0.588479   -0.889867    1.756932
      7          8           0       -1.934749   -2.785677    2.267546
      8          8           0       -0.474864    0.707502   -1.455768
      9          1           0       -2.181718   -1.161115   -1.879345
     10          6           0        0.591136   -1.931439    3.715027
     11          6           0       -0.361092    0.272786    3.964693
     12          6           0        1.041143   -1.884569    5.032436
     13          6           0        0.782713   -0.764521    5.823252
     14          6           0        0.075442    0.311451    5.287242
     15          1           0       -2.824495   -2.847750   -0.138248
     16          1           0        0.793106   -2.806949    3.109563
     17          1           0       -0.910121    1.111681    3.553672
     18          1           0        1.589881   -2.724978    5.442163
     19          1           0        1.127319   -0.732223    6.850595
     20          1           0       -0.137036    1.182058    5.897297
     21          6           0        0.778523    1.087708    1.033299
     22          6           0        0.433613    2.435973    0.869506
     23          6           0        2.093886    0.762176    1.388721
     24          6           0        1.378439    3.437125    1.081997
     25          6           0        3.042116    1.764012    1.585006
     26          6           0        2.685888    3.104422    1.437751
     27          1           0       -0.578450    2.703133    0.589809
     28          1           0        2.376481   -0.277492    1.504549
     29          1           0        1.094129    4.476748    0.965233
     30          1           0        4.057930    1.496502    1.853016
     31          1           0        3.422196    3.884199    1.595946
     32          6           0       -0.104089   -0.847093    3.163180
 ---------------------------------------------------------------------

 SCF Done:  E(UB3LYP) =  -843.790088420     A.U. after    1 cycles

 Alpha  occ. eigenvalues --  -19.14500 -19.14498 -10.29122 -10.29121 -10.22583
 Alpha  occ. eigenvalues --  -10.22513 -10.21482 -10.21397 -10.20152 -10.20152
 Alpha  occ. eigenvalues --  -10.18740 -10.18737 -10.18704 -10.18704 -10.18515
 Alpha  occ. eigenvalues --  -10.18514 -10.18438 -10.18435 -10.18419 -10.18416
 Alpha  occ. eigenvalues --   -1.07562  -1.07371  -0.89071  -0.87062  -0.85859
 Alpha  occ. eigenvalues --   -0.81623  -0.77661  -0.75942  -0.75928  -0.74251
 Alpha  occ. eigenvalues --   -0.70780  -0.65829  -0.63446  -0.61911  -0.61783
 Alpha  occ. eigenvalues --   -0.59380  -0.58917  -0.53616  -0.53052  -0.53044
 Alpha  occ. eigenvalues --   -0.50621  -0.48561  -0.47599  -0.47355  -0.46436
 Alpha  occ. eigenvalues --   -0.46435  -0.44636  -0.44616  -0.44174  -0.43381
 Alpha  occ. eigenvalues --   -0.43233  -0.43138  -0.42111  -0.41609  -0.38442
 Alpha  occ. eigenvalues --   -0.37889  -0.36498  -0.36269  -0.35988  -0.35729
 Alpha  occ. eigenvalues --   -0.31585  -0.30761  -0.29813  -0.28353  -0.27543
 Alpha  occ. eigenvalues --   -0.26684  -0.26603  -0.25023
 Alpha virt. eigenvalues --   -0.13918  -0.05237  -0.03278  -0.02410  -0.02113
 Alpha virt. eigenvalues --   -0.01166  -0.00846  -0.00231   0.00381   0.00391
 Alpha virt. eigenvalues --    0.01029   0.01860   0.02210   0.02390   0.03428

  Beta  occ. eigenvalues --  -19.14500 -19.14498 -10.29122 -10.29121 -10.22583
  Beta  occ. eigenvalues --  -10.22513 -10.21482 -10.21397 -10.20152 -10.20152
  Beta  occ. eigenvalues --  -10.18740 -10.18737 -10.18704 -10.18704 -10.18515
  Beta  occ. eigenvalues --  -10.18514 -10.18438 -10.18435 -10.18419 -10.18416
  Beta  occ. eigenvalues --   -1.07562  -1.07371  -0.89071  -0.87062  -0.85859
  Beta  occ. eigenvalues --   -0.81623  -0.77661  -0.75942  -0.75928  -0.74251
  Beta  occ. eigenvalues --   -0.70780  -0.65829  -0.63446  -0.61911  -0.61783
  Beta  occ. eigenvalues --   -0.59380  -0.58917  -0.53616  -0.53052  -0.53044
  Beta  occ. eigenvalues --   -0.50621  -0.48561  -0.47599  -0.47355  -0.46436
  Beta  occ. eigenvalues --   -0.46435  -0.44636  -0.44616  -0.44174  -0.43381
  Beta  occ. eigenvalues --   -0.43233  -0.43138  -0.42111  -0.41609  -0.38442
  Beta  occ. eigenvalues --   -0.37889  -0.36498  -0.36269  -0.35988  -0.35729
  Beta  occ. eigenvalues --   -0.31585  -0.30761  -0.29813  -0.28353  -0.27543
  Beta  occ. eigenvalues --   -0.26684  -0.26603  -0.25023
  Beta virt. eigenvalues --   -0.13918  -0.05237  -0.03278  -0.02410  -0.02113
  Beta virt. eigenvalues --   -0.01166  -0.00846  -0.00231   0.00381   0.00391
  Beta virt. eigenvalues --    0.01029   0.01860   0.02210   0.02390   0.03428

 Mulliken charges and spin densities:
               1          2
     1  C   -0.618128   0.000000
     2  C   -0.061572   0.000000
     3  C   -0.058337  -0.000000
     4  C   -0.621657  -0.000000
     5  C   -0.006607  -0.000000
     6  C   -0.003480  -0.000000
     7  O   -0.250531   0.000000
     8  O   -0.251052   0.000000
     9  H    0.246113   0.000000
    10  C   -0.269072   0.000000
    11  C   -0.439268  -0.000000
    12  C   -0.329779  -0.000000
    13  C   -0.307165  -0.000000
    14  C   -0.488664  -0.000000
    15  H    0.245997   0.000000
    16  H    0.223228   0.000000
    17  H    0.206080  -0.000000
    18  H    0.203711  -0.000000
    19  H    0.189560   0.000000
    20  H    0.202311   0.000000
    21  C    1.502440   0.000000
    22  C   -0.271410   0.000000
    23  C   -0.439439   0.000000
    24  C   -0.331497   0.000000
    25  C   -0.487914  -0.000000
    26  C   -0.307258  -0.000000
    27  H    0.223162   0.000000
    28  H    0.205700   0.000000
    29  H    0.203760   0.000000
    30  H    0.202342   0.000000
    31  H    0.189533  -0.000000
    32  C    1.498894   0.000000
 Sum of Mulliken charges =  -0.00000  -0.00000

 Dipole moment (field-independent basis, Debye):
    X=              0.7505    Y=              0.5820    Z=              0.8432  Tot=              1.2701
 Quadrupole moment (field-independent basis, Debye-Ang):
   XX=           -108.9723   YY=           -111.2455   ZZ=           -115.3375
   XY=             -4.2918   XZ=             13.3086   YZ=             12.9824

  Exact polarizability: 254.581  38.888 331.904  23.499 -50.845 322.920
 Approx polarizability: 294.971  33.372 405.873  14.929 -78.004 376.225

                      1                      2                      3
                      A                      A                      A
 Frequencies --     37.3612                43.2931                49.6864
 Red. masses --      5.9679                 3.8473                 5.1155
 Frc consts  --      0.0049                 0.0042                 0.0074
 IR Inten    --      0.0162                 2.3020                 0.0360

                      4                      5                      6
                      A                      A                      A
 Frequencies --     56.4805                65.0876                93.8465
 Red. masses --      4.9224                 5.9065                 5.9595
 Frc consts  --      0.0093                 0.0147                 0.0309
 IR Inten    --      0.4572                15.2007                 0.9808

                      7                      8                      9
                      A                      A                      A
 Frequencies --    118.9484               191.1399               220.9834
 Red. masses --      5.7826                 5.3002                 6.4766
 Frc consts  --      0.0482                 0.1141                 0.1863
 IR Inten    --      2.4215                 0.3307                 0.2897

                     10                     11                     12
                      A                      A                      A
 Frequencies --    248.6239               269.2787               295.5808
 Red. masses --      4.7269                 4.4061                 6.7508
 Frc consts  --      0.1722                 0.1882                 0.3475
 IR Inten    --      2.4616                 0.0374                 6.4158

                     13                     14                     15
                      A                      A                      A
 Frequencies --    305.1744               398.8488               411.2879
 Red. masses --      5.9297                 5.5091                 2.8994
 Frc consts  --      0.3254                 0.5164                 0.2890
 IR Inten    --      0.4083                 0.5054                 4.5626

                     16                     17                     18
                      A                      A                      A
 Frequencies --    411.4682               448.5523               485.9914
 Red. masses --      2.8745                 9.6090                 9.1356
 Frc consts  --      0.2867                 1.1391                 1.2713
 IR Inten    --      2.5793                22.3353                23.3456

                     19                     20                     21
                      A                      A                      A
 Frequencies --    493.3113               522.6370               563.1177
 Red. masses --      3.9720                 4.0831                 5.2096
 Frc consts  --      0.5695                 0.6571                 0.9733
 IR Inten    --     11.8614                33.3336                 4.0216

                     22                     23                     24
                      A                      A                      A
 Frequencies --    609.4830               624.6690               635.0850
 Red. masses --      5.9958                 3.8888                 6.3981
 Frc consts  --      1.3123                 0.8941                 1.5204
 IR Inten    --      7.1127                 1.0998                 0.3333

                     25                     26                     27
                      A                      A                      A
 Frequencies --    640.1606               642.9044               675.0672
 Red. masses --      3.6165                 3.9578                 6.9196
 Frc consts  --      0.8732                 0.9638                 1.8579
 IR Inten    --     25.6586                 2.4376                 0.0010

                     28                     29                     30
                      A                      A                      A
 Frequencies --    709.1627               709.9819               735.7621
 Red. masses --      1.6652                 1.6484                 6.9628
 Frc consts  --      0.4934                 0.4896                 2.2208
 IR Inten    --    105.9503                54.6493                22.9260

                     31                     32                     33
                      A                      A                      A
 Frequencies --    759.5147               772.5499               836.3998
 Red. masses --      2.0649                 2.1497                 7.6546
 Frc consts  --      0.7018                 0.7559                 3.1550
 IR Inten    --     55.6743                13.6544                 1.5155

                     34                     35                     36
                      A                      A                      A
 Frequencies --    856.5204               857.4812               864.0900
 Red. masses --      1.2583                 1.2648                 2.1303
 Frc consts  --      0.5439                 0.5479                 0.9372
 IR Inten    --      1.6393                 3.7801                74.1847

                     37                     38                     39
                      A                      A                      A
 Frequencies --    887.3195               888.9311               941.0830
 Red. masses --      6.1681                 3.4548                 1.4531
 Frc consts  --      2.8613                 1.6085                 0.7582
 IR Inten    --      6.7158                 0.7225                 0.2816

                     40                     41                     42
                      A                      A                      A
 Frequencies --    943.7829               992.7937               993.6010
 Red. masses --      1.7539                 1.3761                 1.3746
 Frc consts  --      0.9205                 0.7991                 0.7995
 IR Inten    --      5.6997                 0.8781                 1.0814

                     43                     44                     45
                      A                      A                      A
 Frequencies --   1011.1832              1012.1742              1013.6601
 Red. masses --      1.3748                 1.3065                 5.5639
 Frc consts  --      0.8282                 0.7886                 3.3683
 IR Inten    --      2.9460                 0.2304                 3.1888

                     46                     47                     48
                      A                      A                      A
 Frequencies --   1014.4049              1021.3283              1023.5879
 Red. masses --      6.0886                 1.2759                 4.3387
 Frc consts  --      3.6914                 0.7841                 2.6783
 IR Inten    --      1.2552                 0.2066                86.4932

                     49                     50                     51
                      A                      A                      A
 Frequencies --   1047.8207              1054.2755              1100.4835
 Red. masses --      2.2454                 2.0522                 1.6021
 Frc consts  --      1.4525                 1.3439                 1.1431
 IR Inten    --      5.9956                 1.3751                 2.4738

                     52                     53                     54
                      A                      A                      A
 Frequencies --   1102.0011              1111.3982              1177.1286
 Red. masses --      1.6152                 1.5716                 1.1061
 Frc consts  --      1.1557                 1.1437                 0.9030
 IR Inten    --     27.2756               136.9168                 0.1158

                     55                     56                     57
                      A                      A                      A
 Frequencies --   1177.4686              1199.2627              1200.5964
 Red. masses --      1.1045                 1.1445                 1.1358
 Frc consts  --      0.9022                 0.9699                 0.9646
 IR Inten    --      0.0160                 4.5722                 1.3741

                     58                     59                     60
                      A                      A                      A
 Frequencies --   1214.1077              1214.7882              1300.1448
 Red. masses --      3.4100                 2.6826                 3.6109
 Frc consts  --      2.9615                 2.3325                 3.5963
 IR Inten    --      0.7001                24.1553               253.5994

                     61                     62                     63
                      A                      A                      A
 Frequencies --   1309.2087              1315.1571              1329.7409
 Red. masses --      4.4956                 4.9218                 4.4588
 Frc consts  --      4.5399                 5.0156                 4.6452
 IR Inten    --     27.6200                 4.1908               204.2284

                     64                     65                     66
                      A                      A                      A
 Frequencies --   1353.5184              1355.3017              1392.8197
 Red. masses --      1.4797                 1.4684                 1.9503
 Frc consts  --      1.5971                 1.5891                 2.2291
 IR Inten    --      0.9770                 7.8909                11.3471

                     67                     68                     69
                      A                      A                      A
 Frequencies --   1468.9193              1469.3586              1519.0115
 Red. masses --      2.1521                 2.1570                 2.1741
 Frc consts  --      2.7360                 2.7438                 2.9556
 IR Inten    --      7.0341                14.8643                26.8727

                     70                     71                     72
                      A                      A                      A
 Frequencies --   1521.9284              1605.7804              1610.3858
 Red. masses --      2.2275                 6.0275                 5.3223
 Frc consts  --      3.0399                 9.1571                 8.1323
 IR Inten    --      2.8690                29.3592                 1.9208

                     73                     74                     75
                      A                      A                      A
 Frequencies --   1623.2135              1634.8520              1636.1313
 Red. masses --      8.2742                 5.5999                 5.7995
 Frc consts  --     12.8448                 8.8184                 9.1470
 IR Inten    --     52.4120                26.5520                11.6388

                     76                     77                     78
                      A                      A                      A
 Frequencies --   1674.1299              1688.2129              1704.9162
 Red. masses --     10.6567                11.7353                 8.5630
 Frc consts  --     17.5975                19.7060                14.6650
 IR Inten    --     18.8818              1135.8485                 7.8954

                     79                     80                     81
                      A                      A                      A
 Frequencies --   3166.3824              3166.4220              3173.7024
 Red. masses --      1.0857                 1.0857                 1.0881
 Frc consts  --      6.4133                 6.4135                 6.4573
 IR Inten    --      0.5892                 0.4132                 0.8710

                     82                     83                     84
                      A                      A                      A
 Frequencies --   3173.7704              3182.1895              3182.2513
 Red. masses --      1.0881                 1.0917                 1.0917
 Frc consts  --      6.4576                 6.5136                 6.5138
 IR Inten    --      7.1526                21.2299                22.3689

                     85                     86                     87
                      A                      A                      A
 Frequencies --   3183.1161              3188.5548              3188.5944
 Red. masses --      1.0875                 1.0946                 1.0945
 Frc consts  --      6.4920                 6.5565                 6.5563
 IR Inten    --      3.7522                 9.7176                56.7061

                     88                     89                     90
                      A                      A                      A
 Frequencies --   3194.2102              3194.3642              3199.7375
 Red. masses --      1.0981                 1.0981                 1.1002
 Frc consts  --      6.6014                 6.6020                 6.6367
 IR Inten    --     14.0715                11.4737                 4.6756

 - Thermochemistry -
 -------------------
 Temperature   298.150 Kelvin.  Pressure   1.00000 Atm.
 Atom     1 has atomic number  6 and mass  12.00000

 Molecular mass:   260.08373 amu.
 Principal axes and moments of inertia in atomic units:
                           1         2         3
     Eigenvalues --  4435.301614793.501418251.33292
           X           -0.25465   0.60138   0.75730
           Y           -0.67423   0.45097  -0.58484
           Z            0.69322   0.65953  -0.29063
 This molecule is an asymmetric top.
 Rotational symmetry number  1.
 Warning -- assumption of classical behavior for rotation
           may cause significant error
 Rotational temperatures (Kelvin)      0.01953     0.01807     0.01050
 Rotational constants (GHZ):           0.40690     0.37650     0.21872
 Zero-point vibrational energy     644241.3 (Joules/Mol)
                                  153.97737 (Kcal/Mol)
 Warning -- explicit consideration of  22 degrees of freedom as
           vibrations may cause significant error
 Vibrational temperatures:     53.75    62.29    71.49    81.26    93.65
          (Kelvin)            135.02   171.14   275.01   317.95   357.71
                              387.43   425.27   439.08   573.85   591.75
                              592.01   645.37   699.23   709.76   751.96
                              810.20   876.91   898.76   913.75   921.05
                              925.00   971.27  1020.33  1021.51  1058.60
                             1092.77  1111.53  1203.39  1232.34  1233.72
                             1243.23  1276.65  1278.97  1354.01  1357.89
                             1428.41  1429.57  1454.87  1456.29  1458.43
                             1459.50  1469.46  1472.71  1507.58  1516.87
                             1583.35  1585.53  1599.05  1693.63  1694.11
                             1725.47  1727.39  1746.83  1747.81  1870.62
                             1883.66  1892.22  1913.20  1947.41  1949.98
                             2003.96  2113.45  2114.08  2185.52  2189.72
                             2310.36  2316.99  2335.44  2352.19  2354.03
                             2408.70  2428.96  2452.99  4555.72  4555.78
                             4566.25  4566.35  4578.46  4578.55  4579.79
                             4587.62  4587.68  4595.76  4595.98  4603.71

 Zero-point correction=                           0.245379 (Hartree/Particle)
 Thermal correction to Energy=                    0.261173
 Thermal correction to Enthalpy=                  0.262117
 Thermal correction to Gibbs Free Energy=         0.200411
 Sum of electronic and zero-point Energies=           -843.544710
 Sum of electronic and thermal Energies=              -843.528915
 Sum of electronic and thermal Enthalpies=            -843.527971
 Sum of electronic and thermal Free Energies=         -843.589677

                     E (Thermal)             CV                S
                      KCal/Mol        Cal/Mol-Kelvin    Cal/Mol-Kelvin
 Total                  163.889             61.763            129.871
 Electronic               0.000              0.000              0.000
 Translational            0.889              2.981             42.567
 Rotational               0.889              2.981             33.528
 Vibrational            162.111             55.802             53.776
 Vibration     1          0.594              1.982              5.394
 Vibration     2          0.595              1.980              5.102
 Vibration     3          0.595              1.978              4.830
 Vibration     4          0.596              1.975              4.577
 Vibration     5          0.597              1.971              4.297
 Vibration     6          0.603              1.954              3.578
 Vibration     7          0.609              1.934              3.117
 Vibration     8          0.634              1.852              2.217
 Vibration     9          0.648              1.809              1.951
 Vibration    10          0.662              1.765              1.740
 Vibration    11          0.674              1.730              1.601
 Vibration    12          0.690              1.682              1.442
 Vibration    13          0.696              1.664              1.388
 Vibration    14          0.765              1.473              0.967
 Vibration    15          0.775              1.446              0.922
 Vibration    16          0.775              1.445              0.921
 Vibration    17          0.808              1.364              0.800
 Vibration    18          0.842              1.281              0.694
 Vibration    19          0.849              1.265              0.675
 Vibration    20          0.878              1.200              0.604
 Vibration    21          0.919              1.111              0.518
 Vibration    22          0.968              1.012              0.434

 Optimization completed.
    -- Stationary point found.
 Normal termination of Gaussian 16 at Sat Feb 10 12:13:30 2024.
