 Q-Chem 5.4, Q-Chem, Inc., Pleasanton, CA (2021)
 Q-Chem 5.4.0 for Intel X86 EM64T Linux

User input:
--------------------------------------------------------------
$molecule
0 1
C                  6.9072270000     -1.6385930000     -0.2581940000
C                  7.4659780000     -0.6717450000     -1.0856220000
C                  6.6597520000      0.3233240000     -1.6451300000
C                  5.2963400000      0.3497310000     -1.3762470000
C                  4.7248230000     -0.6183870000     -0.5452400000
C                  5.5367000000     -1.6203120000      0.0181520000
C                  4.9654820000     -2.6707470000      0.9094630000
C                  3.4960870000     -2.6164190000      1.1801600000
C                  2.6870510000     -1.6151600000      0.6167200000
C                  3.2587280000     -0.5651430000     -0.2743780000
C                  2.9331640000     -3.5885340000      2.0121470000
C                  1.5693070000     -3.5571060000      2.2774070000
C                  0.7539420000     -2.5652520000      1.7223140000
C                  1.3174270000     -1.6013710000      0.8961690000
O                  5.6655280000     -3.5405790000      1.3994270000
O                  2.5530070000      0.3029110000     -0.7617480000
H                  7.5130320000     -2.4186580000      0.1859560000
H                  4.6530510000      1.1114840000     -1.7989880000
H                  3.5805330000     -4.3472680000      2.4317360000
H                  0.7057520000     -0.8237900000      0.4551500000
I                  0.7160180000     -5.0213600000      3.5316450000
H                  8.5290740000     -0.6904410000     -1.2967030000
H                  7.0976270000      1.0765000000     -2.2901920000
H                 -0.3076290000     -2.5470920000      1.9334550000
$end
$rem
MAX_SCF_CYCLES=200
BASIS  =  6-311++G(d,p)
GUI  =  2
JOB_TYPE  =  SP
METHOD  =  B3LYP
SOLVENT_METHOD = PCM
$end
$pcm
theory = CPCM
$end
$solvent
dielectric 37.219
opticaldielectric 1.43
$end

--------------------------------------------------------------

             Standard Nuclear Orientation (Angstroms)
    I     Atom           X                Y                Z
 ----------------------------------------------------------------
    1      C       6.9072270000    -1.6385930000    -0.2581940000
    2      C       7.4659780000    -0.6717450000    -1.0856220000
    3      C       6.6597520000     0.3233240000    -1.6451300000
    4      C       5.2963400000     0.3497310000    -1.3762470000
    5      C       4.7248230000    -0.6183870000    -0.5452400000
    6      C       5.5367000000    -1.6203120000     0.0181520000
    7      C       4.9654820000    -2.6707470000     0.9094630000
    8      C       3.4960870000    -2.6164190000     1.1801600000
    9      C       2.6870510000    -1.6151600000     0.6167200000
   10      C       3.2587280000    -0.5651430000    -0.2743780000
   11      C       2.9331640000    -3.5885340000     2.0121470000
   12      C       1.5693070000    -3.5571060000     2.2774070000
   13      C       0.7539420000    -2.5652520000     1.7223140000
   14      C       1.3174270000    -1.6013710000     0.8961690000
   15      O       5.6655280000    -3.5405790000     1.3994270000
   16      O       2.5530070000     0.3029110000    -0.7617480000
   17      H       7.5130320000    -2.4186580000     0.1859560000
   18      H       4.6530510000     1.1114840000    -1.7989880000
   19      H       3.5805330000    -4.3472680000     2.4317360000
   20      H       0.7057520000    -0.8237900000     0.4551500000
   21      I       0.7160180000    -5.0213600000     3.5316450000
   22      H       8.5290740000    -0.6904410000    -1.2967030000
   23      H       7.0976270000     1.0765000000    -2.2901920000
   24      H      -0.3076290000    -2.5470920000     1.9334550000
 ----------------------------------------------------------------

    8   -7607.8791494151      9.79e-06  Convergence criterion met
 Total energy in the final basis set =    -7607.8791494151

                    Orbital Energies (a.u.)
 --------------------------------------------------------------

 Alpha MOs
 -- Occupied --
********-176.3089-165.7126-165.7106-165.7105 -35.8054 -31.2984 -31.2928
-31.2925 -22.9489 -22.9477 -22.9475 -22.9436 -22.9435 -19.1360 -19.1346
-10.2881 -10.2867 -10.2465 -10.2166 -10.2137 -10.2105 -10.2100 -10.2086
-10.2085 -10.2046 -10.1985 -10.1982 -10.1978 -10.1976  -6.3549  -4.7668
 -4.7529  -4.7525  -2.0328  -2.0284  -2.0280  -2.0161  -2.0160  -1.0716
 -1.0691  -0.9018  -0.8870  -0.8203  -0.7893  -0.7795  -0.7773  -0.7003
 -0.6835  -0.6587  -0.6314  -0.6193  -0.5900  -0.5648  -0.5492  -0.5102
 -0.4940  -0.4906  -0.4719  -0.4627  -0.4597  -0.4592  -0.4507  -0.4473
 -0.4383  -0.4239  -0.4025  -0.3926  -0.3813  -0.3768  -0.3697  -0.3625
 -0.3159  -0.2929  -0.2900  -0.2828  -0.2815  -0.2796  -0.2767  -0.2579

          Ground-State Mulliken Net Atomic Charges

     Atom                 Charge (a.u.)
  ----------------------------------------
      1 C                     0.154732
      2 C                    -0.416839
      3 C                    -0.410699
      4 C                     0.179562
      5 C                     0.147029
      6 C                     0.250892
      7 C                    -0.510084
      8 C                     0.178864
      9 C                     0.259424
     10 C                    -0.548315
     11 C                     0.249488
     12 C                    -0.034567
     13 C                    -0.484988
     14 C                     0.056921
     15 O                    -0.282461
     16 O                    -0.284941
     17 H                     0.197345
     18 H                     0.199021
     19 H                     0.189294
     20 H                     0.206518
     21 I                     0.031177
     22 H                     0.225460
     23 H                     0.225731
     24 H                     0.221436
  ----------------------------------------
  Sum of atomic charges =     0.000000

                    Cartesian Multipole Moments
 -----------------------------------------------------------------
    Charge (ESU x 10^10)
                -0.0000
    Dipole Moment (Debye)
         X       0.9913      Y       1.2983      Z      -1.1589
       Tot       2.0028
    Quadrupole Moments (Debye-Ang)
        XX     -96.6743     XY      15.2003     YY    -129.7231
        XZ     -16.5985     YZ       2.1049     ZZ    -120.4680

 Total job time:  59.18s(wall), 294.04s(cpu)
        *  Thank you very much for using Q-Chem.  Have a nice day.  *
