 Q-Chem 5.4, Q-Chem, Inc., Pleasanton, CA (2021)
 Q-Chem 5.4.0 for Intel X86 EM64T Linux

User input:
--------------------------------------------------------------
$molecule
0 1
C                  0.3002570000     -0.5360530000     -0.1073290000
C                 -0.2607020000     -1.6897750000     -0.5482890000
C                 -1.7117020000     -1.8690220000     -0.6052010000
O                 -2.2045600000     -2.9138320000     -1.0092670000
C                 -2.5873190000     -0.7371570000     -0.1545200000
C                 -3.9741050000     -0.8727380000     -0.1931380000
C                 -4.7891480000      0.1762580000      0.2252870000
C                 -4.2242770000      1.3680130000      0.6853230000
C                 -2.8418230000      1.5122110000      0.7273500000
C                 -2.0198920000      0.4613790000      0.3078180000
C                 -0.5506630000      0.6184450000      0.3545670000
O                 -0.0060920000      1.6400430000      0.7508020000
H                  0.3486960000     -2.5198110000     -0.8739460000
H                 -4.3920140000     -1.8049340000     -0.5528150000
H                 -5.8672870000      0.0664430000      0.1936890000
H                 -4.8628040000      2.1814240000      1.0100820000
H                 -2.3824230000      2.4271150000      1.0805760000
N                  1.6396430000     -0.2347200000     -0.0114200000
C                  2.7252200000     -1.0578870000     -0.3318110000
N                  3.9377610000     -0.4506970000     -0.1326850000
C                  5.1732680000     -1.1216480000     -0.5117030000
O                  2.6023740000     -2.2029590000     -0.7256260000
H                  1.8012840000      0.6916090000      0.3714350000
H                  3.9695710000      0.5452790000      0.0181570000
H                  5.1001310000     -2.1754250000     -0.2473170000
H                  6.0022190000     -0.6733770000      0.0371840000
H                  5.3715320000     -1.0493310000     -1.5862880000
$end
$rem
MAX_SCF_CYCLES=200
BASIS  =  6-311++G(d,p)
GUI  =  2
JOB_TYPE  =  SP
METHOD  =  B3LYP
SOLVENT_METHOD = COSMO
$end
$solvent
dielectric 37.219
opticaldielectric 1.43
$end

--------------------------------------------------------------

             Standard Nuclear Orientation (Angstroms)
    I     Atom           X                Y                Z
 ----------------------------------------------------------------
    1      C       0.6454628863    -0.0479872969    -0.0115875887
    2      C       0.3004952370     1.2639445752    -0.0063666150
    3      C      -1.0981710227     1.6933032943     0.0060126823
    4      O      -1.3952872861     2.8805055064     0.0149070716
    5      C      -2.1665065419     0.6399305844     0.0074357782
    6      C      -3.5098745550     1.0118334752     0.0174151786
    7      C      -4.5035314070     0.0359171007     0.0181014224
    8      C      -4.1619056226    -1.3184078348     0.0087131092
    9      C      -2.8243687607    -1.6987153566    -0.0012731746
   10      C      -1.8235616287    -0.7218783888    -0.0017007823
   11      C      -0.4028043204    -1.1303054460    -0.0128838863
   12      O      -0.0506161693    -2.3020858064    -0.0236781581
   13      H       1.0513252951     2.0402223263    -0.0113907910
   14      H      -3.7535176116     2.0671044006     0.0242117937
   15      H      -5.5471294243     0.3296623590     0.0257416276
   16      H      -4.9388621097    -2.0741598337     0.0090683588
   17      H      -2.5367284905    -2.7427796811    -0.0089580706
   18      N       1.9127034150    -0.5846879213    -0.0145628997
   19      C       3.1314124255     0.1032412931    -0.0298426044
   20      N       4.2195548386    -0.7300446707    -0.0169147992
   21      C       5.5674472179    -0.1868348969     0.0748278368
   22      O       3.2133659089     1.3168393152    -0.0726765441
   23      H       1.9029040680    -1.5995781876    -0.0408858979
   24      H       4.0888278196    -1.7054535158     0.2003900763
   25      H       5.6347459413     0.7024541755    -0.5499367356
   26      H       6.2750834514    -0.9324616656    -0.2894183320
   27      H       5.8332802114     0.0917990273     1.0999947697
 ----------------------------------------------------------------

    9    -798.7280034785      9.19e-06  Convergence criterion met
 Total energy in the final basis set =     -798.7280034785
    5    -798.7526431053      5.29e-06  Convergence criterion met
 Total energy in the final basis set =     -798.7526431053

                    Orbital Energies (a.u.)
 --------------------------------------------------------------

 Alpha MOs
 -- Occupied --
-19.1492 -19.1271 -19.1097 -14.3718 -14.3471 -10.3218 -10.2975 -10.2790
-10.2601 -10.2103 -10.2080 -10.2006 -10.1996 -10.1980 -10.1961 -10.1959
-10.1917  -1.0866  -1.0770  -1.0607  -0.9689  -0.9308  -0.8908  -0.8297
 -0.7794  -0.7745  -0.7283  -0.6943  -0.6544  -0.6504  -0.6061  -0.5983
 -0.5839  -0.5556  -0.5262  -0.5225  -0.4944  -0.4811  -0.4738  -0.4659
 -0.4631  -0.4574  -0.4513  -0.4483  -0.4405  -0.4292  -0.4240  -0.4179
 -0.3979  -0.3838  -0.3835  -0.3694  -0.3524  -0.3023  -0.3003  -0.2892
 -0.2794  -0.2789  -0.2773  -0.2503

          Ground-State Mulliken Net Atomic Charges

     Atom                 Charge (a.u.)
  ----------------------------------------
      1 C                     0.344484
      2 C                     0.215552
      3 C                    -0.186135
      4 O                    -0.345656
      5 C                     0.687905
      6 C                     0.242208
      7 C                    -0.339293
      8 C                    -0.445737
      9 C                     0.209988
     10 C                    -0.355852
     11 C                    -1.076079
     12 O                    -0.279779
     13 H                     0.276028
     14 H                     0.192721
     15 H                     0.230413
     16 H                     0.226421
     17 H                     0.207388
     18 N                    -0.247232
     19 C                     0.156178
     20 N                    -0.224547
     21 C                    -0.276569
     22 O                    -0.450719
     23 H                     0.389567
     24 H                     0.307914
     25 H                     0.184107
     26 H                     0.169334
     27 H                     0.187391
  ----------------------------------------
  Sum of atomic charges =     0.000001

                    Cartesian Multipole Moments
 -----------------------------------------------------------------
    Charge (ESU x 10^10)
                -0.0000
    Dipole Moment (Debye)
         X       0.5794      Y      -7.5535      Z       0.5837
       Tot       7.5981
    Quadrupole Moments (Debye-Ang)
        XX     -58.1628     XY      -8.4514     YY    -114.4009
        XZ       2.3106     YZ      -0.6224     ZZ    -100.1829

 Total job time:  50.72s(wall), 379.81s(cpu)
        *  Thank you very much for using Q-Chem.  Have a nice day.  *
