 Q-Chem 5.4, Q-Chem, Inc., Pleasanton, CA (2021)
 Q-Chem 5.4.0 for Intel X86 EM64T Linux

User input:
--------------------------------------------------------------
$molecule
-2 1
O                  2.5516260000     -1.0233980000     -0.2551480000
C                  1.2926030000     -0.4663020000     -0.1252100000
C                  1.0511020000      0.9010200000     -0.0014210000
Cl                 2.4467910000      2.0286170000     -0.0085860000
C                 -0.2514140000      1.4431260000      0.1302930000
O                 -0.6055420000      2.6996210000      0.2528230000
C                 -1.2929620000      0.4661200000      0.1250830000
C                 -1.0513470000     -0.9008810000      0.0013280000
Cl                -2.4468870000     -2.0288610000      0.0088250000
C                  0.2514770000     -1.4431460000     -0.1305880000
O                  0.6050260000     -2.6997200000     -0.2532630000
O                 -2.5514610000      1.0236310000      0.2554000000
H                  2.2761710000     -1.9763620000     -0.3115110000
H                 -2.2751830000      1.9765370000      0.3119740000
$end
$rem
MAX_SCF_CYCLES=200
BASIS  =  6-311++G(d,p)
GUI  =  2
JOB_TYPE  =  SP
METHOD  =  B3LYP
SOLVENT_METHOD = COSMO
$end
$solvent
dielectric 37.219
opticaldielectric 1.43
$end

--------------------------------------------------------------

             Standard Nuclear Orientation (Angstroms)
    I     Atom           X                Y                Z
 ----------------------------------------------------------------
    1      O      -1.3452027044    -2.4112097995    -0.0000815297
    2      C      -0.7141906035    -1.1806804528     0.0000018086
    3      C      -1.3838675904     0.0419186778    -0.0000156519
    4      Cl     -3.1781559506     0.0437568296    -0.0001493715
    5      C      -0.7095809630     1.2881582030     0.0000988123
    6      O      -1.2220242842     2.4950557520     0.0003726528
    7      C       0.7144439342     1.1807189380     0.0001296324
    8      C       1.3838308404    -0.0416991624     0.0001305339
    9      Cl      3.1782449815    -0.0438925769    -0.0001059918
   10      C       0.7094033927    -1.2882749328     0.0001835745
   11      O       1.2223464360    -2.4948874197     0.0000872854
   12      O       1.3447892162     2.4112820228    -0.0001673663
   13      H      -0.5328732309    -2.9833227046     0.0004479651
   14      H       0.5318563337     2.9828583380    -0.0009673844
 ----------------------------------------------------------------

   10   -1451.3326257302      6.93e-06  Convergence criterion met
 Total energy in the final basis set =    -1451.3326257302
    5   -1451.6136227802      7.54e-06  Convergence criterion met
 Total energy in the final basis set =    -1451.6136227802

                    Orbital Energies (a.u.)
 --------------------------------------------------------------

 Alpha MOs
 -- Occupied --
********-101.5378 -19.1254 -19.1253 -19.0483 -19.0483 -10.2006 -10.2006
-10.1998 -10.1997 -10.1958 -10.1958  -9.4519  -9.4519  -7.2159  -7.2159
 -7.2072  -7.2072  -7.2068  -7.2068  -1.0399  -1.0379  -0.9494  -0.9492
 -0.8516  -0.8399  -0.7806  -0.6896  -0.6684  -0.5778  -0.5622  -0.5283
 -0.4827  -0.4678  -0.4366  -0.4208  -0.4193  -0.3908  -0.3822  -0.3809
 -0.3625  -0.3550  -0.3366  -0.3309  -0.3099  -0.3038  -0.3036  -0.3019
 -0.2412  -0.2391  -0.2350  -0.1997  -0.1387

          Ground-State Mulliken Net Atomic Charges

     Atom                 Charge (a.u.)
  ----------------------------------------
      1 O                    -0.324589
      2 C                    -1.522921
      3 C                     2.179150
      4 Cl                    0.095154
      5 C                    -1.019498
      6 O                    -0.702797
      7 C                    -1.523970
      8 C                     2.179639
      9 Cl                    0.095000
     10 C                    -1.017981
     11 O                    -0.702940
     12 O                    -0.323724
     13 H                     0.294810
     14 H                     0.294667
  ----------------------------------------
  Sum of atomic charges =    -2.000000

                    Cartesian Multipole Moments
 -----------------------------------------------------------------
    Charge (ESU x 10^10)
                -9.6064
    Dipole Moment (Debye)
         X       0.0004      Y       0.0036      Z      -0.0002
       Tot       0.0037
    Quadrupole Moments (Debye-Ang)
        XX    -128.3821     XY      11.3994     YY    -133.2188
        XZ      -0.0009     YZ      -0.0108     ZZ     -89.3802

 Total job time:  20.46s(wall), 129.64s(cpu)
        *  Thank you very much for using Q-Chem.  Have a nice day.  *
