 Q-Chem 5.4, Q-Chem, Inc., Pleasanton, CA (2021)
 Q-Chem 5.4.0 for Intel X86 EM64T Linux

User input:
--------------------------------------------------------------
$molecule
-2 1
C                 -1.8184070000      1.9291280000     -5.1279430000
C                 -1.7255260000      0.6156030000     -5.5374510000
C                 -1.3060450000     -0.3815620000     -4.6105450000
C                 -1.5081090000      2.3308750000     -3.8020370000
C                 -1.0879070000      1.3214750000     -2.8632960000
C                 -0.9983300000     -0.0218090000     -3.3154950000
C                 -1.6114900000      3.7197020000     -3.4381120000
C                 -0.7702210000      1.6336280000     -1.4960730000
C                 -1.2617250000      4.0525310000     -2.0732290000
C                 -0.9030810000      3.0160190000     -1.1044050000
C                 -1.2840420000      5.4301520000     -1.6327940000
C                 -1.0050810000      5.7446430000     -0.3189670000
C                 -0.7098480000      4.7434450000      0.6382360000
C                 -0.6683780000      3.4054920000      0.2769150000
O                 -2.0089900000      4.5939080000     -4.3193590000
O                 -0.3793550000      0.6836200000     -0.6868470000
N                 -1.5363380000      6.4741900000     -2.5628790000
N                 -0.4400200000      2.4053640000      1.2240470000
C                  0.2616120000      2.6889200000      2.4440790000
H                 -2.1317430000      2.7139480000     -5.8087960000
H                 -1.9684400000      0.3409370000     -6.5627100000
H                 -1.2300000000     -1.4214500000     -4.9244050000
H                 -0.6767480000     -0.7566100000     -2.5846290000
H                 -0.9846440000      6.7930040000     -0.0243540000
H                 -0.5357570000      5.0319200000      1.6697700000
H                 -1.8752850000      6.0442460000     -3.4418210000
H                 -2.1769600000      7.1616960000     -2.1854990000
H                 -0.2659480000      1.5051990000      0.7346780000
H                 -0.3502810000      3.2566950000      3.1632720000
H                  1.1931520000      3.2751380000      2.2961530000
H                  0.5320860000      1.7435270000      2.9279790000
$end
$rem
MAX_SCF_CYCLES=200
BASIS  =  6-311++G(d,p)
GUI  =  2
JOB_TYPE  =  SP
METHOD  =  B3LYP
SOLVENT_METHOD = COSMO
$end
$solvent
dielectric 37.219
opticaldielectric 1.43
$end

--------------------------------------------------------------

             Standard Nuclear Orientation (Angstroms)
    I     Atom           X                Y                Z
 ----------------------------------------------------------------
    1      C       3.3381583035    -0.7090544462     0.0271104447
    2      C       4.2972270372     0.2816010618     0.0056526673
    3      C       3.8956315499     1.6479489019    -0.0300085731
    4      C       1.9490007693    -0.4161393595     0.0146879406
    5      C       1.5428106132     0.9661395040    -0.0170523561
    6      C       2.5534383314     1.9635928429    -0.0423175728
    7      C       0.9956106876    -1.4945249061     0.0247595708
    8      C       0.1589281497     1.3566833594    -0.0143236549
    9      C      -0.4013144528    -1.1155311804    -0.0065487358
   10      C      -0.8105676413     0.2889745598     0.0318965685
   11      C      -1.4290964500    -2.1322942039    -0.0532154012
   12      C      -2.7614298679    -1.7758113951    -0.0272753733
   13      C      -3.1667825558    -0.4218946097     0.0643547494
   14      C      -2.2294012761     0.5988088928     0.1076161920
   15      O       1.4120488933    -2.7288785052     0.0670569549
   16      O      -0.1582738680     2.6245766594    -0.0586813942
   17      N      -1.0745530816    -3.5018710406    -0.1846878799
   18      N      -2.6154629338     1.9318534784     0.2606225560
   19      C      -3.9219711142     2.3735503806    -0.1382631050
   20      H       3.6093032350    -1.7595641846     0.0514498090
   21      H       5.3549072288     0.0230335301     0.0134040511
   22      H       4.6455357792     2.4372654313    -0.0467733382
   23      H       2.2140150434     2.9939450490    -0.0683706955
   24      H      -3.5146428515    -2.5582896706    -0.1089651942
   25      H      -4.2250155584    -0.1887241252     0.1223403706
   26      H      -0.0544025492    -3.5844675676    -0.0273771799
   27      H      -1.6196847101    -4.0883271008     0.4352939815
   28      H      -1.7957397617     2.5466596865     0.0869926211
   29      H      -4.7113609930     2.0453427123     0.5568364642
   30      H      -4.2247642806     2.0160910621    -1.1451591029
   31      H      -3.9396911789     3.4692764668    -0.1506591721
 ----------------------------------------------------------------

   14    -839.0010637232      4.45e-06  Convergence criterion met
 Total energy in the final basis set =     -839.0010637232
    6    -839.2691547971      2.81e-06  Convergence criterion met
 Total energy in the final basis set =     -839.2691547971

                    Orbital Energies (a.u.)
 --------------------------------------------------------------

 Alpha MOs
 -- Occupied --
-19.0325 -19.0314 -14.2780 -14.2711 -10.1832 -10.1828 -10.1790 -10.1763
-10.1751 -10.1516 -10.1512 -10.1485 -10.1485 -10.1466 -10.1462 -10.1402
-10.1398 -10.1341 -10.1331  -0.9528  -0.9491  -0.8954  -0.8726  -0.8292
 -0.7959  -0.7520  -0.7265  -0.7109  -0.7020  -0.6528  -0.6364  -0.6042
 -0.5939  -0.5499  -0.5336  -0.5141  -0.4945  -0.4801  -0.4590  -0.4466
 -0.4397  -0.4343  -0.4223  -0.4174  -0.4043  -0.4008  -0.3861  -0.3826
 -0.3799  -0.3639  -0.3571  -0.3494  -0.3454  -0.3438  -0.3362  -0.3205
 -0.3111  -0.3081  -0.2917  -0.2432  -0.2336  -0.2296  -0.2182  -0.2133
 -0.2026  -0.1680  -0.1097

          Ground-State Mulliken Net Atomic Charges

     Atom                 Charge (a.u.)
  ----------------------------------------
      1 C                    -0.020559
      2 C                    -0.608887
      3 C                    -0.598925
      4 C                     0.061969
      5 C                     0.055427
      6 C                    -0.068785
      7 C                    -0.330227
      8 C                    -0.211212
      9 C                     0.538269
     10 C                     0.297217
     11 C                    -0.073379
     12 C                    -0.443939
     13 C                    -0.262685
     14 C                    -0.161326
     15 O                    -0.662900
     16 O                    -0.669877
     17 N                    -0.530179
     18 N                    -0.298821
     19 C                    -0.411943
     20 H                     0.162076
     21 H                     0.179198
     22 H                     0.179591
     23 H                     0.158912
     24 H                     0.168481
     25 H                     0.165670
     26 H                     0.312452
     27 H                     0.259455
     28 H                     0.383913
     29 H                     0.144663
     30 H                     0.137850
     31 H                     0.148499
  ----------------------------------------
  Sum of atomic charges =    -2.000000

                    Cartesian Multipole Moments
 -----------------------------------------------------------------
    Charge (ESU x 10^10)
                -9.6064
    Dipole Moment (Debye)
         X      -3.7372      Y       2.0557      Z       0.7588
       Tot       4.3323
    Quadrupole Moments (Debye-Ang)
        XX    -142.5164     XY       6.8166     YY    -167.3830
        XZ      -0.6958     YZ      -7.0088     ZZ    -127.3446

 Total job time:  115.83s(wall), 891.83s(cpu)
        *  Thank you very much for using Q-Chem.  Have a nice day.  *
