 Gaussian 16, Revision A.03,
 Gaussian 16:  ES64L-G16RevA.03 25-Dec-2016

 --------------------------------------
 #P UB3LYP/6-311++G(d,p) nosym opt freq
 --------------------------------------

 -------
 Radical
 -------
 Symbolic Z-matrix:
 Charge = -1 Multiplicity = 2

 SCF Done:  E(UB3LYP) =  -3777.55610158     A.U. after   22 cycles
 Optimization completed.
    -- Stationary point found.
 Normal termination of Gaussian 16 at Wed Dec 27 19:54:43 2023.

 ----------------------------------------------------------------------
 #P Geom=AllCheck Guess=TCheck SCRF=Check GenChk UB3LYP/6-311++G(d,p) F
 req
 ----------------------------------------------------------------------

 Structure from the checkpoint file:  "161-rad.chk"
 -------
 Radical
 -------
 Charge = -1 Multiplicity = 2

                          Input orientation:
 ---------------------------------------------------------------------
 Center     Atomic      Atomic             Coordinates (Angstroms)
 Number     Number       Type             X           Y           Z
 ---------------------------------------------------------------------
      1          7           0       -4.550731    1.021358   -0.418332
      2          6           0       -3.285584    0.449451   -0.360464
      3          6           0       -3.144143   -0.962809   -0.382152
      4         17           0       -4.606335   -1.960606   -0.577454
      5          6           0       -1.928470   -1.575776   -0.275237
      6          6           0       -0.752760   -0.820392   -0.128305
      7          6           0        0.497618   -1.579983   -0.018341
      8          8           0        0.509861   -2.833769   -0.051779
      9          6           0        1.716665   -0.794656    0.129244
     10          6           0        2.961368   -1.452363    0.236264
     11          6           0        4.133146   -0.737515    0.378794
     12          6           0        4.091588    0.673576    0.419789
     13          6           0        2.883877    1.333869    0.317534
     14          6           0        1.670703    0.623487    0.169310
     15          6           0        0.421619    1.389217    0.067041
     16          8           0        0.447000    2.641364    0.125644
     17          6           0       -0.816173    0.613135   -0.098111
     18          6           0       -2.109338    1.193605   -0.229076
     19         35           0       -2.378314    3.115441   -0.273401
     20          1           0       -4.556836    1.997274   -0.679458
     21          1           0       -5.253091    0.456395   -0.871541
     22          1           0       -1.830268   -2.653279   -0.298761
     23          1           0        2.957177   -2.535657    0.202180
     24          1           0        5.083838   -1.255903    0.459788
     25          1           0        5.011857    1.239246    0.532126
     26          1           0        2.825725    2.415290    0.347286
 ---------------------------------------------------------------------

 SCF Done:  E(UB3LYP) =  -3777.55610158     A.U. after    2 cycles

 Alpha  occ. eigenvalues -- -482.71776-101.46182 -62.37053 -56.19082 -56.18717
 Alpha  occ. eigenvalues --  -56.18682 -18.95575 -18.95236 -14.22908 -10.13136
 Alpha  occ. eigenvalues --  -10.12995 -10.12184 -10.10781 -10.10728 -10.07861
 Alpha  occ. eigenvalues --  -10.07250 -10.06514 -10.06513 -10.06455 -10.05891
 Alpha  occ. eigenvalues --  -10.05836 -10.05698 -10.05676  -9.37640  -8.58025
 Alpha  occ. eigenvalues --   -7.14055  -7.13144  -7.13122  -6.41137  -6.39918
 Alpha  occ. eigenvalues --   -6.39829  -2.52234  -2.51902  -2.51836  -2.50865
 Alpha  occ. eigenvalues --   -2.50863  -0.88446  -0.88149  -0.84292  -0.77385
 Alpha  occ. eigenvalues --   -0.74713  -0.73839  -0.69174  -0.66626  -0.63765
 Alpha  occ. eigenvalues --   -0.62540  -0.62171  -0.55349  -0.52949  -0.50983
 Alpha  occ. eigenvalues --   -0.48788  -0.45310  -0.43586  -0.42384  -0.40993
 Alpha  occ. eigenvalues --   -0.38542  -0.35804  -0.35651  -0.34841  -0.32349
 Alpha  occ. eigenvalues --   -0.31834  -0.31154  -0.30894  -0.30135  -0.29320
 Alpha  occ. eigenvalues --   -0.29031  -0.28380  -0.26404  -0.25256  -0.24894
 Alpha  occ. eigenvalues --   -0.24459  -0.24034  -0.22832  -0.22389  -0.20456
 Alpha  occ. eigenvalues --   -0.19726  -0.18505  -0.14994  -0.14239  -0.13850
 Alpha  occ. eigenvalues --   -0.12417  -0.11684  -0.11016  -0.02301
 Alpha virt. eigenvalues --    0.05653   0.06895   0.07964   0.08673   0.08832
 Alpha virt. eigenvalues --    0.09705   0.09959   0.10363   0.10829   0.12143
 Alpha virt. eigenvalues --    0.12897   0.13458   0.13525   0.13947   0.15185

  Beta  occ. eigenvalues -- -482.71775-101.46180 -62.37053 -56.19083 -56.18715
  Beta  occ. eigenvalues --  -56.18682 -18.95033 -18.94571 -14.22894 -10.13094
  Beta  occ. eigenvalues --  -10.12940 -10.12143 -10.10659 -10.10591 -10.07741
  Beta  occ. eigenvalues --  -10.07275 -10.06471 -10.06433 -10.06404 -10.05904
  Beta  occ. eigenvalues --  -10.05761 -10.05696 -10.05590  -9.37638  -8.58024
  Beta  occ. eigenvalues --   -7.14057  -7.13138  -7.13117  -6.41138  -6.39914
  Beta  occ. eigenvalues --   -6.39828  -2.52235  -2.51900  -2.51837  -2.50863
  Beta  occ. eigenvalues --   -2.50860  -0.87483  -0.87046  -0.84221  -0.77322
  Beta  occ. eigenvalues --   -0.74457  -0.73734  -0.69072  -0.66295  -0.63577
  Beta  occ. eigenvalues --   -0.62387  -0.61981  -0.54679  -0.52787  -0.50743
  Beta  occ. eigenvalues --   -0.48707  -0.45130  -0.43443  -0.42273  -0.40844
  Beta  occ. eigenvalues --   -0.38378  -0.35700  -0.35446  -0.34716  -0.32056
  Beta  occ. eigenvalues --   -0.31580  -0.31104  -0.30740  -0.29942  -0.28742
  Beta  occ. eigenvalues --   -0.28344  -0.27809  -0.25372  -0.25117  -0.24328
  Beta  occ. eigenvalues --   -0.23810  -0.23242  -0.22779  -0.22227  -0.19844
  Beta  occ. eigenvalues --   -0.19125  -0.18410  -0.13901  -0.13191  -0.12874
  Beta  occ. eigenvalues --   -0.11906  -0.10936  -0.10455
  Beta virt. eigenvalues --    0.03650   0.06476   0.06918   0.07957   0.08752
  Beta virt. eigenvalues --    0.09686   0.09825   0.09953   0.10647   0.10840
  Beta virt. eigenvalues --    0.12143   0.12902   0.13472   0.13537   0.13954

 Mulliken charges and spin densities:
               1          2
     1  N   -0.160245   0.007319
     2  C   -0.787807   0.026817
     3  C    0.993516   0.039064
     4  Cl   0.371327   0.001842
     5  C   -0.153713   0.000452
     6  C   -0.200526   0.049028
     7  C   -0.786189   0.060359
     8  O   -0.358546   0.202149
     9  C    0.112905   0.032749
    10  C    0.024273   0.012614
    11  C   -0.382031   0.041641
    12  C   -0.436976   0.031258
    13  C    0.148704   0.024356
    14  C    0.261921   0.033799
    15  C   -1.153949   0.065102
    16  O   -0.261302   0.246809
    17  C    0.618567   0.088664
    18  C    0.125000   0.043519
    19  Br  -0.177678   0.002055
    20  H    0.218773  -0.000462
    21  H    0.206605   0.000284
    22  H    0.202944  -0.000468
    23  H    0.154310  -0.000768
    24  H    0.127984  -0.003371
    25  H    0.125352  -0.002794
    26  H    0.166781  -0.002016
 Sum of Mulliken charges =  -1.00000   1.00000

 Dipole moment (field-independent basis, Debye):
    X=              0.1785    Y=              0.1596    Z=             -0.6758  Tot=              0.7169
 Quadrupole moment (field-independent basis, Debye-Ang):
   XX=           -150.3720   YY=           -165.9004   ZZ=           -135.5607
   XY=             -1.6829   XZ=              2.9725   YZ=             -2.1493

  Exact polarizability: 394.825  -7.538 271.462  29.942   2.958 117.106
 Approx polarizability: 573.109  -7.595 504.181  40.065   7.964 188.869

                      1                      2                      3
                      A                      A                      A
 Frequencies --     28.8111                40.4124                87.9823
 Red. masses --     11.9304                 8.3457                 6.7148
 Frc consts  --      0.0058                 0.0080                 0.0306
 IR Inten    --      1.5787                 3.6331                 0.2876

                      4                      5                      6
                      A                      A                      A
 Frequencies --    124.4627               138.1610               140.5781
 Red. masses --      5.1996                11.4564                 8.1115
 Frc consts  --      0.0475                 0.1288                 0.0944
 IR Inten    --      0.7145                 1.4664                 1.9106

                      7                      8                      9
                      A                      A                      A
 Frequencies --    177.1895               190.0653               235.9729
 Red. masses --     23.4041                 6.1679                11.2200
 Frc consts  --      0.4329                 0.1313                 0.3681
 IR Inten    --      0.7805                 0.3511                 1.0397

                     10                     11                     12
                      A                      A                      A
 Frequencies --    267.9121               283.6767               304.3607
 Red. masses --      5.9826                13.1877                 9.1694
 Frc consts  --      0.2530                 0.6253                 0.5005
 IR Inten    --      3.6342                 2.4423                 0.5746

                     13                     14                     15
                      A                      A                      A
 Frequencies --    327.7834               332.7956               369.1338
 Red. masses --      6.0517                 5.9699                 7.1521
 Frc consts  --      0.3831                 0.3896                 0.5742
 IR Inten    --      1.0420                 5.4546                 0.9739

                     16                     17                     18
                      A                      A                      A
 Frequencies --    387.4878               389.5475               433.7380
 Red. masses --      3.2580                 1.3898                 5.8628
 Frc consts  --      0.2882                 0.1243                 0.6499
 IR Inten    --     25.1885                20.3486                 0.1496

                     19                     20                     21
                      A                      A                      A
 Frequencies --    445.8615               482.8764               491.1273
 Red. masses --      3.7784                 9.6540                 8.6492
 Frc consts  --      0.4425                 1.3263                 1.2292
 IR Inten    --      6.6812                 4.0661                 0.6952

                     22                     23                     24
                      A                      A                      A
 Frequencies --    499.5879               550.5763               555.2278
 Red. masses --      4.7480                 4.9881                 2.4266
 Frc consts  --      0.6982                 0.8909                 0.4407
 IR Inten    --      0.3499                13.0672               120.8341

                     25                     26                     27
                      A                      A                      A
 Frequencies --    584.4776               621.7193               672.9534
 Red. masses --      2.1236                 5.7638                 6.4198
 Frc consts  --      0.4274                 1.3127                 1.7129
 IR Inten    --    189.9521                 9.1132                25.7601

                     28                     29                     30
                      A                      A                      A
 Frequencies --    677.2083               705.8617               706.6538
 Red. masses --      7.4718                 3.4431                 4.1378
 Frc consts  --      2.0189                 1.0107                 1.2174
 IR Inten    --     23.1792                38.9135                27.2691

                     31                     32                     33
                      A                      A                      A
 Frequencies --    720.3876               744.9723               769.9857
 Red. masses --      6.0644                 8.9076                 6.3242
 Frc consts  --      1.8543                 2.9127                 2.2091
 IR Inten    --      1.8994                58.6236                24.7178

                     34                     35                     36
                      A                      A                      A
 Frequencies --    782.0650               799.8194               873.0234
 Red. masses --      1.8791                 4.4598                 1.5064
 Frc consts  --      0.6772                 1.6809                 0.6765
 IR Inten    --     24.3286                 0.2784                 0.1193

                     37                     38                     39
                      A                      A                      A
 Frequencies --    880.9323               937.2974               968.5164
 Red. masses --      6.3521                 1.3731                 7.9536
 Frc consts  --      2.9044                 0.7107                 4.3957
 IR Inten    --      1.3232                10.4901                 1.9894

                     40                     41                     42
                      A                      A                      A
 Frequencies --    983.8168               988.9187              1022.5032
 Red. masses --      1.3386                 1.2935                 4.2031
 Frc consts  --      0.7633                 0.7453                 2.5891
 IR Inten    --      2.2346                 0.7451                36.9671

                     43                     44                     45
                      A                      A                      A
 Frequencies --   1040.5521              1110.4529              1120.0112
 Red. masses --      1.9596                 2.0628                 2.2705
 Frc consts  --      1.2501                 1.4986                 1.6781
 IR Inten    --     29.8077                25.3821                10.6190

                     46                     47                     48
                      A                      A                      A
 Frequencies --   1144.1126              1146.7758              1183.4168
 Red. masses --      1.6217                 3.2721                 1.7992
 Frc consts  --      1.2507                 2.5353                 1.4846
 IR Inten    --     11.4488                52.4673                 1.6357

                     49                     50                     51
                      A                      A                      A
 Frequencies --   1216.2369              1228.2934              1280.5869
 Red. masses --      2.4627                 1.9029                 3.3434
 Frc consts  --      2.1464                 1.6915                 3.2304
 IR Inten    --     35.7664                19.0725                10.3072

                     52                     53                     54
                      A                      A                      A
 Frequencies --   1306.6733              1345.5440              1367.1509
 Red. masses --      2.7307                 5.4964                10.7535
 Frc consts  --      2.7470                 5.8631                11.8422
 IR Inten    --     31.3331                33.8379                 6.1251

                     55                     56                     57
                      A                      A                      A
 Frequencies --   1385.7640              1441.1505              1472.0797
 Red. masses --      3.9314                 4.0929                 3.6231
 Frc consts  --      4.4481                 5.0084                 4.6259
 IR Inten    --    224.5961               278.4645               120.9338

                     58                     59                     60
                      A                      A                      A
 Frequencies --   1482.5186              1510.7649              1529.8292
 Red. masses --      2.6515                 5.8300                 7.9990
 Frc consts  --      3.4335                 7.8399                11.0298
 IR Inten    --      1.4658               371.8319               290.3789

                     61                     62                     63
                      A                      A                      A
 Frequencies --   1552.6421              1592.1980              1612.1950
 Red. masses --      6.7419                 3.1652                 9.1471
 Frc consts  --      9.5757                 4.7277                14.0078
 IR Inten    --     38.8572                12.8656                11.1773

                     64                     65                     66
                      A                      A                      A
 Frequencies --   1626.8736              1635.5176              3136.2543
 Red. masses --      2.9832                 2.0964                 1.0849
 Frc consts  --      4.6520                 3.3039                 6.2872
 IR Inten    --     87.3096                96.2600                17.6213

                     67                     68                     69
                      A                      A                      A
 Frequencies --   3155.2552              3185.0014              3189.8677
 Red. masses --      1.0914                 1.0920                 1.0922
 Frc consts  --      6.4016                 6.5265                 6.5475
 IR Inten    --     53.0408                16.5586                23.8332

                     70                     71                     72
                      A                      A                      A
 Frequencies --   3203.7327              3546.2849              3657.6012
 Red. masses --      1.0906                 1.0471                 1.0989
 Frc consts  --      6.5951                 7.7583                 8.6619
 IR Inten    --      6.2832                16.6877                38.1112

 - Thermochemistry -
 -------------------
 Temperature   298.150 Kelvin.  Pressure   1.00000 Atm.
 Atom     1 has atomic number  7 and mass  14.00307

 Molecular mass:   334.93487 amu.
 Principal axes and moments of inertia in atomic units:
                           1         2         3
     Eigenvalues --  4527.241358595.80015**********
           X            0.98246   0.15195  -0.10808
           Y           -0.15465   0.98782  -0.01702
           Z            0.10418   0.03343   0.99400
 This molecule is an asymmetric top.
 Rotational symmetry number  1.
 Warning -- assumption of classical behavior for rotation
           may cause significant error
 Rotational temperatures (Kelvin)      0.01913     0.01008     0.00660
 Rotational constants (GHZ):           0.39864     0.20996     0.13756
 Zero-point vibrational energy     455369.2 (Joules/Mol)
                                  108.83584 (Kcal/Mol)
 Warning -- explicit consideration of  25 degrees of freedom as
           vibrations may cause significant error
 Vibrational temperatures:     41.45    58.14   126.59   179.07   198.78
          (Kelvin)            202.26   254.94   273.46   339.51   385.47
                              408.15   437.91   471.61   478.82   531.10
                              557.51   560.47   624.05   641.50   694.75
                              706.62   718.80   792.16   798.85   840.93
                              894.52   968.23   974.35  1015.58  1016.72
                             1036.48  1071.85  1107.84  1125.22  1150.76
                             1256.09  1267.47  1348.56  1393.48  1415.49
                             1422.83  1471.15  1497.12  1597.69  1611.45
                             1646.12  1649.95  1702.67  1749.89  1767.24
                             1842.48  1880.01  1935.94  1967.03  1993.81
                             2073.49  2117.99  2133.01  2173.65  2201.08
                             2233.91  2290.82  2319.59  2340.71  2353.15
                             4512.37  4539.71  4582.51  4589.51  4609.46
                             5102.31  5262.47

 Zero-point correction=                           0.173441 (Hartree/Particle)
 Thermal correction to Energy=                    0.188951
 Thermal correction to Enthalpy=                  0.189895
 Thermal correction to Gibbs Free Energy=         0.128635
 Sum of electronic and zero-point Energies=          -3777.382661
 Sum of electronic and thermal Energies=             -3777.367151
 Sum of electronic and thermal Enthalpies=           -3777.366207
 Sum of electronic and thermal Free Energies=        -3777.427467

                     E (Thermal)             CV                S
                      KCal/Mol        Cal/Mol-Kelvin    Cal/Mol-Kelvin
 Total                  118.568             60.194            128.934
 Electronic               0.000              0.000              1.377
 Translational            0.889              2.981             43.321
 Rotational               0.889              2.981             34.589
 Vibrational            116.791             54.232             49.646
 Vibration     1          0.593              1.984              5.910
 Vibration     2          0.594              1.981              5.239
 Vibration     3          0.601              1.958              3.704
 Vibration     4          0.610              1.929              3.030
 Vibration     5          0.614              1.915              2.829
 Vibration     6          0.615              1.913              2.796
 Vibration     7          0.628              1.870              2.358
 Vibration     8          0.633              1.854              2.227
 Vibration     9          0.655              1.786              1.833
 Vibration    10          0.673              1.732              1.610
 Vibration    11          0.682              1.704              1.511
 Vibration    12          0.695              1.665              1.393
 Vibration    13          0.711              1.620              1.271
 Vibration    14          0.715              1.610              1.246
 Vibration    15          0.741              1.536              1.083
 Vibration    16          0.756              1.497              1.010
 Vibration    17          0.757              1.493              1.002
 Vibration    18          0.794              1.397              0.847
 Vibration    19          0.805              1.370              0.808
 Vibration    20          0.839              1.288              0.702
 Vibration    21          0.847              1.270              0.681
 Vibration    22          0.855              1.251              0.659
 Vibration    23          0.906              1.138              0.543
 Vibration    24          0.911              1.128              0.533
 Vibration    25          0.941              1.065              0.477

 Optimization completed.
    -- Stationary point found.
 Normal termination of Gaussian 16 at Wed Dec 27 21:18:53 2023.
