 Gaussian 16, Revision A.03,
 Gaussian 16:  ES64L-G16RevA.03 25-Dec-2016

 ----------------------------------------------------------------
 #P UB3LYP/6-311++G(d,p) SCRF=(PCM,Solvent=n,n-DiMethylFormamide)
 ----------------------------------------------------------------

 ------------------
 Radical PCM in DMF
 ------------------
 Symbolic Z-matrix:
 Charge = -1 Multiplicity = 2

                         Standard orientation:
 ---------------------------------------------------------------------
 Center     Atomic      Atomic             Coordinates (Angstroms)
 Number     Number       Type             X           Y           Z
 ---------------------------------------------------------------------
      1          7           0       -3.742260   -0.117715   -0.097926
      2          6           0       -2.415436    0.289335   -0.028132
      3          6           0       -2.097836    1.672787   -0.016167
      4         17           0       -3.432966    2.851287    0.001499
      5          6           0       -0.809382    2.125208   -0.001221
      6          6           0        0.269088    1.224451   -0.006211
      7          6           0        1.610819    1.817835    0.006884
      8          8           0        1.779524    3.060667    0.019294
      9          6           0        2.728271    0.881943    0.006481
     10          6           0        4.051080    1.375095    0.023685
     11          6           0        5.130386    0.515165    0.021927
     12          6           0        4.913474   -0.880228    0.001601
     13          6           0        3.627319   -1.380722   -0.016276
     14          6           0        2.506017   -0.519863   -0.013276
     15          6           0        1.165591   -1.119738   -0.033769
     16          8           0        1.036854   -2.366439   -0.067135
     17          6           0        0.026618   -0.190118   -0.017779
     18          6           0       -1.336642   -0.599867   -0.017812
     19         35           0       -1.852073   -2.470620    0.030987
     20          1           0       -3.900494   -1.076546    0.178195
     21          1           0       -4.410559    0.544581    0.266259
     22          1           0       -0.577379    3.182166    0.013788
     23          1           0        4.181731    2.450935    0.037965
     24          1           0        6.142704    0.907758    0.035526
     25          1           0        5.760619   -1.559817   -0.000102
     26          1           0        3.434969   -2.446770   -0.033055
 ---------------------------------------------------------------------

 SCF Done:  E(UB3LYP) =  -3777.62835974     A.U. after   20 cycles

 The electronic state is 2-A.
 Alpha  occ. eigenvalues -- -482.82810-101.56261 -62.48092 -56.30124 -56.29756
 Alpha  occ. eigenvalues --  -56.29715 -19.07851 -19.07486 -14.32924 -10.24099
 Alpha  occ. eigenvalues --  -10.23959 -10.23305 -10.22881 -10.22850 -10.19457
 Alpha  occ. eigenvalues --  -10.18472 -10.18057 -10.17469 -10.17402 -10.17334
 Alpha  occ. eigenvalues --  -10.17315 -10.17139 -10.16987  -9.47703  -8.69066
 Alpha  occ. eigenvalues --   -7.24139  -7.23197  -7.23174  -6.52186  -6.50964
 Alpha  occ. eigenvalues --   -6.50859  -2.63282  -2.62953  -2.62875  -2.61901
 Alpha  occ. eigenvalues --   -2.61899  -1.00780  -1.00505  -0.94639  -0.87814
 Alpha  occ. eigenvalues --   -0.86059  -0.84923  -0.80312  -0.77837  -0.75185
 Alpha  occ. eigenvalues --   -0.73622  -0.73442  -0.66860  -0.64063  -0.62154
 Alpha  occ. eigenvalues --   -0.59805  -0.56492  -0.54599  -0.53375  -0.51798
 Alpha  occ. eigenvalues --   -0.49498  -0.47054  -0.46486  -0.45897  -0.43662
 Alpha  occ. eigenvalues --   -0.43143  -0.42450  -0.42229  -0.41795  -0.40823
 Alpha  occ. eigenvalues --   -0.40693  -0.40196  -0.38591  -0.36441  -0.35812
 Alpha  occ. eigenvalues --   -0.35596  -0.35112  -0.33887  -0.32910  -0.31682
 Alpha  occ. eigenvalues --   -0.30835  -0.29786  -0.26583  -0.25767  -0.25168
 Alpha  occ. eigenvalues --   -0.24758  -0.23128  -0.22657  -0.14254
 Alpha virt. eigenvalues --   -0.05823  -0.02525  -0.02416  -0.00876  -0.00317
 Alpha virt. eigenvalues --    0.00385   0.01087   0.01465   0.02088   0.02875
 Alpha virt. eigenvalues --    0.03821   0.04015   0.04598   0.04752   0.05145

  Beta  occ. eigenvalues -- -482.82810-101.56259 -62.48091 -56.30125 -56.29753
  Beta  occ. eigenvalues --  -56.29715 -19.07355 -19.06871 -14.32906 -10.24063
  Beta  occ. eigenvalues --  -10.23914 -10.23243 -10.22721 -10.22668 -10.19361
  Beta  occ. eigenvalues --  -10.18484 -10.17994 -10.17400 -10.17364 -10.17285
  Beta  occ. eigenvalues --  -10.17240 -10.17139 -10.16979  -9.47701  -8.69065
  Beta  occ. eigenvalues --   -7.24140  -7.23188  -7.23172  -6.52188  -6.50957
  Beta  occ. eigenvalues --   -6.50859  -2.63283  -2.62950  -2.62876  -2.61897
  Beta  occ. eigenvalues --   -2.61896  -0.99878  -0.99463  -0.94565  -0.87736
  Beta  occ. eigenvalues --   -0.85819  -0.84811  -0.80194  -0.77528  -0.74968
  Beta  occ. eigenvalues --   -0.73476  -0.73250  -0.66175  -0.63888  -0.61914
  Beta  occ. eigenvalues --   -0.59722  -0.56281  -0.54431  -0.53251  -0.51659
  Beta  occ. eigenvalues --   -0.49332  -0.46790  -0.46394  -0.45811  -0.43252
  Beta  occ. eigenvalues --   -0.42777  -0.42389  -0.42030  -0.41455  -0.40386
  Beta  occ. eigenvalues --   -0.40081  -0.39779  -0.36630  -0.36346  -0.35476
  Beta  occ. eigenvalues --   -0.35312  -0.34462  -0.33767  -0.32882  -0.30897
  Beta  occ. eigenvalues --   -0.30433  -0.29684  -0.25326  -0.24812  -0.24503
  Beta  occ. eigenvalues --   -0.24297  -0.22633  -0.22004
  Beta virt. eigenvalues --   -0.08399  -0.04901  -0.02459  -0.01463  -0.00553
  Beta virt. eigenvalues --   -0.00294   0.00396   0.01113   0.01477   0.02102
  Beta virt. eigenvalues --    0.02889   0.03834   0.04077   0.04619   0.05126

 Mulliken charges and spin densities:
               1          2
     1  N   -0.216337   0.008980
     2  C   -0.707795   0.023064
     3  C    0.921621   0.032545
     4  Cl   0.412635   0.002308
     5  C   -0.145667   0.010798
     6  C   -0.226854   0.034006
     7  C   -0.636996   0.087488
     8  O   -0.447372   0.184170
     9  C    0.040220   0.024756
    10  C    0.041886   0.020834
    11  C   -0.440886   0.040398
    12  C   -0.496828   0.028171
    13  C    0.144354   0.034644
    14  C    0.164315   0.022078
    15  C   -1.036371   0.099951
    16  O   -0.355747   0.226604
    17  C    0.637926   0.069624
    18  C    0.077073   0.056741
    19  Br  -0.135713   0.002846
    20  H    0.257827  -0.000425
    21  H    0.246111   0.000145
    22  H    0.205546  -0.000777
    23  H    0.161439  -0.000977
    24  H    0.184066  -0.003179
    25  H    0.181459  -0.002514
    26  H    0.170088  -0.002280
 Sum of Mulliken charges =  -1.00000   1.00000

 Dipole moment (field-independent basis, Debye):
    X=             -5.3444    Y=             -1.6497    Z=              1.1977  Tot=              5.7200
 Quadrupole moment (field-independent basis, Debye-Ang):
   XX=           -134.8373   YY=           -168.3149   ZZ=           -136.2724
   XY=             -4.0278   XZ=             -4.7398   YZ=             -0.6449

 Normal termination of Gaussian 16 at Sun Jan 14 01:17:09 2024.
