 Gaussian 16, Revision A.03,
 Gaussian 16:  ES64L-G16RevA.03 25-Dec-2016

 --------------------------------------
 #P UB3LYP/6-311++G(d,p) nosym opt freq
 --------------------------------------

 -------
 Reduced
 -------
 Symbolic Z-matrix:
 Charge = -2 Multiplicity = 1

 SCF Done:  E(UB3LYP) =  -1109.83231289     A.U. after   38 cycles
 SCF Done:  E(UB3LYP) =  -1109.83231279     A.U. after   22 cycles
 SCF Done:  E(UB3LYP) =  -1109.83231290     A.U. after   20 cycles
 Optimization completed.
    -- Stationary point found.
 Normal termination of Gaussian 16 at Wed Dec 27 21:24:23 2023.

 ----------------------------------------------------------------------
 #P Geom=AllCheck Guess=TCheck SCRF=Check GenChk UB3LYP/6-311++G(d,p) F
 req
 ----------------------------------------------------------------------

 Structure from the checkpoint file:  "149-an.chk"
 -------
 Reduced
 -------
 Charge = -2 Multiplicity = 1

                          Input orientation:
 ---------------------------------------------------------------------
 Center     Atomic      Atomic             Coordinates (Angstroms)
 Number     Number       Type             X           Y           Z
 ---------------------------------------------------------------------
      1          6           0       -3.064892    3.580666    1.016704
      2          6           0       -3.983636    2.977460    1.849542
      3          6           0       -3.833311    1.604391    2.188278
      4          6           0       -1.956200    2.876956    0.477557
      5          6           0       -1.803610    1.485221    0.824801
      6          6           0       -2.766595    0.892724    1.680803
      7          6           0       -1.040112    3.587535   -0.395616
      8          6           0        0.069914    2.800701   -0.880513
      9          6           0        0.212652    1.379965   -0.542581
     10          6           0       -0.712005    0.678589    0.320955
     11          6           0        1.091463    3.325092   -1.732655
     12          6           0        2.121349    2.575718   -2.251043
     13          6           0        2.221547    1.194108   -1.930932
     14          6           0        1.287261    0.635825   -1.090189
     15          8           0       -1.241421    4.823986   -0.695511
     16          8           0       -0.582700   -0.563623    0.615166
     17          1           0       -2.620086   -0.156723    1.916575
     18          1           0        1.327257   -0.411486   -0.809060
     19          1           0       -3.151551    4.625984    0.738990
     20          8           0        1.073074    4.672378   -2.151880
     21          1           0        3.033142    0.598908   -2.342316
     22          1           0       -4.555419    1.121202    2.844037
     23          6           0        1.545322    5.636371   -1.329895
     24          6           0        1.362125    6.973708   -1.749365
     25          6           0        2.252134    5.388947   -0.149967
     26          6           0        2.793988    6.443312    0.585940
     27          6           0        1.924840    8.012517   -1.014977
     28          6           0        2.649135    7.758937    0.153155
     29          8           0        0.696082    7.269805   -2.914939
     30          6           0       -0.704617    6.906150   -2.932915
     31          1           0       -4.820063    3.548916    2.247907
     32          1           0        2.843165    3.065118   -2.897127
     33          1           0        2.366844    4.364145    0.178638
     34          1           0        3.334305    6.226551    1.502782
     35          1           0        1.774989    9.025509   -1.375482
     36          1           0        3.078147    8.580979    0.718937
     37          1           0       -0.947707    6.656167   -3.968826
     38          1           0       -1.296050    7.778080   -2.621475
     39          1           0       -0.918771    6.059781   -2.269852
 ---------------------------------------------------------------------

 SCF Done:  E(UB3LYP) =  -1109.83231290     A.U. after    2 cycles

 Alpha  occ. eigenvalues --  -18.94355 -18.94211 -18.79589 -18.79586 -10.03648
 Alpha  occ. eigenvalues --  -10.03006 -10.00477 -10.00404  -9.98395  -9.98333
 Alpha  occ. eigenvalues --   -9.98255  -9.97328  -9.96009  -9.95640  -9.94419
 Alpha  occ. eigenvalues --   -9.94410  -9.94370  -9.94346  -9.93540  -9.93449
 Alpha  occ. eigenvalues --   -9.93416  -9.93131  -9.92248  -9.92185  -9.92099
 Alpha  occ. eigenvalues --   -0.86988  -0.84603  -0.71634  -0.71247  -0.65823
 Alpha  occ. eigenvalues --   -0.61733  -0.61106  -0.55804  -0.55475  -0.54079
 Alpha  occ. eigenvalues --   -0.51266  -0.51010  -0.49760  -0.48345  -0.43452
 Alpha  occ. eigenvalues --   -0.42226  -0.40271  -0.39458  -0.38236  -0.36126
 Alpha  occ. eigenvalues --   -0.33293  -0.31688  -0.30783  -0.29477  -0.29338
 Alpha  occ. eigenvalues --   -0.27796  -0.26160  -0.25780  -0.24180  -0.24155
 Alpha  occ. eigenvalues --   -0.23168  -0.23061  -0.22324  -0.21485  -0.20277
 Alpha  occ. eigenvalues --   -0.18884  -0.18639  -0.17727  -0.17489  -0.16819
 Alpha  occ. eigenvalues --   -0.16220  -0.15646  -0.15157  -0.14480  -0.13367
 Alpha  occ. eigenvalues --   -0.12783  -0.12228  -0.11600  -0.10589  -0.10078
 Alpha  occ. eigenvalues --   -0.09084  -0.08766  -0.08182  -0.05161  -0.02322
 Alpha  occ. eigenvalues --   -0.01753  -0.00960  -0.00446  -0.00159   0.02376
 Alpha  occ. eigenvalues --    0.03034   0.11560
 Alpha virt. eigenvalues --    0.12881   0.15086   0.15448   0.15817   0.16431
 Alpha virt. eigenvalues --    0.17217   0.17354   0.17934   0.18302   0.18494
 Alpha virt. eigenvalues --    0.19129   0.19311   0.19783   0.21031   0.21118

  Beta  occ. eigenvalues --  -18.94355 -18.94211 -18.79589 -18.79586 -10.03648
  Beta  occ. eigenvalues --  -10.03006 -10.00477 -10.00404  -9.98395  -9.98333
  Beta  occ. eigenvalues --   -9.98255  -9.97328  -9.96009  -9.95640  -9.94419
  Beta  occ. eigenvalues --   -9.94410  -9.94370  -9.94346  -9.93540  -9.93449
  Beta  occ. eigenvalues --   -9.93416  -9.93131  -9.92248  -9.92185  -9.92099
  Beta  occ. eigenvalues --   -0.86988  -0.84603  -0.71634  -0.71247  -0.65823
  Beta  occ. eigenvalues --   -0.61733  -0.61106  -0.55804  -0.55475  -0.54079
  Beta  occ. eigenvalues --   -0.51266  -0.51010  -0.49760  -0.48345  -0.43452
  Beta  occ. eigenvalues --   -0.42226  -0.40271  -0.39458  -0.38236  -0.36126
  Beta  occ. eigenvalues --   -0.33293  -0.31688  -0.30783  -0.29477  -0.29338
  Beta  occ. eigenvalues --   -0.27796  -0.26160  -0.25780  -0.24180  -0.24155
  Beta  occ. eigenvalues --   -0.23168  -0.23061  -0.22324  -0.21485  -0.20277
  Beta  occ. eigenvalues --   -0.18884  -0.18639  -0.17727  -0.17489  -0.16819
  Beta  occ. eigenvalues --   -0.16220  -0.15646  -0.15157  -0.14480  -0.13367
  Beta  occ. eigenvalues --   -0.12783  -0.12228  -0.11600  -0.10589  -0.10078
  Beta  occ. eigenvalues --   -0.09084  -0.08766  -0.08182  -0.05161  -0.02322
  Beta  occ. eigenvalues --   -0.01753  -0.00960  -0.00446  -0.00159   0.02376
  Beta  occ. eigenvalues --    0.03034   0.11560
  Beta virt. eigenvalues --    0.12881   0.15086   0.15448   0.15817   0.16431
  Beta virt. eigenvalues --    0.17217   0.17354   0.17934   0.18302   0.18494
  Beta virt. eigenvalues --    0.19129   0.19311   0.19783   0.21031   0.21118

 Mulliken charges and spin densities:
               1          2
     1  C   -0.141356   0.000000
     2  C   -0.444368   0.000000
     3  C   -0.477821   0.000000
     4  C    0.376705   0.000000
     5  C    0.328453   0.000000
     6  C   -0.087578   0.000000
     7  C   -0.488908   0.000000
     8  C    0.303716   0.000000
     9  C    0.793526   0.000000
    10  C   -0.992652  -0.000000
    11  C   -0.321407   0.000000
    12  C    0.230059   0.000000
    13  C   -0.438582   0.000000
    14  C   -0.148999   0.000000
    15  O   -0.443750   0.000000
    16  O   -0.494809   0.000000
    17  H    0.140600  -0.000000
    18  H    0.154212  -0.000000
    19  H    0.109319  -0.000000
    20  O   -0.037017   0.000000
    21  H    0.097873  -0.000000
    22  H    0.077672  -0.000000
    23  C    0.512458  -0.000000
    24  C   -1.041366  -0.000000
    25  C   -0.004902   0.000000
    26  C   -0.317323   0.000000
    27  C    0.291611   0.000000
    28  C    0.223880   0.000001
    29  O   -0.161536  -0.000000
    30  C   -0.260979   0.000000
    31  H    0.088654  -0.000000
    32  H    0.104271  -0.000000
    33  H    0.210637   0.000000
    34  H    0.093914  -0.000000
    35  H    0.045732  -0.000000
    36  H   -0.352614  -0.000001
    37  H    0.091941   0.000000
    38  H    0.072782  -0.000000
    39  H    0.307950   0.000000
 Sum of Mulliken charges =  -2.00000   0.00000

 Dipole moment (field-independent basis, Debye):
    X=              2.8221    Y=            -30.1524    Z=              2.1461  Tot=             30.3602
 Quadrupole moment (field-independent basis, Debye-Ang):
   XX=           -200.2782   YY=           -348.8601   ZZ=           -182.2004
   XY=            -18.2179   XZ=             16.9220   YZ=             24.1772

  Exact polarizability:1136.1701220.6222567.124 179.777 330.140 471.411
 Approx polarizability:1659.3561694.4453764.754 112.938 430.199 639.445

                      1                      2                      3
                      A                      A                      A
 Frequencies --     17.8515                35.6454                54.4301
 Red. masses --      5.2802                 5.6545                 6.0550
 Frc consts  --      0.0010                 0.0042                 0.0106
 IR Inten    --      7.9351                 0.3576                 5.5606

                      4                      5                      6
                      A                      A                      A
 Frequencies --     63.8641                75.2933               102.7151
 Red. masses --      2.5597                 4.6275                 4.9279
 Frc consts  --      0.0062                 0.0155                 0.0306
 IR Inten    --      1.5992                 6.7847                 3.9557

                      7                      8                      9
                      A                      A                      A
 Frequencies --    135.5703               145.0727               168.1953
 Red. masses --      4.4755                 4.3978                 6.7507
 Frc consts  --      0.0485                 0.0545                 0.1125
 IR Inten    --      4.2693                11.1222                 3.4198

                     10                     11                     12
                      A                      A                      A
 Frequencies --    190.5171               205.2850               219.1124
 Red. masses --      5.0130                 1.5513                 4.1224
 Frc consts  --      0.1072                 0.0385                 0.1166
 IR Inten    --     21.9437                 6.3665                 4.5849

                     13                     14                     15
                      A                      A                      A
 Frequencies --    224.4526               244.0711               282.5100
 Red. masses --      4.1880                 4.4760                 5.2407
 Frc consts  --      0.1243                 0.1571                 0.2464
 IR Inten    --      0.6878                 0.1420                 0.1374

                     16                     17                     18
                      A                      A                      A
 Frequencies --    312.3958               352.2909               354.8453
 Red. masses --      7.7673                 4.5875                 5.9290
 Frc consts  --      0.4466                 0.3354                 0.4399
 IR Inten    --     14.7257                99.4336                61.2698

                     19                     20                     21
                      A                      A                      A
 Frequencies --    377.7579               395.7909               401.3346
 Red. masses --     11.9142                 7.3276                 8.1155
 Frc consts  --      1.0017                 0.6763                 0.7702
 IR Inten    --      3.7180                 1.5866                86.3302

                     22                     23                     24
                      A                      A                      A
 Frequencies --    440.9006               453.5407               467.8592
 Red. masses --      3.7203                 5.7100                 5.5225
 Frc consts  --      0.4261                 0.6920                 0.7122
 IR Inten    --     13.6346               749.4051                78.5535

                     25                     26                     27
                      A                      A                      A
 Frequencies --    481.0700               491.9122               496.0035
 Red. masses --      4.9382                 6.8949                 4.4423
 Frc consts  --      0.6733                 0.9830                 0.6439
 IR Inten    --    279.7532               772.0779                46.0073

                     28                     29                     30
                      A                      A                      A
 Frequencies --    512.0754               561.1219               592.4710
 Red. masses --      5.3740                 4.9438                 6.9741
 Frc consts  --      0.8303                 0.9171                 1.4424
 IR Inten    --     86.2651                16.9504                38.8488

                     31                     32                     33
                      A                      A                      A
 Frequencies --    595.0725               605.7423               619.4249
 Red. masses --      4.3401                 6.3046                 5.4171
 Frc consts  --      0.9055                 1.3630                 1.2246
 IR Inten    --     27.0748                22.8202                 3.2447

                     34                     35                     36
                      A                      A                      A
 Frequencies --    646.5876               668.3676               686.5257
 Red. masses --      4.6894                 4.1399                 2.3208
 Frc consts  --      1.1551                 1.0896                 0.6445
 IR Inten    --     59.3342                 8.2822                35.3124

                     37                     38                     39
                      A                      A                      A
 Frequencies --    691.3874               715.9353               738.9521
 Red. masses --      6.3720                 1.7780                 2.1813
 Frc consts  --      1.7946                 0.5369                 0.7018
 IR Inten    --     16.9603                 0.5569                98.4332

                     40                     41                     42
                      A                      A                      A
 Frequencies --    740.6137               751.2883               761.9356
 Red. masses --      2.1591                 1.7906                 2.5990
 Frc consts  --      0.6978                 0.5955                 0.8890
 IR Inten    --     67.5526                80.3003                24.7419

                     43                     44                     45
                      A                      A                      A
 Frequencies --    772.7422               797.2483               800.3816
 Red. masses --      2.8068                 5.0996                 1.9546
 Frc consts  --      0.9875                 1.9097                 0.7377
 IR Inten    --     10.0208                 6.9367                 5.3222

                     46                     47                     48
                      A                      A                      A
 Frequencies --    827.9015               833.7209               847.3810
 Red. masses --      2.6338                 3.1377                 1.8843
 Frc consts  --      1.0636                 1.2850                 0.7972
 IR Inten    --      0.1893                 2.8118                 5.9733

                     49                     50                     51
                      A                      A                      A
 Frequencies --    852.4130               886.4085               914.8798
 Red. masses --      2.5081                 6.7085                 1.3805
 Frc consts  --      1.0737                 3.1056                 0.6808
 IR Inten    --      7.7776               283.9091                18.6968

                     52                     53                     54
                      A                      A                      A
 Frequencies --    935.7422               941.0578               961.7700
 Red. masses --      6.5886                 1.2432                 1.2541
 Frc consts  --      3.3990                 0.6487                 0.6835
 IR Inten    --      1.6943               104.4412                 0.1388

                     55                     56                     57
                      A                      A                      A
 Frequencies --    965.4613               968.3974               990.6389
 Red. masses --      1.2911                 1.3498                 6.9283
 Frc consts  --      0.7091                 0.7458                 4.0059
 IR Inten    --      0.1502                 3.9968               775.3100

                     58                     59                     60
                      A                      A                      A
 Frequencies --    999.6216              1019.1603              1050.5106
 Red. masses --      6.2219                 2.1298                 2.0549
 Frc consts  --      3.6631                 1.3034                 1.3361
 IR Inten    --    385.9317               215.2436               656.9395

                     61                     62                     63
                      A                      A                      A
 Frequencies --   1056.1919              1096.6327              1112.9409
 Red. masses --      1.9757                 2.1163                 1.7400
 Frc consts  --      1.2985                 1.4995                 1.2698
 IR Inten    --    287.1171                34.2913                87.1277

                     64                     65                     66
                      A                      A                      A
 Frequencies --   1115.7324              1150.4405              1161.6284
 Red. masses --      1.5420                 1.1728                 2.5903
 Frc consts  --      1.1310                 0.9146                 2.0593
 IR Inten    --    239.0271                12.8752               451.3578

                     67                     68                     69
                      A                      A                      A
 Frequencies --   1164.9735              1166.0983              1184.4934
 Red. masses --      1.2196                 1.3419                 1.4769
 Frc consts  --      0.9752                 1.0751                 1.2209
 IR Inten    --    116.4971               480.5557                67.0453

                     70                     71                     72
                      A                      A                      A
 Frequencies --   1192.1598              1199.8788              1216.9250
 Red. masses --      2.4883                 2.3737                 2.4839
 Frc consts  --      2.0837                 2.0135                 2.1673
 IR Inten    --    294.6323               108.7479               247.7060

                     73                     74                     75
                      A                      A                      A
 Frequencies --   1236.8897              1247.2698              1279.0207
 Red. masses --      2.4048                 2.7887                 2.7074
 Frc consts  --      2.1677                 2.5560                 2.6095
 IR Inten    --    152.2905               663.7297               625.2810

                     76                     77                     78
                      A                      A                      A
 Frequencies --   1289.1213              1311.3703              1338.9052
 Red. masses --      1.8158                 5.6392                 7.8191
 Frc consts  --      1.7779                 5.7137                 8.2586
 IR Inten    --    611.5662              1524.4214               198.1187

                     79                     80                     81
                      A                      A                      A
 Frequencies --   1345.0722              1347.6178              1370.4044
 Red. masses --      3.9359                 3.6505                 3.0120
 Frc consts  --      4.1955                 3.9060                 3.3327
 IR Inten    --    482.4888               790.2002               390.8751

                     82                     83                     84
                      A                      A                      A
 Frequencies --   1428.6059              1445.9224              1466.3851
 Red. masses --      3.4296                 6.7109                 2.4997
 Frc consts  --      4.1240                 8.2665                 3.1669
 IR Inten    --     70.8514              7075.0462              1227.0235

                     85                     86                     87
                      A                      A                      A
 Frequencies --   1467.5608              1480.0468              1482.0679
 Red. masses --      1.9328                 3.0319                 1.5203
 Frc consts  --      2.4526                 3.9131                 1.9675
 IR Inten    --      7.8855                42.4319                11.0812

                     88                     89                     90
                      A                      A                      A
 Frequencies --   1488.2372              1502.6039              1516.4104
 Red. masses --      4.2419                 1.5879                 1.7642
 Frc consts  --      5.5355                 2.1124                 2.3902
 IR Inten    --    659.1746               706.1787               697.0542

                     91                     92                     93
                      A                      A                      A
 Frequencies --   1519.3864              1532.3254              1557.3499
 Red. masses --      1.0945                 3.7001                 6.3558
 Frc consts  --      1.4887                 5.1188                 9.0822
 IR Inten    --      0.9594                98.2173              5407.3442

                     94                     95                     96
                      A                      A                      A
 Frequencies --   1584.1652              1595.1523              1609.1232
 Red. masses --      5.5340                 5.3315                 6.5835
 Frc consts  --      8.1826                 7.9929                10.0436
 IR Inten    --    347.0844                 0.6424                98.2325

                     97                     98                     99
                      A                      A                      A
 Frequencies --   1623.6439              2950.5754              3028.0977
 Red. masses --      5.8719                 1.0342                 1.1088
 Frc consts  --      9.1203                 5.3047                 5.9905
 IR Inten    --     42.6416               680.3182               395.9895

                    100                    101                    102
                      A                      A                      A
 Frequencies --   3079.4905              3095.7286              3118.3406
 Red. masses --      1.1028                 1.0829                 1.0851
 Frc consts  --      6.1616                 6.1144                 6.2169
 IR Inten    --    139.4565                32.1298                80.2318

                    103                    104                    105
                      A                      A                      A
 Frequencies --   3118.9343              3130.6416              3148.8213
 Red. masses --      1.0909                 1.0842                 1.0908
 Frc consts  --      6.2522                 6.2609                 6.3720
 IR Inten    --    350.9601               188.0391               138.1282

                    106                    107                    108
                      A                      A                      A
 Frequencies --   3157.0554              3160.7632              3161.1029
 Red. masses --      1.0907                 1.0934                 1.0919
 Frc consts  --      6.4049                 6.4359                 6.4283
 IR Inten    --     57.7692               478.2594                17.8682

                    109                    110                    111
                      A                      A                      A
 Frequencies --   3166.2826              3167.0710              3199.8552
 Red. masses --      1.0921                 1.0910                 1.0915
 Frc consts  --      6.4506                 6.4473                 6.5846
 IR Inten    --    129.6729               163.4991                24.0058

 - Thermochemistry -
 -------------------
 Temperature   298.150 Kelvin.  Pressure   1.00000 Atm.
 Atom     1 has atomic number  6 and mass  12.00000

 Molecular mass:   330.08921 amu.
 Principal axes and moments of inertia in atomic units:
                           1         2         3
     Eigenvalues --  4855.82817********************
           X            0.51225   0.71693   0.47287
           Y            0.78860  -0.61072   0.07165
           Z           -0.34016  -0.33620   0.87821
 This molecule is an asymmetric top.
 Rotational symmetry number  1.
 Warning -- assumption of classical behavior for rotation
           may cause significant error
 Rotational temperatures (Kelvin)      0.01784     0.00771     0.00636
 Rotational constants (GHZ):           0.37166     0.16065     0.13252
 Zero-point vibrational energy     759681.0 (Joules/Mol)
                                  181.56811 (Kcal/Mol)
 Warning -- explicit consideration of  33 degrees of freedom as
           vibrations may cause significant error
 Vibrational temperatures:     25.68    51.29    78.31    91.89   108.33
          (Kelvin)            147.78   195.06   208.73   242.00   274.11
                              295.36   315.25   322.94   351.16   406.47
                              449.47   506.87   510.54   543.51   569.45
                              577.43   634.36   652.54   673.15   692.15
                              707.75   713.64   736.76   807.33   852.43
                              856.18   871.53   891.21   930.30   961.63
                              987.76   994.75  1030.07  1063.19  1065.58
                             1080.94  1096.26  1111.80  1147.06  1151.57
                             1191.17  1199.54  1219.19  1226.43  1275.34
                             1316.31  1346.32  1353.97  1383.77  1389.08
                             1393.31  1425.31  1438.23  1466.34  1511.45
                             1519.62  1577.81  1601.27  1605.29  1655.23
                             1671.32  1676.14  1677.76  1704.22  1715.25
                             1726.36  1750.88  1779.61  1794.54  1840.23
                             1854.76  1886.77  1926.39  1935.26  1938.92
                             1971.71  2055.45  2080.36  2109.80  2111.49
                             2129.46  2132.37  2141.24  2161.91  2181.78
                             2186.06  2204.67  2240.68  2279.26  2295.07
                             2315.17  2336.06  4245.22  4356.76  4430.70
                             4454.06  4486.60  4487.45  4504.29  4530.45
                             4542.30  4547.63  4548.12  4555.57  4556.71
                             4603.88

 Zero-point correction=                           0.289347 (Hartree/Particle)
 Thermal correction to Energy=                    0.309114
 Thermal correction to Enthalpy=                  0.310058
 Thermal correction to Gibbs Free Energy=         0.240332
 Sum of electronic and zero-point Energies=          -1109.542966
 Sum of electronic and thermal Energies=             -1109.523199
 Sum of electronic and thermal Enthalpies=           -1109.522255
 Sum of electronic and thermal Free Energies=        -1109.591981

                     E (Thermal)             CV                S
                      KCal/Mol        Cal/Mol-Kelvin    Cal/Mol-Kelvin
 Total                  193.972             79.420            146.751
 Electronic               0.000              0.000              0.000
 Translational            0.889              2.981             43.278
 Rotational               0.889              2.981             34.962
 Vibrational            192.194             73.459             68.511
 Vibration     1          0.593              1.986              6.860
 Vibration     2          0.594              1.982              5.487
 Vibration     3          0.596              1.976              4.650
 Vibration     4          0.597              1.972              4.334
 Vibration     5          0.599              1.965              4.010
 Vibration     6          0.605              1.947              3.402
 Vibration     7          0.613              1.918              2.865
 Vibration     8          0.616              1.908              2.736
 Vibration     9          0.625              1.882              2.456
 Vibration    10          0.634              1.853              2.223
 Vibration    11          0.640              1.832              2.085
 Vibration    12          0.647              1.812              1.966
 Vibration    13          0.649              1.804              1.923
 Vibration    14          0.659              1.773              1.773
 Vibration    15          0.682              1.706              1.518
 Vibration    16          0.701              1.650              1.350
 Vibration    17          0.729              1.571              1.156
 Vibration    18          0.731              1.565              1.145
 Vibration    19          0.748              1.518              1.048
 Vibration    20          0.763              1.479              0.978
 Vibration    21          0.767              1.467              0.958
 Vibration    22          0.801              1.381              0.824
 Vibration    23          0.812              1.353              0.785
 Vibration    24          0.825              1.321              0.744
 Vibration    25          0.837              1.292              0.707
 Vibration    26          0.848              1.268              0.679
 Vibration    27          0.852              1.259              0.668
 Vibration    28          0.867              1.223              0.629
 Vibration    29          0.917              1.115              0.522
 Vibration    30          0.950              1.048              0.463
 Vibration    31          0.953              1.042              0.458
 Vibration    32          0.964              1.020              0.440
 Vibration    33          0.979              0.991              0.417

 Optimization completed.
    -- Stationary point found.
 Normal termination of Gaussian 16 at Wed Dec 27 23:19:08 2023.
