 Q-Chem 5.4, Q-Chem, Inc., Pleasanton, CA (2021)
 Q-Chem 5.4.0 for Intel X86 EM64T Linux

User input:
--------------------------------------------------------------
$molecule
-2 1
C                 -3.0648920000      3.5806660000      1.0167040000
C                 -3.9836360000      2.9774600000      1.8495420000
C                 -3.8333110000      1.6043910000      2.1882780000
C                 -1.9562000000      2.8769560000      0.4775570000
C                 -1.8036100000      1.4852210000      0.8248010000
C                 -2.7665950000      0.8927240000      1.6808030000
C                 -1.0401120000      3.5875350000     -0.3956160000
C                  0.0699140000      2.8007010000     -0.8805130000
C                  0.2126520000      1.3799650000     -0.5425810000
C                 -0.7120050000      0.6785890000      0.3209550000
C                  1.0914630000      3.3250920000     -1.7326550000
C                  2.1213490000      2.5757180000     -2.2510430000
C                  2.2215470000      1.1941080000     -1.9309320000
C                  1.2872610000      0.6358250000     -1.0901890000
O                 -1.2414210000      4.8239860000     -0.6955110000
O                 -0.5827000000     -0.5636230000      0.6151660000
H                 -2.6200860000     -0.1567230000      1.9165750000
H                  1.3272570000     -0.4114860000     -0.8090600000
H                 -3.1515510000      4.6259840000      0.7389900000
O                  1.0730740000      4.6723780000     -2.1518800000
H                  3.0331420000      0.5989080000     -2.3423160000
H                 -4.5554190000      1.1212020000      2.8440370000
C                  1.5453220000      5.6363710000     -1.3298950000
C                  1.3621250000      6.9737080000     -1.7493650000
C                  2.2521340000      5.3889470000     -0.1499670000
C                  2.7939880000      6.4433120000      0.5859400000
C                  1.9248400000      8.0125170000     -1.0149770000
C                  2.6491350000      7.7589370000      0.1531550000
O                  0.6960820000      7.2698050000     -2.9149390000
C                 -0.7046170000      6.9061500000     -2.9329150000
H                 -4.8200630000      3.5489160000      2.2479070000
H                  2.8431650000      3.0651180000     -2.8971270000
H                  2.3668440000      4.3641450000      0.1786380000
H                  3.3343050000      6.2265510000      1.5027820000
H                  1.7749890000      9.0255090000     -1.3754820000
H                  3.0781470000      8.5809790000      0.7189370000
H                 -0.9477070000      6.6561670000     -3.9688260000
H                 -1.2960500000      7.7780800000     -2.6214750000
H                 -0.9187710000      6.0597810000     -2.2698520000
$end
$rem
MAX_SCF_CYCLES=200
BASIS  =  6-311++G(d,p)
GUI  =  2
JOB_TYPE  =  SP
METHOD  =  B3LYP
SOLVENT_METHOD = PCM
$end
$pcm
theory = CPCM
$end
$solvent
dielectric 37.219
opticaldielectric 1.43
$end

--------------------------------------------------------------

             Standard Nuclear Orientation (Angstroms)
    I     Atom           X                Y                Z
 ----------------------------------------------------------------
    1      C      -3.0648920000     3.5806660000     1.0167040000
    2      C      -3.9836360000     2.9774600000     1.8495420000
    3      C      -3.8333110000     1.6043910000     2.1882780000
    4      C      -1.9562000000     2.8769560000     0.4775570000
    5      C      -1.8036100000     1.4852210000     0.8248010000
    6      C      -2.7665950000     0.8927240000     1.6808030000
    7      C      -1.0401120000     3.5875350000    -0.3956160000
    8      C       0.0699140000     2.8007010000    -0.8805130000
    9      C       0.2126520000     1.3799650000    -0.5425810000
   10      C      -0.7120050000     0.6785890000     0.3209550000
   11      C       1.0914630000     3.3250920000    -1.7326550000
   12      C       2.1213490000     2.5757180000    -2.2510430000
   13      C       2.2215470000     1.1941080000    -1.9309320000
   14      C       1.2872610000     0.6358250000    -1.0901890000
   15      O      -1.2414210000     4.8239860000    -0.6955110000
   16      O      -0.5827000000    -0.5636230000     0.6151660000
   17      H      -2.6200860000    -0.1567230000     1.9165750000
   18      H       1.3272570000    -0.4114860000    -0.8090600000
   19      H      -3.1515510000     4.6259840000     0.7389900000
   20      O       1.0730740000     4.6723780000    -2.1518800000
   21      H       3.0331420000     0.5989080000    -2.3423160000
   22      H      -4.5554190000     1.1212020000     2.8440370000
   23      C       1.5453220000     5.6363710000    -1.3298950000
   24      C       1.3621250000     6.9737080000    -1.7493650000
   25      C       2.2521340000     5.3889470000    -0.1499670000
   26      C       2.7939880000     6.4433120000     0.5859400000
   27      C       1.9248400000     8.0125170000    -1.0149770000
   28      C       2.6491350000     7.7589370000     0.1531550000
   29      O       0.6960820000     7.2698050000    -2.9149390000
   30      C      -0.7046170000     6.9061500000    -2.9329150000
   31      H      -4.8200630000     3.5489160000     2.2479070000
   32      H       2.8431650000     3.0651180000    -2.8971270000
   33      H       2.3668440000     4.3641450000     0.1786380000
   34      H       3.3343050000     6.2265510000     1.5027820000
   35      H       1.7749890000     9.0255090000    -1.3754820000
   36      H       3.0781470000     8.5809790000     0.7189370000
   37      H      -0.9477070000     6.6561670000    -3.9688260000
   38      H      -1.2960500000     7.7780800000    -2.6214750000
   39      H      -0.9187710000     6.0597810000    -2.2698520000
 ----------------------------------------------------------------

    9   -1110.0846120925      4.19e-06  Convergence criterion met
 Total energy in the final basis set =    -1110.0846120925

                    Orbital Energies (a.u.)
 --------------------------------------------------------------

 Alpha MOs
 -- Occupied --
-19.1482 -19.1339 -19.0255 -19.0207 -10.2310 -10.2208 -10.2156 -10.1923
-10.1816 -10.1783 -10.1683 -10.1679 -10.1655 -10.1651 -10.1522 -10.1517
-10.1512 -10.1511 -10.1497 -10.1484 -10.1478 -10.1471 -10.1419 -10.1403
-10.1399  -1.0730  -1.0406  -0.9459  -0.9406  -0.8491  -0.8314  -0.8244
 -0.7582  -0.7513  -0.7463  -0.7256  -0.7163  -0.7113  -0.6736  -0.6445
 -0.6284  -0.6066  -0.5956  -0.5899  -0.5610  -0.5421  -0.5192  -0.5106
 -0.5035  -0.4863  -0.4786  -0.4564  -0.4546  -0.4465  -0.4449  -0.4311
 -0.4304  -0.4286  -0.4193  -0.4017  -0.3995  -0.3919  -0.3829  -0.3789
 -0.3774  -0.3727  -0.3638  -0.3581  -0.3533  -0.3418  -0.3391  -0.3307
 -0.3291  -0.3220  -0.3175  -0.3062  -0.3038  -0.2793  -0.2429  -0.2361
 -0.2295  -0.2273  -0.2214  -0.2145  -0.2067  -0.1965  -0.1105

          Ground-State Mulliken Net Atomic Charges

     Atom                 Charge (a.u.)
  ----------------------------------------
      1 C                    -0.174770
      2 C                    -0.493532
      3 C                    -0.593324
      4 C                     0.246666
      5 C                     0.233386
      6 C                    -0.100272
      7 C                    -0.294382
      8 C                     0.298494
      9 C                     0.652866
     10 C                    -0.539012
     11 C                    -0.346914
     12 C                     0.121585
     13 C                    -0.519123
     14 C                    -0.222023
     15 O                    -0.607409
     16 O                    -0.677889
     17 H                     0.158295
     18 H                     0.160309
     19 H                     0.125883
     20 O                    -0.058092
     21 H                     0.189178
     22 H                     0.172467
     23 C                     0.701465
     24 C                    -0.782948
     25 C                    -0.086855
     26 C                    -0.470428
     27 C                     0.001379
     28 C                    -0.310090
     29 O                    -0.198572
     30 C                    -0.302705
     31 H                     0.180515
     32 H                     0.182218
     33 H                     0.206529
     34 H                     0.213191
     35 H                     0.213967
     36 H                     0.189646
     37 H                     0.149422
     38 H                     0.138741
     39 H                     0.242138
  ----------------------------------------
  Sum of atomic charges =    -2.000001

                    Cartesian Multipole Moments
 -----------------------------------------------------------------
    Charge (ESU x 10^10)
                -9.6064
    Dipole Moment (Debye)
         X       6.0958      Y     -23.8576      Z       2.9654
       Tot      24.8019
    Quadrupole Moments (Debye-Ang)
        XX    -172.5213     XY       7.7664     YY    -278.3172
        XZ      10.9488     YZ      30.9798     ZZ    -171.4134

 Total job time:  151.98s(wall), 796.96s(cpu)
        *  Thank you very much for using Q-Chem.  Have a nice day.  *
