 Q-Chem 5.4, Q-Chem, Inc., Pleasanton, CA (2021)
 Q-Chem 5.4.0 for Intel X86 EM64T Linux

User input:
--------------------------------------------------------------
$molecule
-2 1
F                 -2.6821130000      0.5685850000     -0.0156720000
C                 -1.3366710000      0.2344390000     -0.0072050000
C                 -0.4245870000      1.2889830000     -0.0170640000
F                 -0.9489580000      2.5719810000     -0.0344000000
C                  0.9951030000      1.1503340000     -0.0107260000
O                  1.8421330000      2.1295670000     -0.0199220000
C                  1.3366420000     -0.2344470000      0.0072170000
C                  0.4245790000     -1.2889550000      0.0170760000
F                  0.9489990000     -2.5719340000      0.0343630000
C                 -0.9950340000     -1.1502970000      0.0107830000
O                 -1.8421740000     -2.1296130000      0.0199140000
F                  2.6820820000     -0.5686440000      0.0156360000
$end
$rem
MAX_SCF_CYCLES=200
BASIS  =  6-311++G(d,p)
GUI  =  2
JOB_TYPE  =  SP
METHOD  =  B3LYP
SOLVENT_METHOD = PCM
$end
$pcm
theory = CPCM
$end
$solvent
dielectric 37.219
opticaldielectric 1.43
$end

--------------------------------------------------------------

             Standard Nuclear Orientation (Angstroms)
    I     Atom           X                Y                Z
 ----------------------------------------------------------------
    1      F      -2.6821130000     0.5685850000    -0.0156720000
    2      C      -1.3366710000     0.2344390000    -0.0072050000
    3      C      -0.4245870000     1.2889830000    -0.0170640000
    4      F      -0.9489580000     2.5719810000    -0.0344000000
    5      C       0.9951030000     1.1503340000    -0.0107260000
    6      O       1.8421330000     2.1295670000    -0.0199220000
    7      C       1.3366420000    -0.2344470000     0.0072170000
    8      C       0.4245790000    -1.2889550000     0.0170760000
    9      F       0.9489990000    -2.5719340000     0.0343630000
   10      C      -0.9950340000    -1.1502970000     0.0107830000
   11      O      -1.8421740000    -2.1296130000     0.0199140000
   12      F       2.6820820000    -0.5686440000     0.0156360000
 ----------------------------------------------------------------

    8    -778.9155030761      7.29e-06  Convergence criterion met
 Total energy in the final basis set =     -778.9155030761

                    Orbital Energies (a.u.)
 --------------------------------------------------------------

 Alpha MOs
 -- Occupied --
-24.6731 -24.6731 -24.6731 -24.6731 -19.0385 -19.0384 -10.2262 -10.2262
-10.2257 -10.2257 -10.2029 -10.2029  -1.2084  -1.2078  -1.1945  -1.1941
 -0.9520  -0.9488  -0.8189  -0.7220  -0.6911  -0.6057  -0.5963  -0.5302
 -0.5258  -0.5224  -0.4891  -0.4709  -0.4599  -0.4552  -0.4361  -0.4305
 -0.4171  -0.4064  -0.3853  -0.3800  -0.3684  -0.3546  -0.3527  -0.3286
 -0.2444  -0.2249  -0.2231  -0.2179  -0.1429

          Ground-State Mulliken Net Atomic Charges

     Atom                 Charge (a.u.)
  ----------------------------------------
      1 F                    -0.276213
      2 C                     0.093072
      3 C                     0.086828
      4 F                    -0.275785
      5 C                     0.121174
      6 O                    -0.749216
      7 C                     0.093591
      8 C                     0.086351
      9 F                    -0.275788
     10 C                     0.121559
     11 O                    -0.749348
     12 F                    -0.276226
  ----------------------------------------
  Sum of atomic charges =    -2.000000

                    Cartesian Multipole Moments
 -----------------------------------------------------------------
    Charge (ESU x 10^10)
                -9.6064
    Dipole Moment (Debye)
         X       0.0012      Y       0.0015      Z       0.0001
       Tot       0.0019
    Quadrupole Moments (Debye-Ang)
        XX    -111.6172     XY     -21.1404     YY    -117.7386
        XZ       0.1174     YZ       0.5279     ZZ     -68.6882

 Total job time:  14.90s(wall), 72.62s(cpu)
        *  Thank you very much for using Q-Chem.  Have a nice day.  *
