 Gaussian 16, Revision A.03,
 Gaussian 16:  ES64L-G16RevA.03 25-Dec-2016

 ----------------------------------------------------------------------
 #P UB3LYP/6-311++G(d,p) nosym opt freq SCRF=(PCM,Solvent=n,n-DiMethylF
 ormamide)
 ----------------------------------------------------------------------

 -------
 Radical
 -------
 Symbolic Z-matrix:
 Charge = -1 Multiplicity = 2

 SCF Done:  E(UB3LYP) =  -839.598219270     A.U. after   17 cycles
 SCF Done:  E(UB3LYP) =  -839.598737286     A.U. after   13 cycles
 SCF Done:  E(UB3LYP) =  -839.598810826     A.U. after   12 cycles
 SCF Done:  E(UB3LYP) =  -839.598812419     A.U. after   10 cycles
 SCF Done:  E(UB3LYP) =  -839.598812874     A.U. after   10 cycles
 Optimization completed.
    -- Stationary point found.
 Normal termination of Gaussian 16 at Sat Feb 10 22:30:35 2024.

 ----------------------------------------------------------------------
 #P Geom=AllCheck Guess=TCheck SCRF=Check GenChk UB3LYP/6-311++G(d,p) F
 req
 ----------------------------------------------------------------------

 Structure from the checkpoint file:  "188-rad.chk"
 -------
 Radical
 -------
 Charge = -1 Multiplicity = 2

                          Input orientation:
 ---------------------------------------------------------------------
 Center     Atomic      Atomic             Coordinates (Angstroms)
 Number     Number       Type             X           Y           Z
 ---------------------------------------------------------------------
      1          8           0        5.048914   -0.170102   -0.436259
      2          6           0        3.725085    0.146704   -0.252625
      3          6           0        3.435264    1.491663    0.065427
      4          6           0        2.126690    1.873948    0.262296
      5          6           0        1.056944    0.954788    0.154669
      6          6           0       -0.311030    1.408660    0.371395
      7          8           0       -0.581105    2.612086    0.655111
      8          6           0       -1.360312    0.400294    0.244108
      9          6           0       -2.707531    0.778665    0.443424
     10          6           0       -3.725097   -0.146675    0.330395
     11          8           0       -5.048941    0.170169    0.513852
     12          6           0       -3.435276   -1.491632    0.012333
     13          6           0       -2.126685   -1.873959   -0.184340
     14          6           0       -1.056921   -0.954846   -0.076499
     15          6           0        0.311072   -1.408765   -0.293009
     16          8           0        0.581113   -2.612108   -0.577106
     17          6           0        1.360335   -0.400352   -0.165941
     18          6           0        2.707537   -0.778680   -0.365453
     19          1           0        5.133321   -1.107792   -0.647478
     20          1           0        4.249172    2.202621    0.150118
     21          1           0        1.891296    2.902461    0.507409
     22          1           0       -2.920010    1.814364    0.685979
     23          1           0       -5.133363    1.107893    0.724913
     24          1           0       -4.249199   -2.202553   -0.072523
     25          1           0       -1.891292   -2.902472   -0.429456
     26          1           0        2.920019   -1.814381   -0.607991
 ---------------------------------------------------------------------

 SCF Done:  E(UB3LYP) =  -839.598812874     A.U. after    1 cycles

 Alpha  occ. eigenvalues --  -19.15792 -19.15792 -19.07327 -19.07326 -10.23733
 Alpha  occ. eigenvalues --  -10.23732 -10.22225 -10.22224 -10.17601 -10.17600
 Alpha  occ. eigenvalues --  -10.17484 -10.17483 -10.17307 -10.17307 -10.16979
 Alpha  occ. eigenvalues --  -10.16978 -10.16881 -10.16881  -1.06645  -1.06645
 Alpha  occ. eigenvalues --   -0.99737  -0.99463  -0.86134  -0.85066  -0.78423
 Alpha  occ. eigenvalues --   -0.75479  -0.75071  -0.73780  -0.66726  -0.65695
 Alpha  occ. eigenvalues --   -0.61774  -0.61691  -0.56042  -0.56002  -0.54229
 Alpha  occ. eigenvalues --   -0.53586  -0.48035  -0.46975  -0.46722  -0.46553
 Alpha  occ. eigenvalues --   -0.43056  -0.42954  -0.42780  -0.41655  -0.41426
 Alpha  occ. eigenvalues --   -0.41272  -0.40000  -0.39836  -0.39819  -0.38061
 Alpha  occ. eigenvalues --   -0.37732  -0.35754  -0.35317  -0.33934  -0.33660
 Alpha  occ. eigenvalues --   -0.31808  -0.26486  -0.25701  -0.24497  -0.24450
 Alpha  occ. eigenvalues --   -0.23706  -0.22785  -0.14009
 Alpha virt. eigenvalues --   -0.05336  -0.01236  -0.00497  -0.00453   0.00005
 Alpha virt. eigenvalues --    0.01082   0.01297   0.02362   0.03769   0.04294
 Alpha virt. eigenvalues --    0.04339   0.04559   0.05027   0.06250   0.06310

  Beta  occ. eigenvalues --  -19.15771 -19.15771 -19.06779 -19.06779 -10.23679
  Beta  occ. eigenvalues --  -10.23679 -10.22033 -10.22032 -10.17496 -10.17495
  Beta  occ. eigenvalues --  -10.17478 -10.17478 -10.17288 -10.17288 -10.16941
  Beta  occ. eigenvalues --  -10.16940 -10.16856 -10.16855  -1.06593  -1.06592
  Beta  occ. eigenvalues --   -0.98776  -0.98476  -0.85866  -0.84963  -0.78053
  Beta  occ. eigenvalues --   -0.75203  -0.74929  -0.73631  -0.65958  -0.65556
  Beta  occ. eigenvalues --   -0.61593  -0.61553  -0.55920  -0.55769  -0.54147
  Beta  occ. eigenvalues --   -0.53402  -0.47794  -0.46780  -0.46581  -0.46466
  Beta  occ. eigenvalues --   -0.43015  -0.42737  -0.42226  -0.41404  -0.41186
  Beta  occ. eigenvalues --   -0.40865  -0.39714  -0.39524  -0.39025  -0.38000
  Beta  occ. eigenvalues --   -0.35583  -0.35429  -0.35268  -0.33619  -0.33485
  Beta  occ. eigenvalues --   -0.30597  -0.25466  -0.24805  -0.23993  -0.23223
  Beta  occ. eigenvalues --   -0.23194  -0.22235
  Beta virt. eigenvalues --   -0.08089  -0.04394  -0.00484  -0.00251  -0.00191
  Beta virt. eigenvalues --    0.00005   0.01085   0.01303   0.02371   0.03783
  Beta virt. eigenvalues --    0.04321   0.04555   0.04597   0.05351   0.06253

 Mulliken charges and spin densities:
               1          2
     1  O   -0.289778   0.005561
     2  C   -0.633260   0.034663
     3  C   -0.174627   0.017167
     4  C    0.108015   0.027762
     5  C    0.178858   0.007259
     6  C   -0.569412   0.112591
     7  O   -0.476505   0.203559
     8  C    0.350950   0.056168
     9  C    0.174544   0.042234
    10  C   -0.633237   0.034663
    11  O   -0.289778   0.005561
    12  C   -0.174639   0.017167
    13  C    0.108022   0.027763
    14  C    0.178887   0.007260
    15  C   -0.569415   0.112590
    16  O   -0.476504   0.203559
    17  C    0.350970   0.056168
    18  C    0.174546   0.042234
    19  H    0.303289  -0.000218
    20  H    0.207307  -0.001911
    21  H    0.170947  -0.001720
    22  H    0.149637  -0.003116
    23  H    0.303289  -0.000218
    24  H    0.207307  -0.001911
    25  H    0.170947  -0.001720
    26  H    0.149638  -0.003116
 Sum of Mulliken charges =  -1.00000   1.00000

 Dipole moment (field-independent basis, Debye):
    X=             -0.0001    Y=              0.0001    Z=             -0.1875  Tot=              0.1875
 Quadrupole moment (field-independent basis, Debye-Ang):
   XX=           -115.5358   YY=           -131.0456   ZZ=           -111.1045
   XY=             -7.3493   XZ=             -1.1416   YZ=             -3.8161

  Exact polarizability: 470.921  10.078 338.718 -27.445  44.657 141.094
 Approx polarizability: 493.616  -1.622 403.982 -30.295  55.652 163.001

                      1                      2                      3
                      A                      A                      A
 Frequencies --     38.7096                90.7817               109.9560
 Red. masses --      9.5892                 4.3831                 6.3280
 Frc consts  --      0.0085                 0.0213                 0.0451
 IR Inten    --     10.4371                 0.4187                 0.0000

                      4                      5                      6
                      A                      A                      A
 Frequencies --    147.2431               170.6867               181.4642
 Red. masses --      8.0882                 6.7208                 6.1556
 Frc consts  --      0.1033                 0.1154                 0.1194
 IR Inten    --     11.1782                 6.8597                 0.0000

                      7                      8                      9
                      A                      A                      A
 Frequencies --    243.9208               279.4967               319.3365
 Red. masses --      7.8676                 5.3303                 7.7455
 Frc consts  --      0.2758                 0.2453                 0.4654
 IR Inten    --      0.0000                 8.5074                 0.0000

                     10                     11                     12
                      A                      A                      A
 Frequencies --    319.8083               345.6597               345.8261
 Red. masses --      3.5705                 1.2856                 1.1527
 Frc consts  --      0.2152                 0.0905                 0.0812
 IR Inten    --      0.0000                 2.9596               332.0591

                     13                     14                     15
                      A                      A                      A
 Frequencies --    360.8800               391.8577               405.6411
 Red. masses --     10.2719                 6.7715                 4.9522
 Frc consts  --      0.7882                 0.6126                 0.4801
 IR Inten    --     31.4794                 0.0000                44.8066

                     16                     17                     18
                      A                      A                      A
 Frequencies --    425.3047               452.7575               463.4104
 Red. masses --      3.2623                 3.0781                 5.7347
 Frc consts  --      0.3477                 0.3718                 0.7256
 IR Inten    --     10.6212                 0.0000                 0.0000

                     19                     20                     21
                      A                      A                      A
 Frequencies --    487.6938               492.5940               546.6152
 Red. masses --      7.7392                 9.9014                 7.4092
 Frc consts  --      1.0845                 1.4155                 1.3043
 IR Inten    --      0.0000                 0.0000                84.4247

                     22                     23                     24
                      A                      A                      A
 Frequencies --    570.1573               645.2153               659.4338
 Red. masses --      3.5360                 6.5952                 3.6887
 Frc consts  --      0.6773                 1.6177                 0.9451
 IR Inten    --     26.3934                 0.0000                 0.0000

                     25                     26                     27
                      A                      A                      A
 Frequencies --    664.0487               704.2896               710.8953
 Red. masses --      6.7024                 6.6349                 4.2248
 Frc consts  --      1.7413                 1.9390                 1.2580
 IR Inten    --      7.7695                 0.0000                12.2376

                     28                     29                     30
                      A                      A                      A
 Frequencies --    730.5843               731.8782               775.7720
 Red. masses --      6.8226                 6.8811                 3.4045
 Frc consts  --      2.1456                 2.1716                 1.2072
 IR Inten    --     58.9199                46.6411                 0.0000

                     31                     32                     33
                      A                      A                      A
 Frequencies --    811.0789               828.0587               830.3569
 Red. masses --      7.1131                 1.5027                 1.7756
 Frc consts  --      2.7570                 0.6071                 0.7213
 IR Inten    --      0.0000                53.0973                 0.0000

                     34                     35                     36
                      A                      A                      A
 Frequencies --    878.6645               880.9536               886.2453
 Red. masses --      1.4995                 1.5274                 7.1267
 Frc consts  --      0.6821                 0.6984                 3.2980
 IR Inten    --      0.0000                73.6371               166.6043

                     37                     38                     39
                      A                      A                      A
 Frequencies --    980.5104               982.1258               991.3695
 Red. masses --      1.3038                 1.3186                 3.7388
 Frc consts  --      0.7385                 0.7494                 2.1650
 IR Inten    --      0.0000                 2.9657                 0.0000

                     40                     41                     42
                      A                      A                      A
 Frequencies --    993.4649              1098.4288              1115.7174
 Red. masses --      2.4185                 2.5848                 1.5814
 Frc consts  --      1.4064                 1.8375                 1.1598
 IR Inten    --     13.8394                62.0960                 0.0000

                     43                     44                     45
                      A                      A                      A
 Frequencies --   1145.9879              1152.4232              1168.5179
 Red. masses --      1.8622                 1.9169                 1.7261
 Frc consts  --      1.4409                 1.5000                 1.3886
 IR Inten    --    127.1831                 0.0000               567.1354

                     46                     47                     48
                      A                      A                      A
 Frequencies --   1179.2049              1211.2142              1213.8837
 Red. masses --      1.4932                 2.2116                 1.7366
 Frc consts  --      1.2233                 1.9116                 1.5076
 IR Inten    --      0.0001               721.3625                 0.0003

                     49                     50                     51
                      A                      A                      A
 Frequencies --   1250.3338              1261.7287              1291.8649
 Red. masses --      2.4748                 4.5491                 2.4026
 Frc consts  --      2.2795                 4.2668                 2.3625
 IR Inten    --     50.0199                 0.0000               124.2349

                     52                     53                     54
                      A                      A                      A
 Frequencies --   1346.2771              1371.1847              1375.1759
 Red. masses --      2.0178                 7.9483                 7.7594
 Frc consts  --      2.1548                 8.8048                 8.6456
 IR Inten    --      0.0000                17.3567                 0.0000

                     55                     56                     57
                      A                      A                      A
 Frequencies --   1410.4494              1471.2486              1480.6195
 Red. masses --      3.4806                 2.9812                 4.3581
 Frc consts  --      4.0797                 3.8020                 5.6291
 IR Inten    --   1291.2757               445.2457                 0.0000

                     58                     59                     60
                      A                      A                      A
 Frequencies --   1492.4375              1497.1575              1538.2890
 Red. masses --      4.8099                 5.9131                 5.1491
 Frc consts  --      6.3122                 7.8091                 7.1788
 IR Inten    --      0.0000              1607.6329                 0.0000

                     61                     62                     63
                      A                      A                      A
 Frequencies --   1576.0496              1610.4992              1628.3822
 Red. masses --      5.4868                 7.4193                 6.7061
 Frc consts  --      8.0299                11.3380                10.4770
 IR Inten    --     66.5529                 0.0000                 0.0000

                     64                     65                     66
                      A                      A                      A
 Frequencies --   1633.7284              3170.8927              3171.1299
 Red. masses --      6.7638                 1.0898                 1.0898
 Frc consts  --     10.6365                 6.4559                 6.4569
 IR Inten    --    612.7451                56.1113                 0.0002

                     67                     68                     69
                      A                      A                      A
 Frequencies --   3176.5237              3176.6669              3193.3728
 Red. masses --      1.0877                 1.0878                 1.0939
 Frc consts  --      6.4662                 6.4674                 6.5727
 IR Inten    --      9.2850                 0.0000                49.3269

                     70                     71                     72
                      A                      A                      A
 Frequencies --   3193.6356              3808.5731              3808.8292
 Red. masses --      1.0939                 1.0662                 1.0663
 Frc consts  --      6.5738                 9.1120                 9.1137
 IR Inten    --      0.0001               268.6179                 0.0003

 - Thermochemistry -
 -------------------
 Temperature   298.150 Kelvin.  Pressure   1.00000 Atm.
 Atom     1 has atomic number  8 and mass  15.99491

 Molecular mass:   240.04226 amu.
 Principal axes and moments of inertia in atomic units:
                           1         2         3
     Eigenvalues --  1769.793116902.228268672.02050
           X            0.99483  -0.05643   0.08443
           Y            0.07322   0.97467  -0.21132
           Z           -0.07036   0.21641   0.97376
 This molecule is an asymmetric top.
 Rotational symmetry number  1.
 Warning -- assumption of classical behavior for rotation
           may cause significant error
 Rotational temperatures (Kelvin)      0.04894     0.01255     0.00999
 Rotational constants (GHZ):           1.01975     0.26147     0.20811
 Zero-point vibrational energy     485056.9 (Joules/Mol)
                                  115.93137 (Kcal/Mol)
 Warning -- explicit consideration of  22 degrees of freedom as
           vibrations may cause significant error
 Vibrational temperatures:     55.69   130.61   158.20   211.85   245.58
          (Kelvin)            261.09   350.95   402.13   459.45   460.13
                              497.33   497.57   519.23   563.80   583.63
                              611.92   651.42   666.74   701.68   708.73
                              786.46   820.33   928.32   948.78   955.42
                             1013.32  1022.82  1051.15  1053.01  1116.16
                             1166.96  1191.39  1194.70  1264.20  1267.50
                             1275.11  1410.74  1413.06  1426.36  1429.37
                             1580.39  1605.27  1648.82  1658.08  1681.24
                             1696.61  1742.67  1746.51  1798.95  1815.35
                             1858.71  1936.99  1972.83  1978.57  2029.32
                             2116.80  2130.28  2147.28  2154.08  2213.25
                             2267.58  2317.15  2342.88  2350.57  4562.21
                             4562.55  4570.31  4570.52  4594.55  4594.93
                             5479.69  5480.06

 Zero-point correction=                           0.184748 (Hartree/Particle)
 Thermal correction to Energy=                    0.198536
 Thermal correction to Enthalpy=                  0.199480
 Thermal correction to Gibbs Free Energy=         0.143823
 Sum of electronic and zero-point Energies=           -839.414064
 Sum of electronic and thermal Energies=              -839.400277
 Sum of electronic and thermal Enthalpies=            -839.399333
 Sum of electronic and thermal Free Energies=         -839.454990

                     E (Thermal)             CV                S
                      KCal/Mol        Cal/Mol-Kelvin    Cal/Mol-Kelvin
 Total                  124.583             55.798            117.140
 Electronic               0.000              0.000              1.377
 Translational            0.889              2.981             42.328
 Rotational               0.889              2.981             33.027
 Vibrational            122.806             49.836             40.408
 Vibration     1          0.594              1.981              5.324
 Vibration     2          0.602              1.956              3.643
 Vibration     3          0.606              1.941              3.270
 Vibration     4          0.617              1.906              2.708
 Vibration     5          0.626              1.879              2.428
 Vibration     6          0.630              1.865              2.313
 Vibration     7          0.659              1.773              1.774
 Vibration     8          0.680              1.711              1.537
 Vibration     9          0.705              1.637              1.313
 Vibration    10          0.706              1.636              1.311
 Vibration    11          0.724              1.584              1.186
 Vibration    12          0.724              1.584              1.185
 Vibration    13          0.735              1.553              1.118
 Vibration    14          0.759              1.488              0.993
 Vibration    15          0.771              1.458              0.942
 Vibration    16          0.787              1.415              0.874
 Vibration    17          0.811              1.355              0.787
 Vibration    18          0.821              1.331              0.756
 Vibration    19          0.844              1.277              0.690
 Vibration    20          0.848              1.266              0.677
 Vibration    21          0.902              1.147              0.551
 Vibration    22          0.926              1.096              0.504

 Optimization completed.
    -- Stationary point found.
 Normal termination of Gaussian 16 at Sat Feb 10 23:46:00 2024.
