 Gaussian 16, Revision A.03,
 Gaussian 16:  ES64L-G16RevA.03 25-Dec-2016

 ----------------------------------------------------------------------
 #P UB3LYP/6-311++G(d,p) nosym opt freq SCRF=(PCM,Solvent=n,n-DiMethylF
 ormamide)
 ----------------------------------------------------------------------

 -------
 Reduced
 -------
 Symbolic Z-matrix:
 Charge = -2 Multiplicity = 1

 SCF Done:  E(UB3LYP) =  -1090.23610749     A.U. after   18 cycles
 SCF Done:  E(UB3LYP) =  -1090.23726303     A.U. after   14 cycles
 SCF Done:  E(UB3LYP) =  -1090.23698861     A.U. after   14 cycles
 SCF Done:  E(UB3LYP) =  -1090.23787332     A.U. after   13 cycles
 SCF Done:  E(UB3LYP) =  -1090.23790292     A.U. after   13 cycles
 SCF Done:  E(UB3LYP) =  -1090.23797784     A.U. after   12 cycles
 SCF Done:  E(UB3LYP) =  -1090.23799221     A.U. after   11 cycles
 SCF Done:  E(UB3LYP) =  -1090.23800660     A.U. after   12 cycles
 SCF Done:  E(UB3LYP) =  -1090.23801661     A.U. after   12 cycles
 SCF Done:  E(UB3LYP) =  -1090.23802638     A.U. after   12 cycles
 SCF Done:  E(UB3LYP) =  -1090.23816534     A.U. after   11 cycles
 SCF Done:  E(UB3LYP) =  -1090.23818269     A.U. after   12 cycles
 SCF Done:  E(UB3LYP) =  -1090.23820688     A.U. after   12 cycles
 SCF Done:  E(UB3LYP) =  -1090.23820556     A.U. after   11 cycles
 SCF Done:  E(UB3LYP) =  -1090.23821633     A.U. after   11 cycles
 SCF Done:  E(UB3LYP) =  -1090.23821949     A.U. after   11 cycles
 SCF Done:  E(UB3LYP) =  -1090.23821969     A.U. after   10 cycles
 SCF Done:  E(UB3LYP) =  -1090.23821995     A.U. after   10 cycles
 SCF Done:  E(UB3LYP) =  -1090.23822001     A.U. after    9 cycles
 Optimization completed.
    -- Stationary point found.
 Normal termination of Gaussian 16 at Sat Feb 10 21:51:43 2024.

 ----------------------------------------------------------------------
 #P Geom=AllCheck Guess=TCheck SCRF=Check GenChk UB3LYP/6-311++G(d,p) F
 req
 ----------------------------------------------------------------------

 Structure from the checkpoint file:  "182-an.chk"
 -------
 Reduced
 -------
 Charge = -2 Multiplicity = 1

                          Input orientation:
 ---------------------------------------------------------------------
 Center     Atomic      Atomic             Coordinates (Angstroms)
 Number     Number       Type             X           Y           Z
 ---------------------------------------------------------------------
      1          6           0        6.584333    0.602819    0.912150
      2          6           0        5.130614    0.463043    0.525635
      3          6           0        4.475163    1.450691   -0.226842
      4          6           0        3.151110    1.312280   -0.617151
      5          6           0        2.388229    0.170747   -0.267523
      6          7           0        1.064264    0.145417   -0.673395
      7          6           0        0.100671   -0.863790   -0.507433
      8          6           0        0.423235   -2.201079   -0.574573
      9          6           0       -0.567594   -3.194684   -0.392055
     10          6           0       -1.876824   -2.857613   -0.148072
     11          8           0       -2.785551   -3.882852    0.066773
     12          6           0       -2.315041   -1.485825   -0.112002
     13          6           0       -3.702497   -1.138090    0.108126
     14          8           0       -4.652245   -1.998465    0.270928
     15          6           0       -4.004285    0.278140    0.133473
     16          6           0       -5.337847    0.705259    0.378752
     17          6           0       -5.690434    2.036499    0.408215
     18          6           0       -4.698305    3.028727    0.183913
     19          6           0       -3.398698    2.651538   -0.063258
     20          6           0       -3.001746    1.281848   -0.095600
     21          6           0       -1.637417    0.940798   -0.358615
     22          8           0       -0.770909    1.907329   -0.631705
     23          6           0       -1.287794   -0.448751   -0.321357
     24          6           0        3.043084   -0.816306    0.497306
     25          6           0        4.377428   -0.659326    0.877862
     26          1           0        7.250115    0.418102    0.060913
     27          1           0        6.807460    1.609021    1.279735
     28          1           0        6.854221   -0.108021    1.697022
     29          1           0        5.015423    2.347520   -0.517649
     30          1           0        2.677857    2.094891   -1.201919
     31          1           0        0.572867    1.067432   -0.753362
     32          1           0        1.438417   -2.508639   -0.784913
     33          1           0       -0.283642   -4.243590   -0.430283
     34          1           0       -2.288730   -4.708776    0.016555
     35          1           0       -6.083341   -0.063707    0.544680
     36          1           0       -6.718079    2.328513    0.601454
     37          1           0       -4.967590    4.080481    0.207530
     38          1           0       -2.631803    3.396557   -0.238457
     39          1           0        2.506843   -1.696542    0.821914
     40          1           0        4.839036   -1.441599    1.474498
 ---------------------------------------------------------------------

 SCF Done:  E(UB3LYP) =  -1090.23822001     A.U. after    1 cycles

 Alpha  occ. eigenvalues --  -19.12851 -19.02581 -19.01600 -14.29384 -10.20777
 Alpha  occ. eigenvalues --  -10.20376 -10.18684 -10.18116 -10.17628 -10.16501
 Alpha  occ. eigenvalues --  -10.16359 -10.16328 -10.15933 -10.15889 -10.15641
 Alpha  occ. eigenvalues --  -10.15128 -10.14945 -10.14935 -10.14734 -10.14706
 Alpha  occ. eigenvalues --  -10.14674 -10.14206 -10.14093 -10.13980 -10.13758
 Alpha  occ. eigenvalues --   -1.03659  -0.94394  -0.93310  -0.91188  -0.84187
 Alpha  occ. eigenvalues --   -0.82760  -0.81150  -0.75823  -0.75390  -0.73707
 Alpha  occ. eigenvalues --   -0.72404  -0.71164  -0.70847  -0.66602  -0.64167
 Alpha  occ. eigenvalues --   -0.61512  -0.60570  -0.59709  -0.57980  -0.55924
 Alpha  occ. eigenvalues --   -0.53912  -0.52994  -0.51919  -0.48980  -0.48547
 Alpha  occ. eigenvalues --   -0.45762  -0.45654  -0.44621  -0.43913  -0.43153
 Alpha  occ. eigenvalues --   -0.42280  -0.41612  -0.41242  -0.41014  -0.40280
 Alpha  occ. eigenvalues --   -0.39827  -0.39804  -0.38111  -0.37824  -0.37201
 Alpha  occ. eigenvalues --   -0.36687  -0.36065  -0.36000  -0.35348  -0.34489
 Alpha  occ. eigenvalues --   -0.34095  -0.33628  -0.32806  -0.31875  -0.31676
 Alpha  occ. eigenvalues --   -0.30798  -0.30406  -0.28134  -0.24842  -0.23114
 Alpha  occ. eigenvalues --   -0.22577  -0.22392  -0.21836  -0.20450  -0.19092
 Alpha  occ. eigenvalues --   -0.16920  -0.10800
 Alpha virt. eigenvalues --   -0.02431  -0.00805  -0.00278  -0.00031   0.00312
 Alpha virt. eigenvalues --    0.00452   0.00611   0.01422   0.01883   0.02401
 Alpha virt. eigenvalues --    0.02476   0.02899   0.03893   0.04196   0.04409

  Beta  occ. eigenvalues --  -19.12851 -19.02581 -19.01600 -14.29384 -10.20777
  Beta  occ. eigenvalues --  -10.20376 -10.18684 -10.18116 -10.17628 -10.16501
  Beta  occ. eigenvalues --  -10.16359 -10.16328 -10.15933 -10.15889 -10.15641
  Beta  occ. eigenvalues --  -10.15128 -10.14945 -10.14935 -10.14734 -10.14706
  Beta  occ. eigenvalues --  -10.14674 -10.14206 -10.14093 -10.13980 -10.13758
  Beta  occ. eigenvalues --   -1.03659  -0.94394  -0.93310  -0.91188  -0.84187
  Beta  occ. eigenvalues --   -0.82760  -0.81150  -0.75823  -0.75390  -0.73707
  Beta  occ. eigenvalues --   -0.72404  -0.71164  -0.70847  -0.66602  -0.64167
  Beta  occ. eigenvalues --   -0.61512  -0.60570  -0.59709  -0.57980  -0.55924
  Beta  occ. eigenvalues --   -0.53912  -0.52994  -0.51919  -0.48980  -0.48547
  Beta  occ. eigenvalues --   -0.45762  -0.45654  -0.44621  -0.43913  -0.43153
  Beta  occ. eigenvalues --   -0.42280  -0.41612  -0.41242  -0.41014  -0.40280
  Beta  occ. eigenvalues --   -0.39827  -0.39804  -0.38111  -0.37824  -0.37201
  Beta  occ. eigenvalues --   -0.36687  -0.36065  -0.36000  -0.35348  -0.34489
  Beta  occ. eigenvalues --   -0.34095  -0.33628  -0.32806  -0.31875  -0.31676
  Beta  occ. eigenvalues --   -0.30798  -0.30406  -0.28134  -0.24842  -0.23114
  Beta  occ. eigenvalues --   -0.22577  -0.22392  -0.21836  -0.20450  -0.19092
  Beta  occ. eigenvalues --   -0.16920  -0.10800
  Beta virt. eigenvalues --   -0.02431  -0.00805  -0.00278  -0.00031   0.00312
  Beta virt. eigenvalues --    0.00452   0.00611   0.01422   0.01883   0.02401
  Beta virt. eigenvalues --    0.02476   0.02899   0.03893   0.04196   0.04409

 Mulliken charges and spin densities:
               1          2
     1  C   -0.576167  -0.000000
     2  C    0.518636   0.000000
     3  C   -0.196839   0.000000
     4  C   -0.601261  -0.000000
     5  C   -0.232991  -0.000000
     6  N   -0.011919  -0.000000
     7  C    0.112942   0.000000
     8  C   -0.267499  -0.000000
     9  C   -0.391745   0.000000
    10  C   -0.381993  -0.000000
    11  O   -0.257925   0.000000
    12  C    0.439406  -0.000000
    13  C   -0.297915   0.000000
    14  O   -0.642455  -0.000000
    15  C    0.071692   0.000000
    16  C   -0.001299  -0.000000
    17  C   -0.559107  -0.000000
    18  C   -0.550294   0.000000
    19  C   -0.088223  -0.000000
    20  C    0.078941  -0.000000
    21  C   -0.226823   0.000000
    22  O   -0.608736   0.000000
    23  C    0.332605   0.000000
    24  C    0.198417   0.000000
    25  C   -0.677964  -0.000000
    26  H    0.162641  -0.000000
    27  H    0.143915  -0.000000
    28  H    0.150516  -0.000000
    29  H    0.178964   0.000000
    30  H    0.148154  -0.000000
    31  H    0.497963   0.000000
    32  H    0.169664  -0.000000
    33  H    0.142895   0.000000
    34  H    0.280013  -0.000000
    35  H    0.146352  -0.000000
    36  H    0.157158  -0.000000
    37  H    0.160727   0.000000
    38  H    0.140214  -0.000000
    39  H    0.174450  -0.000000
    40  H    0.164890  -0.000000
 Sum of Mulliken charges =  -2.00000   0.00000

 Dipole moment (field-independent basis, Debye):
    X=             23.0524    Y=              0.9379    Z=              1.3129  Tot=             23.1088
 Quadrupole moment (field-independent basis, Debye-Ang):
   XX=           -265.4338   YY=           -177.1205   ZZ=           -162.6942
   XY=            -24.5444   XZ=              4.5791   YZ=              2.2335

  Exact polarizability: 738.968 -41.592 578.861 -20.326  -9.325 247.742
 Approx polarizability: 762.602 -37.261 679.153 -30.051 -19.290 283.567

                      1                      2                      3
                      A                      A                      A
 Frequencies --     19.0903                35.5322                46.2180
 Red. masses --      5.4090                 1.4173                 5.1552
 Frc consts  --      0.0012                 0.0011                 0.0065
 IR Inten    --      1.9623                 1.1115                 4.9052

                      4                      5                      6
                      A                      A                      A
 Frequencies --     47.9699                61.3223               102.7946
 Red. masses --      1.9608                 6.3175                 5.3053
 Frc consts  --      0.0027                 0.0140                 0.0330
 IR Inten    --      1.3110                 6.5359                12.5059

                      7                      8                      9
                      A                      A                      A
 Frequencies --    122.4170               136.9012               144.0658
 Red. masses --      4.3554                 5.1478                 5.5494
 Frc consts  --      0.0385                 0.0568                 0.0679
 IR Inten    --      6.4984                 1.6773                 7.8245

                     10                     11                     12
                      A                      A                      A
 Frequencies --    177.3951               201.1192               230.0409
 Red. masses --      7.6518                 5.5650                 5.7263
 Frc consts  --      0.1419                 0.1326                 0.1785
 IR Inten    --      1.0147                10.8741                 9.8687

                     13                     14                     15
                      A                      A                      A
 Frequencies --    258.8455               264.9502               313.6152
 Red. masses --      5.2741                 4.5096                 4.2542
 Frc consts  --      0.2082                 0.1865                 0.2465
 IR Inten    --     33.6473                18.2793                 0.5344

                     16                     17                     18
                      A                      A                      A
 Frequencies --    318.6629               348.6456               354.3342
 Red. masses --      5.7295                 2.4562                 3.3815
 Frc consts  --      0.3428                 0.1759                 0.2501
 IR Inten    --      2.4589                42.3118                 9.7203

                     19                     20                     21
                      A                      A                      A
 Frequencies --    374.4095               390.5485               394.5259
 Red. masses --      4.6784                 2.8503                 4.5098
 Frc consts  --      0.3864                 0.2562                 0.4136
 IR Inten    --      7.3936                51.5350                 9.1043

                     22                     23                     24
                      A                      A                      A
 Frequencies --    406.4759               424.3987               427.1228
 Red. masses --      5.9716                 3.1946                 9.8321
 Frc consts  --      0.5813                 0.3390                 1.0568
 IR Inten    --     23.6497                 6.8493                26.2790

                     25                     26                     27
                      A                      A                      A
 Frequencies --    445.9444               473.4359               496.8502
 Red. masses --      3.2391                 6.1845                 4.6785
 Frc consts  --      0.3795                 0.8167                 0.6805
 IR Inten    --     10.1994                29.1366                 3.9523

                     28                     29                     30
                      A                      A                      A
 Frequencies --    501.6606               511.7721               515.4245
 Red. masses --      8.6663                 2.9754                 4.0526
 Frc consts  --      1.2850                 0.4591                 0.6343
 IR Inten    --      5.2032                40.7461                20.1365

                     31                     32                     33
                      A                      A                      A
 Frequencies --    566.8960               596.7833               620.7251
 Red. masses --      5.9759                 3.7813                 4.1109
 Frc consts  --      1.1315                 0.7935                 0.9332
 IR Inten    --     46.2796                97.4221                37.5131

                     34                     35                     36
                      A                      A                      A
 Frequencies --    634.5541               651.2459               661.6379
 Red. masses --      5.2246                 6.8688                 6.3199
 Frc consts  --      1.2395                 1.7164                 1.6300
 IR Inten    --     24.9482                 6.8197                16.6573

                     37                     38                     39
                      A                      A                      A
 Frequencies --    713.4096               715.3418               717.0567
 Red. masses --      5.2916                 2.3393                 3.2929
 Frc consts  --      1.5868                 0.7053                 0.9975
 IR Inten    --     22.9890                19.0817                15.5969

                     40                     41                     42
                      A                      A                      A
 Frequencies --    733.4323               757.7561               769.4844
 Red. masses --      4.6118                 3.2681                 1.7605
 Frc consts  --      1.4616                 1.1056                 0.6142
 IR Inten    --      2.4669                55.3979               155.1241

                     43                     44                     45
                      A                      A                      A
 Frequencies --    780.2425               784.6851               808.3083
 Red. masses --      4.8032                 2.5314                 3.7988
 Frc consts  --      1.7228                 0.9184                 1.4623
 IR Inten    --     52.1982                12.1237                 1.6900

                     46                     47                     48
                      A                      A                      A
 Frequencies --    822.6437               824.6768               831.3594
 Red. masses --      1.5854                 1.4124                 4.0525
 Frc consts  --      0.6322                 0.5660                 1.6503
 IR Inten    --     60.5698                24.0814                36.6041

                     49                     50                     51
                      A                      A                      A
 Frequencies --    857.3348               859.8976               869.7298
 Red. masses --      1.7134                 7.1524                 1.3981
 Frc consts  --      0.7420                 3.1160                 0.6231
 IR Inten    --      2.4807               156.7623                 4.6413

                     52                     53                     54
                      A                      A                      A
 Frequencies --    906.3387               944.0989               947.6370
 Red. masses --      6.5223                 1.7363                 1.6874
 Frc consts  --      3.1567                 0.9118                 0.8928
 IR Inten    --    172.4699               114.4028                67.0212

                     55                     56                     57
                      A                      A                      A
 Frequencies --    960.4036               971.1913               977.6113
 Red. masses --      1.8039                 1.3351                 1.3602
 Frc consts  --      0.9803                 0.7419                 0.7659
 IR Inten    --    262.2542                 7.0910                 3.0175

                     58                     59                     60
                      A                      A                      A
 Frequencies --    983.2902              1002.7451              1017.4768
 Red. masses --      1.2519                 1.4146                 2.2829
 Frc consts  --      0.7132                 0.8380                 1.3925
 IR Inten    --      0.0640                 4.5323               101.4558

                     61                     62                     63
                      A                      A                      A
 Frequencies --   1021.6878              1053.1083              1056.7696
 Red. masses --      2.7338                 3.0191                 1.4824
 Frc consts  --      1.6813                 1.9728                 0.9754
 IR Inten    --      9.9088               256.2982                28.7815

                     64                     65                     66
                      A                      A                      A
 Frequencies --   1095.2838              1118.0581              1138.4191
 Red. masses --      2.8034                 1.7339                 1.3119
 Frc consts  --      1.9815                 1.2771                 1.0017
 IR Inten    --    254.3309               636.3917                51.7051

                     67                     68                     69
                      A                      A                      A
 Frequencies --   1159.8585              1167.3771              1190.9603
 Red. masses --      1.8112                 1.4938                 3.0787
 Frc consts  --      1.4356                 1.1994                 2.5728
 IR Inten    --    162.8233                78.9922               419.7520

                     70                     71                     72
                      A                      A                      A
 Frequencies --   1199.5885              1210.7073              1223.1332
 Red. masses --      1.1612                 2.0850                 2.5556
 Frc consts  --      0.9845                 1.8006                 2.2527
 IR Inten    --     21.4212               280.6258                63.3294

                     73                     74                     75
                      A                      A                      A
 Frequencies --   1229.2020              1246.3660              1253.4684
 Red. masses --      2.9155                 2.3362                 2.7813
 Frc consts  --      2.5954                 2.1383                 2.5747
 IR Inten    --      9.3289                50.4133                94.1135

                     76                     77                     78
                      A                      A                      A
 Frequencies --   1269.9214              1284.6419              1324.3896
 Red. masses --      4.5152                 3.4546                 2.2148
 Frc consts  --      4.2903                 3.3591                 2.2888
 IR Inten    --     93.3703                43.4912               953.4155

                     79                     80                     81
                      A                      A                      A
 Frequencies --   1342.1571              1349.6409              1351.9387
 Red. masses --      3.1505                 2.8558                 4.7671
 Frc consts  --      3.3438                 3.0649                 5.1335
 IR Inten    --    640.4957              1097.6490               409.1007

                     82                     83                     84
                      A                      A                      A
 Frequencies --   1364.7466              1408.2337              1412.7202
 Red. masses --      2.6038                 1.2520                 2.9335
 Frc consts  --      2.8573                 1.4629                 3.4495
 IR Inten    --   1160.1102                 4.4179               218.6490

                     85                     86                     87
                      A                      A                      A
 Frequencies --   1434.5387              1443.0454              1473.2409
 Red. masses --      4.3938                 2.9795                 3.0184
 Frc consts  --      5.3274                 3.6556                 3.8599
 IR Inten    --     94.3369                31.9424               286.0196

                     88                     89                     90
                      A                      A                      A
 Frequencies --   1475.3578              1478.1142              1486.7004
 Red. masses --      1.0500                 2.4680                 1.1791
 Frc consts  --      1.3466                 3.1770                 1.5355
 IR Inten    --     13.5881               241.6639                 8.9875

                     91                     92                     93
                      A                      A                      A
 Frequencies --   1494.4078              1532.7647              1545.3139
 Red. masses --      4.2743                 2.6122                 5.7722
 Frc consts  --      5.6242                 3.6158                 8.1213
 IR Inten    --     47.7787               661.5212               107.0494

                     94                     95                     96
                      A                      A                      A
 Frequencies --   1568.7668              1589.4100              1598.8604
 Red. masses --      3.1216                 7.1081                 3.9531
 Frc consts  --      4.5263                10.5797                 5.9539
 IR Inten    --    921.6384                73.5658               377.2486

                     97                     98                     99
                      A                      A                      A
 Frequencies --   1611.5774              1643.7669              1649.5598
 Red. masses --      5.4109                 4.3948                 2.0918
 Frc consts  --      8.2799                 6.9963                 3.3535
 IR Inten    --      6.4668               252.2902                94.5508

                    100                    101                    102
                      A                      A                      A
 Frequencies --   2892.6899              3006.8693              3054.2386
 Red. masses --      1.0892                 1.0417                 1.0948
 Frc consts  --      5.3699                 5.5491                 6.0172
 IR Inten    --   1886.3769               117.3687                41.9030

                    103                    104                    105
                      A                      A                      A
 Frequencies --   3088.0504              3129.8478              3140.4558
 Red. masses --      1.1006                 1.0889                 1.0851
 Frc consts  --      6.1839                 6.2847                 6.3052
 IR Inten    --     37.1061                88.8959                28.1846

                    106                    107                    108
                      A                      A                      A
 Frequencies --   3141.2545              3142.5797              3156.6711
 Red. masses --      1.0874                 1.0889                 1.0903
 Frc consts  --      6.3217                 6.3358                 6.4010
 IR Inten    --     31.8265                61.1067                43.7948

                    109                    110                    111
                      A                      A                      A
 Frequencies --   3163.1414              3178.8524              3185.9311
 Red. masses --      1.0934                 1.0916                 1.0917
 Frc consts  --      6.4456                 6.4991                 6.5286
 IR Inten    --     31.6474                48.5646                56.9827

                    112                    113                    114
                      A                      A                      A
 Frequencies --   3192.7128              3212.0209              3787.0321
 Red. masses --      1.0912                 1.0897                 1.0655
 Frc consts  --      6.5534                 6.6236                 9.0035
 IR Inten    --     35.9375                 4.6342                51.7990

 - Thermochemistry -
 -------------------
 Temperature   298.150 Kelvin.  Pressure   1.00000 Atm.
 Atom     1 has atomic number  6 and mass  12.00000

 Molecular mass:   329.10519 amu.
 Principal axes and moments of inertia in atomic units:
                           1         2         3
     Eigenvalues --  4318.39171********************
           X            0.99982  -0.01152  -0.01514
           Y            0.01147   0.99993  -0.00290
           Z            0.01517   0.00273   0.99988
 This molecule is an asymmetric top.
 Rotational symmetry number  1.
 Warning -- assumption of classical behavior for rotation
           may cause significant error
 Rotational temperatures (Kelvin)      0.02006     0.00584     0.00465
 Rotational constants (GHZ):           0.41792     0.12165     0.09684
 Zero-point vibrational energy     794348.1 (Joules/Mol)
                                  189.85376 (Kcal/Mol)
 Warning -- explicit consideration of  33 degrees of freedom as
           vibrations may cause significant error
 Vibrational temperatures:     27.47    51.12    66.50    69.02    88.23
          (Kelvin)            147.90   176.13   196.97   207.28   255.23
                              289.37   330.98   372.42   381.20   451.22
                              458.48   501.62   509.81   538.69   561.91
                              567.63   584.83   610.62   614.53   641.61
                              681.17   714.86   721.78   736.33   741.58
                              815.64   858.64   893.08   912.98   937.00
                              951.95  1026.44  1029.22  1031.68  1055.25
                             1090.24  1107.12  1122.59  1128.99  1162.98
                             1183.60  1186.53  1196.14  1233.51  1237.20
                             1251.35  1304.02  1358.35  1363.44  1381.81
                             1397.33  1406.56  1414.74  1442.73  1463.92
                             1469.98  1515.19  1520.46  1575.87  1608.64
                             1637.93  1668.78  1679.60  1713.53  1725.94
                             1741.94  1759.82  1768.55  1793.24  1803.46
                             1827.13  1848.31  1905.50  1931.06  1941.83
                             1945.14  1963.57  2026.13  2032.59  2063.98
                             2076.22  2119.67  2122.71  2126.68  2139.03
                             2150.12  2205.31  2223.36  2257.11  2286.81
                             2300.40  2318.70  2365.01  2373.35  4161.94
                             4326.21  4394.37  4443.02  4503.15  4518.42
                             4519.56  4521.47  4541.75  4551.05  4573.66
                             4583.84  4593.60  4621.38  5448.69

 Zero-point correction=                           0.302551 (Hartree/Particle)
 Thermal correction to Energy=                    0.322725
 Thermal correction to Enthalpy=                  0.323669
 Thermal correction to Gibbs Free Energy=         0.252569
 Sum of electronic and zero-point Energies=          -1089.935669
 Sum of electronic and thermal Energies=             -1089.915495
 Sum of electronic and thermal Enthalpies=           -1089.914551
 Sum of electronic and thermal Free Energies=        -1089.985651

                     E (Thermal)             CV                S
                      KCal/Mol        Cal/Mol-Kelvin    Cal/Mol-Kelvin
 Total                  202.513             80.889            149.642
 Electronic               0.000              0.000              0.000
 Translational            0.889              2.981             43.269
 Rotational               0.889              2.981             35.433
 Vibrational            200.736             74.927             70.941
 Vibration     1          0.593              1.986              6.727
 Vibration     2          0.594              1.982              5.494
 Vibration     3          0.595              1.979              4.973
 Vibration     4          0.595              1.978              4.899
 Vibration     5          0.597              1.973              4.414
 Vibration     6          0.605              1.947              3.401
 Vibration     7          0.610              1.930              3.062
 Vibration     8          0.614              1.916              2.847
 Vibration     9          0.616              1.909              2.749
 Vibration    10          0.628              1.870              2.356
 Vibration    11          0.638              1.838              2.123
 Vibration    12          0.652              1.795              1.879
 Vibration    13          0.668              1.748              1.670
 Vibration    14          0.671              1.737              1.629
 Vibration    15          0.701              1.648              1.343
 Vibration    16          0.705              1.638              1.317
 Vibration    17          0.726              1.578              1.172
 Vibration    18          0.730              1.566              1.147
 Vibration    19          0.746              1.525              1.062
 Vibration    20          0.758              1.490              0.998
 Vibration    21          0.761              1.482              0.983
 Vibration    22          0.771              1.456              0.939
 Vibration    23          0.786              1.417              0.877
 Vibration    24          0.789              1.411              0.868
 Vibration    25          0.805              1.370              0.808
 Vibration    26          0.830              1.309              0.728
 Vibration    27          0.852              1.257              0.666
 Vibration    28          0.857              1.246              0.654
 Vibration    29          0.867              1.224              0.629
 Vibration    30          0.870              1.216              0.621
 Vibration    31          0.923              1.103              0.510
 Vibration    32          0.955              1.039              0.455
 Vibration    33          0.981              0.988              0.415

 Optimization completed.
    -- Stationary point found.
 Normal termination of Gaussian 16 at Sat Feb 10 23:41:37 2024.
