 Gaussian 16, Revision A.03,
 Gaussian 16:  ES64L-G16RevA.03 25-Dec-2016

 ----------------------------------------------------------------------
 #P UB3LYP/6-311++G(d,p) nosym opt freq SCRF=(PCM,Solvent=n,n-DiMethylF
 ormamide)
 ----------------------------------------------------------------------

 -------
 Reduced
 -------
 Symbolic Z-matrix:
 Charge = -2 Multiplicity = 1

 SCF Done:  E(UB3LYP) =  -2994.70756150     A.U. after   17 cycles
 SCF Done:  E(UB3LYP) =  -2994.70835725     A.U. after   12 cycles
 SCF Done:  E(UB3LYP) =  -2994.70851517     A.U. after   12 cycles
 SCF Done:  E(UB3LYP) =  -2994.70851778     A.U. after   11 cycles
 SCF Done:  E(UB3LYP) =  -2994.70852743     A.U. after   10 cycles
 SCF Done:  E(UB3LYP) =  -2994.70852805     A.U. after   10 cycles
 SCF Done:  E(UB3LYP) =  -2994.70852812     A.U. after    8 cycles
 SCF Done:  E(UB3LYP) =  -2994.70852814     A.U. after    8 cycles
 Optimization completed.
    -- Stationary point found.
 Normal termination of Gaussian 16 at Sat Feb 10 10:15:50 2024.

 ----------------------------------------------------------------------
 #P Geom=AllCheck Guess=TCheck SCRF=Check GenChk UB3LYP/6-311++G(d,p) F
 req
 ----------------------------------------------------------------------

 Structure from the checkpoint file:  "005-an.chk"
 -------
 Reduced
 -------
 Charge = -2 Multiplicity = 1

                          Input orientation:
 ---------------------------------------------------------------------
 Center     Atomic      Atomic             Coordinates (Angstroms)
 Number     Number       Type             X           Y           Z
 ---------------------------------------------------------------------
      1          6           0        2.243198   -0.064999    0.082415
      2          6           0        0.735389   -0.003955    0.019949
      3          6           0        0.084539    1.229677    0.078838
      4          6           0       -1.332407    1.394955    0.038221
      5          8           0       -1.917694    2.570055    0.090591
      6          6           0       -2.051834    0.173701   -0.061098
      7          6           0       -1.383154   -1.054003   -0.119835
      8         35           0       -2.507198   -2.663991   -0.244870
      9          6           0        0.020952   -1.250289   -0.093782
     10          8           0        0.626416   -2.403779   -0.159980
     11          1           0        2.589636   -0.645381    0.945996
     12          1           0        2.672976    0.938046    0.154240
     13          1           0        2.666635   -0.556802   -0.800757
     14          1           0        0.688640    2.132189    0.163239
     15          1           0       -3.136094    0.204575   -0.093166
 ---------------------------------------------------------------------

 SCF Done:  E(UB3LYP) =  -2994.70852814     A.U. after    1 cycles

 Alpha  occ. eigenvalues -- -482.80039 -62.45322 -56.27312 -56.26998 -56.26979
 Alpha  occ. eigenvalues --  -19.01576 -19.01325 -10.17685 -10.17443 -10.17072
 Alpha  occ. eigenvalues --  -10.14229 -10.13813 -10.12694 -10.12189  -8.66275
 Alpha  occ. eigenvalues --   -6.49267  -6.48219  -6.48164  -2.60387  -2.60094
 Alpha  occ. eigenvalues --   -2.60054  -2.59220  -2.59220  -0.92677  -0.91749
 Alpha  occ. eigenvalues --   -0.79972  -0.76534  -0.71461  -0.65733  -0.63988
 Alpha  occ. eigenvalues --   -0.54220  -0.52266  -0.44460  -0.42984  -0.39701
 Alpha  occ. eigenvalues --   -0.39160  -0.37236  -0.35907  -0.35416  -0.35226
 Alpha  occ. eigenvalues --   -0.32338  -0.31551  -0.31177  -0.28276  -0.26743
 Alpha  occ. eigenvalues --   -0.22192  -0.20750  -0.19655  -0.19394  -0.12216
 Alpha virt. eigenvalues --   -0.00095   0.00827   0.01616   0.01724   0.02305
 Alpha virt. eigenvalues --    0.03895   0.04083   0.04557   0.05996   0.06033
 Alpha virt. eigenvalues --    0.06581   0.06976   0.07986   0.08474   0.08851

  Beta  occ. eigenvalues -- -482.80039 -62.45322 -56.27312 -56.26998 -56.26979
  Beta  occ. eigenvalues --  -19.01576 -19.01325 -10.17685 -10.17443 -10.17072
  Beta  occ. eigenvalues --  -10.14229 -10.13813 -10.12694 -10.12189  -8.66275
  Beta  occ. eigenvalues --   -6.49267  -6.48219  -6.48164  -2.60387  -2.60094
  Beta  occ. eigenvalues --   -2.60054  -2.59220  -2.59220  -0.92677  -0.91749
  Beta  occ. eigenvalues --   -0.79972  -0.76534  -0.71461  -0.65733  -0.63988
  Beta  occ. eigenvalues --   -0.54220  -0.52266  -0.44460  -0.42984  -0.39701
  Beta  occ. eigenvalues --   -0.39160  -0.37236  -0.35907  -0.35416  -0.35226
  Beta  occ. eigenvalues --   -0.32338  -0.31551  -0.31177  -0.28276  -0.26743
  Beta  occ. eigenvalues --   -0.22192  -0.20750  -0.19655  -0.19394  -0.12216
  Beta virt. eigenvalues --   -0.00095   0.00827   0.01616   0.01724   0.02305
  Beta virt. eigenvalues --    0.03895   0.04083   0.04557   0.05996   0.06033
  Beta virt. eigenvalues --    0.06581   0.06976   0.07986   0.08474   0.08851

 Mulliken charges and spin densities:
               1          2
     1  C   -0.435382  -0.000000
     2  C    1.387929   0.000000
     3  C   -0.656080  -0.000000
     4  C   -0.493156   0.000000
     5  O   -0.749589  -0.000000
     6  C   -0.026917  -0.000000
     7  C    0.792234   0.000000
     8  Br  -0.281073  -0.000000
     9  C   -1.564655  -0.000000
    10  O   -0.674648   0.000000
    11  H    0.141893   0.000000
    12  H    0.133207  -0.000000
    13  H    0.141384   0.000000
    14  H    0.108890   0.000000
    15  H    0.175962   0.000000
 Sum of Mulliken charges =  -2.00000  -0.00000

 Dipole moment (field-independent basis, Debye):
    X=              9.0884    Y=              1.8811    Z=              0.5561  Tot=              9.2977
 Quadrupole moment (field-independent basis, Debye-Ang):
   XX=           -104.5451   YY=           -138.2550   ZZ=            -80.7278
   XY=             17.6645   XZ=              0.3533   YZ=             -3.2170

  Exact polarizability: 220.044   4.280 242.329   3.761   8.363 113.801
 Approx polarizability: 236.031  -1.988 262.777   3.511   9.034 121.975

                      1                      2                      3
                      A                      A                      A
 Frequencies --    105.7696               157.1613               168.4139
 Red. masses --      5.3861                 4.6914                10.4285
 Frc consts  --      0.0355                 0.0683                 0.1743
 IR Inten    --     21.6346                 5.2620                 9.6465

                      4                      5                      6
                      A                      A                      A
 Frequencies --    181.8100               224.4973               239.8612
 Red. masses --      1.2824                 2.8350                17.5731
 Frc consts  --      0.0250                 0.0842                 0.5957
 IR Inten    --      3.3961                 0.1894                 0.6418

                      7                      8                      9
                      A                      A                      A
 Frequencies --    304.9756               340.5367               387.9005
 Red. masses --      3.3301                 7.9795                 9.0677
 Frc consts  --      0.1825                 0.5452                 0.8039
 IR Inten    --      6.2680                 0.0400                18.1713

                     10                     11                     12
                      A                      A                      A
 Frequencies --    472.0057               487.2002               537.5941
 Red. masses --      9.4112                 4.2830                 5.7530
 Frc consts  --      1.2353                 0.5990                 0.9796
 IR Inten    --      2.2264                 0.0154                11.5559

                     13                     14                     15
                      A                      A                      A
 Frequencies --    608.4651               621.5790               726.9092
 Red. masses --      2.0929                 4.6231                 6.1006
 Frc consts  --      0.4565                 1.0524                 1.8993
 IR Inten    --     10.5887                 3.5283                11.8634

                     16                     17                     18
                      A                      A                      A
 Frequencies --    759.8150               788.4653               812.8186
 Red. masses --      8.8813                 1.5883                 6.0912
 Frc consts  --      3.0209                 0.5818                 2.3710
 IR Inten    --    304.2075                33.4137                97.1737

                     19                     20                     21
                      A                      A                      A
 Frequencies --    845.4538               971.9536              1004.6402
 Red. masses --      1.5336                 2.7792                 1.8957
 Frc consts  --      0.6459                 1.5469                 1.1273
 IR Inten    --     48.3796                 6.0739               105.2865

                     22                     23                     24
                      A                      A                      A
 Frequencies --   1044.7379              1089.9565              1179.4408
 Red. masses --      1.4845                 2.5933                 3.9682
 Frc consts  --      0.9547                 1.8152                 3.2523
 IR Inten    --      1.2170               137.5828               284.0615

                     25                     26                     27
                      A                      A                      A
 Frequencies --   1221.0735              1270.5394              1328.6154
 Red. masses --      1.6805                 3.0313                 6.9786
 Frc consts  --      1.4763                 2.8831                 7.2580
 IR Inten    --    102.1895               646.4813                 9.2395

                     28                     29                     30
                      A                      A                      A
 Frequencies --   1392.4080              1400.0519              1432.6401
 Red. masses --      1.3372                 4.0374                 3.6165
 Frc consts  --      1.5275                 4.6628                 4.3734
 IR Inten    --    119.9207               302.6436              1223.2974

                     31                     32                     33
                      A                      A                      A
 Frequencies --   1461.0425              1466.2922              1485.1190
 Red. masses --      1.0503                 5.0977                 1.1545
 Frc consts  --      1.3210                 6.4575                 1.5003
 IR Inten    --      6.4705                92.7326                84.3526

                     34                     35                     36
                      A                      A                      A
 Frequencies --   1605.0670              2999.7160              3035.1800
 Red. masses --      6.8024                 1.0363                 1.0986
 Frc consts  --     10.3252                 5.4942                 5.9629
 IR Inten    --     50.9040               137.1290                70.3057

                     37                     38                     39
                      A                      A                      A
 Frequencies --   3074.7268              3106.3098              3156.8236
 Red. masses --      1.1002                 1.0878                 1.0889
 Frc consts  --      6.1282                 6.1844                 6.3933
 IR Inten    --     44.1213               115.8156                36.9687

 - Thermochemistry -
 -------------------
 Temperature   298.150 Kelvin.  Pressure   1.00000 Atm.
 Atom     1 has atomic number  6 and mass  12.00000

 Molecular mass:   199.94729 amu.
 Principal axes and moments of inertia in atomic units:
                           1         2         3
     Eigenvalues --  1303.258222720.725194012.79731
           X            0.54857   0.83552  -0.03126
           Y            0.83323  -0.54940  -0.06237
           Z            0.06929  -0.00817   0.99756
 This molecule is an asymmetric top.
 Rotational symmetry number  1.
 Warning -- assumption of classical behavior for rotation
           may cause significant error
 Rotational temperatures (Kelvin)      0.06646     0.03183     0.02158
 Rotational constants (GHZ):           1.38479     0.66333     0.44975
 Zero-point vibrational energy     260173.2 (Joules/Mol)
                                   62.18289 (Kcal/Mol)
 Warning -- explicit consideration of  13 degrees of freedom as
           vibrations may cause significant error
 Vibrational temperatures:    152.18   226.12   242.31   261.58   323.00
          (Kelvin)            345.11   438.79   489.96   558.10   679.11
                              700.97   773.48   875.45   894.31  1045.86
                             1093.20  1134.43  1169.46  1216.42  1398.42
                             1445.45  1503.14  1568.20  1696.95  1756.85
                             1828.02  1911.58  2003.36  2014.36  2061.25
                             2102.11  2109.67  2136.75  2309.33  4315.92
                             4366.95  4423.85  4469.29  4541.97

 Zero-point correction=                           0.099095 (Hartree/Particle)
 Thermal correction to Energy=                    0.108244
 Thermal correction to Enthalpy=                  0.109188
 Thermal correction to Gibbs Free Energy=         0.063876
 Sum of electronic and zero-point Energies=          -2994.609433
 Sum of electronic and thermal Energies=             -2994.600284
 Sum of electronic and thermal Enthalpies=           -2994.599340
 Sum of electronic and thermal Free Energies=        -2994.644652

                     E (Thermal)             CV                S
                      KCal/Mol        Cal/Mol-Kelvin    Cal/Mol-Kelvin
 Total                   67.924             33.738             95.366
 Electronic               0.000              0.000              0.000
 Translational            0.889              2.981             41.783
 Rotational               0.889              2.981             31.032
 Vibrational             66.146             27.776             22.551
 Vibration     1          0.605              1.945              3.345
 Vibration     2          0.621              1.895              2.584
 Vibration     3          0.625              1.881              2.453
 Vibration     4          0.630              1.864              2.310
 Vibration     5          0.649              1.804              1.923
 Vibration     6          0.657              1.779              1.804
 Vibration     7          0.696              1.664              1.389
 Vibration     8          0.720              1.594              1.210
 Vibration     9          0.756              1.496              1.008
 Vibration    10          0.829              1.312              0.732
 Vibration    11          0.843              1.278              0.691
 Vibration    12          0.893              1.167              0.570
 Vibration    13          0.967              1.014              0.435

 Optimization completed.
    -- Stationary point found.
 Normal termination of Gaussian 16 at Sat Feb 10 10:25:59 2024.
