 Q-Chem 5.4, Q-Chem, Inc., Pleasanton, CA (2021)
 Q-Chem 5.4.0 for Intel X86 EM64T Linux

User input:
--------------------------------------------------------------
$molecule
-2 1
Br                -2.7276340000     -1.8398210000     -0.0960110000
C                 -1.0827860000     -0.7309210000     -0.0381160000
C                 -1.2659540000      0.6496360000     -0.0287100000
C                 -0.1599400000      1.5614770000      0.0120520000
O                 -0.2918800000      2.8506330000      0.0218180000
C                  1.1081060000      0.8921800000      0.0405470000
C                  1.2086620000     -0.4967080000      0.0287250000
Br                 3.0437340000     -1.2503800000      0.0722890000
C                  0.1502610000     -1.4678530000     -0.0111960000
O                  0.2806080000     -2.7389560000     -0.0210580000
H                 -2.2667080000      1.0672290000     -0.0524500000
H                  2.0035300000      1.5034840000      0.0721100000
$end

$rem
BASIS  =  6-311++G(d,p)
GUI  =  2
JOB_TYPE  =  SP
METHOD  =  B3LYP
SCF_CONVERGENCE  = 8
SOLVENT_METHOD = sm12
$end

$smx
solvent dimethylformamide
charges CM5
$end

--------------------------------------------------------------

             Standard Nuclear Orientation (Angstroms)
    I     Atom           X                Y                Z
 ----------------------------------------------------------------
    1      Br     -2.7276340000    -1.8398210000    -0.0960110000
    2      C      -1.0827860000    -0.7309210000    -0.0381160000
    3      C      -1.2659540000     0.6496360000    -0.0287100000
    4      C      -0.1599400000     1.5614770000     0.0120520000
    5      O      -0.2918800000     2.8506330000     0.0218180000
    6      C       1.1081060000     0.8921800000     0.0405470000
    7      C       1.2086620000    -0.4967080000     0.0287250000
    8      Br      3.0437340000    -1.2503800000     0.0722890000
    9      C       0.1502610000    -1.4678530000    -0.0111960000
   10      O       0.2806080000    -2.7389560000    -0.0210580000
   11      H      -2.2667080000     1.0672290000    -0.0524500000
   12      H       2.0035300000     1.5034840000     0.0721100000
 ----------------------------------------------------------------

   16   -5528.6502131066      5.99e-09  Convergence criterion met
 Total energy in the final basis set =    -5528.9253547945

                    Orbital Energies (a.u.)
 --------------------------------------------------------------

 Alpha MOs
 -- Occupied --
********-482.8048 -62.4570 -62.4570 -56.2773 -56.2772 -56.2739 -56.2739
-56.2737 -56.2737 -19.0216 -19.0195 -10.1956 -10.1926 -10.1926 -10.1882
-10.1458 -10.1458  -8.6651  -8.6651  -6.4954  -6.4952  -6.4842  -6.4842
 -6.4837  -6.4836  -2.6065  -2.6062  -2.6033  -2.6032  -2.6028  -2.6028
 -2.5941  -2.5940  -2.5940  -2.5939  -0.9421  -0.9323  -0.8172  -0.7854
 -0.7443  -0.6892  -0.6648  -0.5589  -0.5413  -0.4540  -0.4499  -0.3966
 -0.3843  -0.3797  -0.3633  -0.3404  -0.3282  -0.3228  -0.3020  -0.2734
 -0.2673  -0.2636  -0.2285  -0.2190  -0.1998  -0.1988  -0.1285

          Ground-State Mulliken Net Atomic Charges

     Atom                 Charge (a.u.)
  ----------------------------------------
      1 Br                    0.280853
      2 C                     2.313967
      3 C                    -1.263543
      4 C                    -1.483262
      5 O                    -0.497071
      6 C                    -1.252716
      7 C                     2.307837
      8 Br                    0.280548
      9 C                    -2.438933
     10 O                    -0.257628
     11 H                     0.004750
     12 H                     0.005198
  ----------------------------------------
  Sum of atomic charges =    -2.000000

                    Cartesian Multipole Moments
 -----------------------------------------------------------------
    Charge (ESU x 10^10)
                -9.6064
    Dipole Moment (Debye)
         X      -0.1231      Y       1.2043      Z       0.0101
       Tot       1.2106
    Quadrupole Moments (Debye-Ang)
        XX    -117.2188     XY       3.5214     YY    -151.1482
        XZ      -0.6417     YZ      -0.5138     ZZ     -93.0899

 Total job time:  139.04s(wall), 951.39s(cpu)
        *  Thank you very much for using Q-Chem.  Have a nice day.  *
