 Gaussian 16, Revision A.03,
 Gaussian 16:  ES64L-G16RevA.03 25-Dec-2016

 ----------------------------------------------------------------
 #P UB3LYP/6-311++G(d,p) SCRF=(PCM,Solvent=n,n-DiMethylFormamide)
 ----------------------------------------------------------------

 ------------------
 Quinone PCM in DMF
 ------------------
 Symbolic Z-matrix:
 Charge =  0 Multiplicity = 1

                         Standard orientation:
 ---------------------------------------------------------------------
 Center     Atomic      Atomic             Coordinates (Angstroms)
 Number     Number       Type             X           Y           Z
 ---------------------------------------------------------------------
      1          6           0       -4.454915    0.424153    0.424084
      2          6           0       -5.182377   -0.745742    0.649995
      3          6           0       -4.597116   -1.993427    0.376972
      4          6           0       -3.151516    0.332645   -0.071391
      5          6           0       -2.561617   -0.907249   -0.345853
      6          6           0       -3.304849   -2.069481   -0.114352
      7          6           0       -2.376564    1.565918   -0.311498
      8          6           0       -0.987170    1.434861   -0.832283
      9          6           0       -0.402631    0.245460   -1.113623
     10          6           0       -1.167576   -1.001629   -0.876313
     11          8           0       -2.808413    2.695500   -0.106161
     12          8           0       -0.667843   -2.093771   -1.113500
     13          8           0       -0.356727    2.609774   -1.009331
     14          8           0       -6.450857   -0.780673    1.127632
     15          6           0       -7.106219    0.450026    1.427145
     16          6           0        1.005855    0.138504   -1.625517
     17          6           0        2.039842   -0.040964   -0.492210
     18          6           0        3.471279   -0.158894   -1.028862
     19          6           0        4.547005   -0.423129    0.039021
     20          6           0        4.716781    0.749485    1.023688
     21          6           0        5.899983   -0.761426   -0.615171
     22          6           0        7.003010   -1.030299    0.418017
     23          6           0        7.156416    0.141425    1.396961
     24          6           0        5.817463    0.486187    2.062115
     25          1           0       -4.862226    1.406466    0.618349
     26          1           0       -5.181521   -2.886996    0.560456
     27          1           0       -2.847896   -3.027976   -0.327089
     28          1           0       -0.995273    3.300563   -0.750916
     29          1           0       -8.094934    0.175771    1.789404
     30          1           0       -7.204723    1.073847    0.533356
     31          1           0       -6.572383    1.003508    2.205866
     32          1           0        1.249087    1.038198   -2.196642
     33          1           0        1.065785   -0.720241   -2.298685
     34          1           0        1.788396   -0.941857    0.077804
     35          1           0        1.958304    0.806368    0.195092
     36          1           0        3.731033    0.755433   -1.579671
     37          1           0        3.501873   -0.974909   -1.761939
     38          1           0        4.232192   -1.303781    0.619539
     39          1           0        3.772752    0.957970    1.536106
     40          1           0        4.966761    1.654609    0.452122
     41          1           0        6.202688    0.077694   -1.257174
     42          1           0        5.783524   -1.628737   -1.274682
     43          1           0        7.953029   -1.228533   -0.089564
     44          1           0        6.756026   -1.940170    0.980719
     45          1           0        7.526237    1.020524    0.852733
     46          1           0        7.909287   -0.093572    2.156793
     47          1           0        5.931212    1.357842    2.715392
     48          1           0        5.510997   -0.347218    2.707965
 ---------------------------------------------------------------------

 SCF Done:  E(UB3LYP) =  -1077.80331439     A.U. after   16 cycles

 The electronic state is 1-A.
 Alpha  occ. eigenvalues --  -19.17893 -19.17549 -19.15141 -19.12794 -10.29512
 Alpha  occ. eigenvalues --  -10.27983 -10.26683 -10.26379 -10.22971 -10.21528
 Alpha  occ. eigenvalues --  -10.20468 -10.20439 -10.20170 -10.20096 -10.19819
 Alpha  occ. eigenvalues --  -10.17735 -10.16808 -10.16645 -10.16137 -10.15930
 Alpha  occ. eigenvalues --  -10.15920 -10.15877 -10.15811 -10.15791  -1.10894
 Alpha  occ. eigenvalues --   -1.09111  -1.06835  -1.06133  -0.89368  -0.84538
 Alpha  occ. eigenvalues --   -0.83304  -0.80224  -0.78363  -0.77837  -0.74673
 Alpha  occ. eigenvalues --   -0.73704  -0.72050  -0.70456  -0.67223  -0.65266
 Alpha  occ. eigenvalues --   -0.62957  -0.60991  -0.60896  -0.59731  -0.57696
 Alpha  occ. eigenvalues --   -0.57279  -0.54986  -0.54838  -0.52473  -0.51469
 Alpha  occ. eigenvalues --   -0.51259  -0.48532  -0.47508  -0.47438  -0.47115
 Alpha  occ. eigenvalues --   -0.46805  -0.46086  -0.45299  -0.44669  -0.43861
 Alpha  occ. eigenvalues --   -0.43494  -0.43063  -0.42614  -0.42232  -0.41930
 Alpha  occ. eigenvalues --   -0.41471  -0.40018  -0.39606  -0.38985  -0.38348
 Alpha  occ. eigenvalues --   -0.38186  -0.37503  -0.36651  -0.35526  -0.35212
 Alpha  occ. eigenvalues --   -0.34504  -0.34215  -0.33910  -0.33443  -0.32534
 Alpha  occ. eigenvalues --   -0.31248  -0.30575  -0.29639  -0.29236  -0.28756
 Alpha  occ. eigenvalues --   -0.27856  -0.26722  -0.24662
 Alpha virt. eigenvalues --   -0.12634  -0.05269  -0.02238  -0.01065  -0.00324
 Alpha virt. eigenvalues --    0.00125   0.00454   0.00670   0.01097   0.01775
 Alpha virt. eigenvalues --    0.02184   0.02231   0.02419   0.02899   0.03280

  Beta  occ. eigenvalues --  -19.17893 -19.17549 -19.15141 -19.12794 -10.29512
  Beta  occ. eigenvalues --  -10.27983 -10.26683 -10.26379 -10.22971 -10.21528
  Beta  occ. eigenvalues --  -10.20468 -10.20439 -10.20170 -10.20096 -10.19819
  Beta  occ. eigenvalues --  -10.17735 -10.16808 -10.16645 -10.16137 -10.15930
  Beta  occ. eigenvalues --  -10.15920 -10.15877 -10.15811 -10.15791  -1.10894
  Beta  occ. eigenvalues --   -1.09111  -1.06835  -1.06133  -0.89368  -0.84538
  Beta  occ. eigenvalues --   -0.83304  -0.80224  -0.78363  -0.77837  -0.74673
  Beta  occ. eigenvalues --   -0.73704  -0.72050  -0.70456  -0.67223  -0.65266
  Beta  occ. eigenvalues --   -0.62957  -0.60991  -0.60896  -0.59731  -0.57696
  Beta  occ. eigenvalues --   -0.57279  -0.54986  -0.54838  -0.52473  -0.51469
  Beta  occ. eigenvalues --   -0.51259  -0.48532  -0.47508  -0.47438  -0.47115
  Beta  occ. eigenvalues --   -0.46805  -0.46086  -0.45299  -0.44669  -0.43861
  Beta  occ. eigenvalues --   -0.43494  -0.43063  -0.42614  -0.42232  -0.41930
  Beta  occ. eigenvalues --   -0.41471  -0.40018  -0.39606  -0.38985  -0.38348
  Beta  occ. eigenvalues --   -0.38186  -0.37503  -0.36651  -0.35526  -0.35212
  Beta  occ. eigenvalues --   -0.34504  -0.34215  -0.33910  -0.33443  -0.32534
  Beta  occ. eigenvalues --   -0.31248  -0.30575  -0.29639  -0.29236  -0.28756
  Beta  occ. eigenvalues --   -0.27856  -0.26722  -0.24662
  Beta virt. eigenvalues --   -0.12634  -0.05269  -0.02238  -0.01065  -0.00324
  Beta virt. eigenvalues --    0.00125   0.00454   0.00670   0.01097   0.01775
  Beta virt. eigenvalues --    0.02184   0.02231   0.02419   0.02899   0.03280

 Mulliken charges and spin densities:
               1          2
     1  C    0.993732   0.000000
     2  C   -0.960073  -0.000000
     3  C   -0.427166   0.000000
     4  C    0.890394  -0.000000
     5  C   -0.491468   0.000000
     6  C    0.250601   0.000000
     7  C   -0.632607   0.000000
     8  C   -0.755256   0.000000
     9  C    1.649723  -0.000000
    10  C   -1.095633   0.000000
    11  O   -0.305211  -0.000000
    12  O   -0.279804  -0.000000
    13  O   -0.215500  -0.000000
    14  O   -0.173956   0.000000
    15  C   -0.349779   0.000000
    16  C    0.044277  -0.000000
    17  C   -0.552153   0.000000
    18  C   -0.731964  -0.000000
    19  C    0.960886   0.000000
    20  C   -0.476757   0.000000
    21  C   -0.456926  -0.000000
    22  C   -0.319113   0.000000
    23  C   -0.391060  -0.000000
    24  C   -0.344944  -0.000000
    25  H    0.183502   0.000000
    26  H    0.227959   0.000000
    27  H    0.203620  -0.000000
    28  H    0.310514   0.000000
    29  H    0.200565  -0.000000
    30  H    0.178080   0.000000
    31  H    0.177239   0.000000
    32  H    0.234557  -0.000000
    33  H    0.219597  -0.000000
    34  H    0.180921  -0.000000
    35  H    0.161569  -0.000000
    36  H    0.118019  -0.000000
    37  H    0.137284   0.000000
    38  H    0.147018   0.000000
    39  H    0.138141   0.000000
    40  H    0.158456   0.000000
    41  H    0.152626  -0.000000
    42  H    0.141218  -0.000000
    43  H    0.177374   0.000000
    44  H    0.127755  -0.000000
    45  H    0.120841  -0.000000
    46  H    0.170730   0.000000
    47  H    0.165627  -0.000000
    48  H    0.136545  -0.000000
 Sum of Mulliken charges =  -0.00000  -0.00000

 Dipole moment (field-independent basis, Debye):
    X=             -3.6009    Y=              1.7087    Z=              1.7480  Tot=              4.3522
 Quadrupole moment (field-independent basis, Debye-Ang):
   XX=           -114.6452   YY=           -151.1665   ZZ=           -145.8239
   XY=             -3.1575   XZ=             -6.6591   YZ=             -1.5185

 Normal termination of Gaussian 16 at Thu Jan 25 05:54:01 2024.
