 Gaussian 16, Revision A.03,
 Gaussian 16:  ES64L-G16RevA.03 25-Dec-2016

 --------------------------------------
 #P UB3LYP/6-311++G(d,p) nosym opt freq
 --------------------------------------

 --------
 Oxidized
 --------
 Symbolic Z-matrix:
 Charge =  0 Multiplicity = 1

 SCF Done:  E(UB3LYP) =  -914.644040578     A.U. after   16 cycles
 SCF Done:  E(UB3LYP) =  -914.681831128     A.U. after   14 cycles
 SCF Done:  E(UB3LYP) =  -914.694322210     A.U. after   15 cycles
 SCF Done:  E(UB3LYP) =  -914.706626647     A.U. after   14 cycles
 SCF Done:  E(UB3LYP) =  -914.706836451     A.U. after   13 cycles
 SCF Done:  E(UB3LYP) =  -914.707374896     A.U. after   12 cycles
 SCF Done:  E(UB3LYP) =  -914.707405375     A.U. after   12 cycles
 SCF Done:  E(UB3LYP) =  -914.707409099     A.U. after   11 cycles
 SCF Done:  E(UB3LYP) =  -914.707409946     A.U. after   10 cycles
 Optimization completed.
    -- Stationary point found.
 Normal termination of Gaussian 16 at Thu Dec 21 19:49:18 2023.

 ----------------------------------------------------------------------
 #P Geom=AllCheck Guess=TCheck SCRF=Check GenChk UB3LYP/6-311++G(d,p) F
 req
 ----------------------------------------------------------------------

 Structure from the checkpoint file:  "201.chk"
 --------
 Oxidized
 --------
 Charge =  0 Multiplicity = 1

                          Input orientation:
 ---------------------------------------------------------------------
 Center     Atomic      Atomic             Coordinates (Angstroms)
 Number     Number       Type             X           Y           Z
 ---------------------------------------------------------------------
      1          8           0       -2.779167    2.494722   -0.451862
      2          6           0       -2.666236    1.180362   -0.220795
      3          6           0       -3.848448    0.436888   -0.096626
      4          6           0       -3.791103   -0.925694    0.142564
      5          6           0       -2.563614   -1.584849    0.264576
      6          6           0       -1.382421   -0.867078    0.144946
      7          6           0       -0.084484   -1.605724    0.281299
      8          8           0       -0.091927   -2.806302    0.491474
      9          6           0        1.173868   -0.820459    0.150031
     10          6           0        2.428180   -1.436092    0.264421
     11          8           0        2.527264   -2.767534    0.498411
     12          6           0        3.597482   -0.660549    0.134412
     13          6           0        3.543938    0.691663   -0.102952
     14          6           0        2.303637    1.340712   -0.223103
     15          8           0        2.330297    2.660336   -0.454349
     16          6           0        1.115551    0.586824   -0.097015
     17          6           0       -0.172024    1.273701   -0.224043
     18          8           0       -0.205842    2.515877   -0.442157
     19          6           0       -1.412456    0.524706   -0.099243
     20          1           0       -1.867555    2.862298   -0.511526
     21          1           0       -4.792647    0.958666   -0.193044
     22          1           0       -4.713230   -1.488351    0.236382
     23          1           0       -2.509096   -2.649007    0.451414
     24          1           0        3.458449   -3.012035    0.546058
     25          1           0        4.562967   -1.150563    0.225247
     26          1           0        4.445583    1.283147   -0.202066
     27          1           0        1.393034    2.964336   -0.512455
 ---------------------------------------------------------------------

 SCF Done:  E(UB3LYP) =  -914.707409946     A.U. after    2 cycles

 Alpha  occ. eigenvalues --  -19.17875 -19.16347 -19.16318 -19.14977 -19.11806
 Alpha  occ. eigenvalues --  -10.29719 -10.27685 -10.27260 -10.27155 -10.27004
 Alpha  occ. eigenvalues --  -10.21883 -10.21715 -10.21668 -10.21141 -10.21085
 Alpha  occ. eigenvalues --  -10.20991 -10.20600 -10.19667 -10.19236  -1.09996
 Alpha  occ. eigenvalues --   -1.09598  -1.08551  -1.06039  -1.05368  -0.89728
 Alpha  occ. eigenvalues --   -0.88204  -0.82416  -0.78502  -0.77751  -0.76874
 Alpha  occ. eigenvalues --   -0.70351  -0.68176  -0.67450  -0.62929  -0.62174
 Alpha  occ. eigenvalues --   -0.59620  -0.57258  -0.56240  -0.54198  -0.52588
 Alpha  occ. eigenvalues --   -0.51053  -0.50300  -0.48574  -0.47544  -0.47411
 Alpha  occ. eigenvalues --   -0.46501  -0.45885  -0.44608  -0.44074  -0.43225
 Alpha  occ. eigenvalues --   -0.42716  -0.41505  -0.41099  -0.40491  -0.39707
 Alpha  occ. eigenvalues --   -0.39459  -0.38772  -0.37556  -0.35622  -0.33950
 Alpha  occ. eigenvalues --   -0.30085  -0.30070  -0.28540  -0.26529  -0.25261
 Alpha  occ. eigenvalues --   -0.23817
 Alpha virt. eigenvalues --   -0.12374  -0.06676  -0.04741  -0.02357  -0.01326
 Alpha virt. eigenvalues --   -0.00439   0.00136   0.00688   0.01920   0.02421
 Alpha virt. eigenvalues --    0.03111   0.03392   0.03895   0.04327   0.04407

  Beta  occ. eigenvalues --  -19.17875 -19.16347 -19.16318 -19.14977 -19.11806
  Beta  occ. eigenvalues --  -10.29719 -10.27685 -10.27260 -10.27155 -10.27004
  Beta  occ. eigenvalues --  -10.21883 -10.21715 -10.21668 -10.21141 -10.21085
  Beta  occ. eigenvalues --  -10.20991 -10.20600 -10.19667 -10.19236  -1.09996
  Beta  occ. eigenvalues --   -1.09598  -1.08551  -1.06039  -1.05368  -0.89728
  Beta  occ. eigenvalues --   -0.88204  -0.82416  -0.78502  -0.77751  -0.76874
  Beta  occ. eigenvalues --   -0.70351  -0.68176  -0.67450  -0.62929  -0.62174
  Beta  occ. eigenvalues --   -0.59620  -0.57258  -0.56240  -0.54198  -0.52588
  Beta  occ. eigenvalues --   -0.51053  -0.50300  -0.48574  -0.47544  -0.47411
  Beta  occ. eigenvalues --   -0.46501  -0.45885  -0.44608  -0.44074  -0.43225
  Beta  occ. eigenvalues --   -0.42716  -0.41505  -0.41099  -0.40491  -0.39707
  Beta  occ. eigenvalues --   -0.39459  -0.38772  -0.37556  -0.35622  -0.33950
  Beta  occ. eigenvalues --   -0.30085  -0.30070  -0.28540  -0.26529  -0.25261
  Beta  occ. eigenvalues --   -0.23817
  Beta virt. eigenvalues --   -0.12374  -0.06676  -0.04741  -0.02357  -0.01326
  Beta virt. eigenvalues --   -0.00439   0.00136   0.00688   0.01920   0.02421
  Beta virt. eigenvalues --    0.03111   0.03392   0.03895   0.04327   0.04407

 Mulliken charges and spin densities:
               1          2
     1  O   -0.279744   0.000000
     2  C   -0.029449   0.000000
     3  C   -0.156290  -0.000000
     4  C   -0.344496   0.000000
     5  C   -0.030169  -0.000000
     6  C    0.050009  -0.000000
     7  C   -0.377933  -0.000000
     8  O   -0.203229  -0.000000
     9  C    0.113346  -0.000000
    10  C   -0.257707   0.000000
    11  O   -0.152685   0.000000
    12  C   -0.136864  -0.000000
    13  C   -0.037992   0.000000
    14  C   -0.179074   0.000000
    15  O   -0.293885  -0.000000
    16  C    0.777480   0.000000
    17  C   -0.407248   0.000000
    18  O   -0.374104   0.000000
    19  C    0.421132   0.000000
    20  H    0.362388   0.000000
    21  H    0.193498  -0.000000
    22  H    0.187825   0.000000
    23  H    0.172661   0.000000
    24  H    0.264070   0.000000
    25  H    0.146555  -0.000000
    26  H    0.206266  -0.000000
    27  H    0.365638   0.000000
 Sum of Mulliken charges =  -0.00000   0.00000

 Dipole moment (field-independent basis, Debye):
    X=              2.0970    Y=             -0.8379    Z=              0.1580  Tot=              2.2637
 Quadrupole moment (field-independent basis, Debye-Ang):
   XX=            -81.8949   YY=           -120.7065   ZZ=           -110.6605
   XY=             -4.0367   XZ=              0.8547   YZ=              1.7952

  Exact polarizability: 295.130  -0.506 206.096   1.180 -21.267  88.540
 Approx polarizability: 461.629   4.898 395.412   0.824 -45.245 145.132

                      1                      2                      3
                      A                      A                      A
 Frequencies --     32.0363                61.2764               101.0905
 Red. masses --      7.5146                 7.3743                 8.8628
 Frc consts  --      0.0045                 0.0163                 0.0534
 IR Inten    --      6.0609                 0.1467                 0.5589

                      4                      5                      6
                      A                      A                      A
 Frequencies --    140.5264               171.2943               206.0659
 Red. masses --      7.3305                 7.2160                 6.5139
 Frc consts  --      0.0853                 0.1247                 0.1630
 IR Inten    --      1.1912                 0.0718                 0.2007

                      7                      8                      9
                      A                      A                      A
 Frequencies --    212.3191               258.8135               290.7928
 Red. masses --      4.4672                 5.6346                 7.8378
 Frc consts  --      0.1186                 0.2224                 0.3905
 IR Inten    --      2.4956                 1.6203                 5.1692

                     10                     11                     12
                      A                      A                      A
 Frequencies --    321.9085               331.8305               362.5834
 Red. masses --      1.1954                 6.6217                 5.1056
 Frc consts  --      0.0730                 0.4296                 0.3955
 IR Inten    --     82.9867                 1.8246                 7.2738

                     13                     14                     15
                      A                      A                      A
 Frequencies --    371.4548               418.1889               428.3616
 Red. masses --     12.3452                 6.2724                 5.7269
 Frc consts  --      1.0036                 0.6463                 0.6191
 IR Inten    --      7.7679                 7.9224                 0.1381

                     16                     17                     18
                      A                      A                      A
 Frequencies --    448.0075               463.6031               475.4154
 Red. masses --      9.0194                 9.2533                 8.7741
 Frc consts  --      1.0666                 1.1718                 1.1684
 IR Inten    --      2.3508                25.0542                 1.1887

                     19                     20                     21
                      A                      A                      A
 Frequencies --    481.7042               496.2918               514.0837
 Red. masses --      4.8537                 7.2132                 6.8264
 Frc consts  --      0.6636                 1.0468                 1.0629
 IR Inten    --      0.5498                 0.8833                 5.6248

                     22                     23                     24
                      A                      A                      A
 Frequencies --    534.7441               581.3758               590.5464
 Red. masses --      4.4977                 7.0581                 3.6155
 Frc consts  --      0.7578                 1.4056                 0.7429
 IR Inten    --      8.4343                13.6096                 7.1506

                     25                     26                     27
                      A                      A                      A
 Frequencies --    618.4988               667.8046               708.6511
 Red. masses --      5.2196                 5.2675                 5.0015
 Frc consts  --      1.1764                 1.3841                 1.4798
 IR Inten    --      0.7045                 0.1098                 5.0803

                     28                     29                     30
                      A                      A                      A
 Frequencies --    719.0430               757.4551               765.6753
 Red. masses --      6.9275                 4.4874                 7.2791
 Frc consts  --      2.1103                 1.5169                 2.5143
 IR Inten    --      7.8358                15.6714                13.8939

                     31                     32                     33
                      A                      A                      A
 Frequencies --    768.6367               774.3502               786.9129
 Red. masses --      1.4413                 1.7903                 1.3095
 Frc consts  --      0.5017                 0.6325                 0.4778
 IR Inten    --     66.2722                52.9492               102.6421

                     34                     35                     36
                      A                      A                      A
 Frequencies --    827.0169               837.0105               846.7431
 Red. masses --      1.6123                 1.7047                 9.0520
 Frc consts  --      0.6497                 0.7037                 3.8238
 IR Inten    --     23.7568                16.0082                56.2289

                     37                     38                     39
                      A                      A                      A
 Frequencies --    903.2210               933.8084               950.3382
 Red. masses --      8.0227                 1.4032                 1.2934
 Frc consts  --      3.8562                 0.7209                 0.6882
 IR Inten    --     27.0661                 0.0141                 0.2433

                     40                     41                     42
                      A                      A                      A
 Frequencies --    964.3801               992.1215              1005.6548
 Red. masses --      5.6189                 6.4089                 1.3194
 Frc consts  --      3.0789                 3.7167                 0.7862
 IR Inten    --     29.4412                 5.1693                 0.5449

                     43                     44                     45
                      A                      A                      A
 Frequencies --   1074.6060              1111.2146              1175.1618
 Red. masses --      2.5688                 2.0104                 2.2451
 Frc consts  --      1.7477                 1.4626                 1.8268
 IR Inten    --     31.6957                65.0784                 0.4171

                     46                     47                     48
                      A                      A                      A
 Frequencies --   1182.7355              1189.4519              1230.7797
 Red. masses --      1.2490                 1.2657                 1.8727
 Frc consts  --      1.0294                 1.0551                 1.6714
 IR Inten    --     13.6727               137.1702                63.1547

                     49                     50                     51
                      A                      A                      A
 Frequencies --   1243.9498              1281.8293              1298.8677
 Red. masses --      2.2436                 4.1955                 3.4605
 Frc consts  --      2.0455                 4.0616                 3.4396
 IR Inten    --    369.3556               341.2058               277.7127

                     52                     53                     54
                      A                      A                      A
 Frequencies --   1313.5297              1340.9940              1342.8601
 Red. masses --      3.3599                 2.4359                 3.5165
 Frc consts  --      3.4155                 2.5809                 3.7361
 IR Inten    --    256.9861                19.7968                31.2827

                     55                     56                     57
                      A                      A                      A
 Frequencies --   1393.4417              1405.2186              1417.3274
 Red. masses --      5.1875                 4.8752                 3.9385
 Frc consts  --      5.9345                 5.6719                 4.6615
 IR Inten    --     70.2213                27.6178               179.7909

                     58                     59                     60
                      A                      A                      A
 Frequencies --   1464.3212              1484.6677              1494.6680
 Red. masses --      3.2653                 2.3776                 2.7820
 Frc consts  --      4.1252                 3.0878                 3.6619
 IR Inten    --     51.5773                81.6244               272.4766

                     61                     62                     63
                      A                      A                      A
 Frequencies --   1511.5660              1593.4452              1611.8776
 Red. masses --      2.8376                 4.4160                 4.3768
 Frc consts  --      3.8199                 6.6062                 6.6999
 IR Inten    --    177.1948                 1.1620               162.5253

                     64                     65                     66
                      A                      A                      A
 Frequencies --   1622.6552              1643.1231              1662.0709
 Red. masses --      4.3014                 5.3786                 6.8128
 Frc consts  --      6.6729                 8.5559                11.0886
 IR Inten    --      2.8353                 6.9269               352.1836

                     67                     68                     69
                      A                      A                      A
 Frequencies --   1723.9951              3150.3121              3174.8633
 Red. masses --     11.3749                 1.0899                 1.0885
 Frc consts  --     19.9191                 6.3729                 6.4647
 IR Inten    --    129.1769                13.2399                 8.8678

                     70                     71                     72
                      A                      A                      A
 Frequencies --   3198.2479              3200.5432              3211.4622
 Red. masses --      1.0935                 1.0935                 1.0928
 Frc consts  --      6.5903                 6.5993                 6.6407
 IR Inten    --      4.1504                 1.4109                 2.7693

                     73                     74                     75
                      A                      A                      A
 Frequencies --   3342.2804              3401.3426              3813.0564
 Red. masses --      1.0667                 1.0677                 1.0661
 Frc consts  --      7.0209                 7.2776                 9.1325
 IR Inten    --    321.7877               143.6112                91.4736

 - Thermochemistry -
 -------------------
 Temperature   298.150 Kelvin.  Pressure   1.00000 Atm.
 Atom     1 has atomic number  8 and mass  15.99491

 Molecular mass:   256.03717 amu.
 Principal axes and moments of inertia in atomic units:
                           1         2         3
     Eigenvalues --  2862.095835261.456448123.55226
           X            0.98782   0.15552  -0.00511
           Y           -0.15231   0.97313   0.17270
           Z            0.03183  -0.16981   0.98496
 This molecule is an asymmetric top.
 Rotational symmetry number  1.
 Warning -- assumption of classical behavior for rotation
           may cause significant error
 Rotational temperatures (Kelvin)      0.03026     0.01646     0.01066
 Rotational constants (GHZ):           0.63057     0.34301     0.22216
 Zero-point vibrational energy     504992.2 (Joules/Mol)
                                  120.69603 (Kcal/Mol)
 Warning -- explicit consideration of  25 degrees of freedom as
           vibrations may cause significant error
 Vibrational temperatures:     46.09    88.16   145.45   202.19   246.45
          (Kelvin)            296.48   305.48   372.37   418.39   463.15
                              477.43   521.68   534.44   601.68   616.32
                              644.58   667.02   684.02   693.06   714.05
                              739.65   769.38   836.47   849.66   889.88
                              960.82  1019.59  1034.54  1089.81  1101.64
                             1105.90  1114.12  1132.19  1189.89  1204.27
                             1218.27  1299.53  1343.54  1367.32  1387.53
                             1427.44  1446.91  1546.12  1598.79  1690.80
                             1701.69  1711.36  1770.82  1789.77  1844.27
                             1868.78  1889.88  1929.39  1932.08  2004.85
                             2021.80  2039.22  2106.83  2136.11  2150.49
                             2174.81  2292.61  2319.13  2334.64  2364.09
                             2391.35  2480.44  4532.60  4567.92  4601.57
                             4604.87  4620.58  4808.80  4893.77  5486.14

 Zero-point correction=                           0.192341 (Hartree/Particle)
 Thermal correction to Energy=                    0.206509
 Thermal correction to Enthalpy=                  0.207453
 Thermal correction to Gibbs Free Energy=         0.151236
 Sum of electronic and zero-point Energies=           -914.515069
 Sum of electronic and thermal Energies=              -914.500901
 Sum of electronic and thermal Enthalpies=            -914.499957
 Sum of electronic and thermal Free Energies=         -914.556174

                     E (Thermal)             CV                S
                      KCal/Mol        Cal/Mol-Kelvin    Cal/Mol-Kelvin
 Total                  129.586             57.496            118.318
 Electronic               0.000              0.000              0.000
 Translational            0.889              2.981             42.520
 Rotational               0.889              2.981             33.170
 Vibrational            127.809             51.534             42.628
 Vibration     1          0.594              1.983              5.699
 Vibration     2          0.597              1.973              4.416
 Vibration     3          0.604              1.948              3.433
 Vibration     4          0.615              1.913              2.797
 Vibration     5          0.626              1.878              2.421
 Vibration     6          0.641              1.831              2.078
 Vibration     7          0.643              1.822              2.024
 Vibration     8          0.668              1.748              1.670
 Vibration     9          0.687              1.691              1.469
 Vibration    10          0.707              1.632              1.300
 Vibration    11          0.714              1.612              1.251
 Vibration    12          0.736              1.549              1.111
 Vibration    13          0.743              1.531              1.074
 Vibration    14          0.781              1.431              0.898
 Vibration    15          0.790              1.408              0.864
 Vibration    16          0.807              1.365              0.802
 Vibration    17          0.821              1.331              0.756
 Vibration    18          0.832              1.305              0.723
 Vibration    19          0.838              1.291              0.705
 Vibration    20          0.852              1.258              0.667
 Vibration    21          0.869              1.219              0.624
 Vibration    22          0.890              1.173              0.577
 Vibration    23          0.938              1.072              0.483
 Vibration    24          0.948              1.052              0.466
 Vibration    25          0.978              0.993              0.419

 Optimization completed.
    -- Stationary point found.
 Normal termination of Gaussian 16 at Thu Dec 21 20:55:18 2023.
