 Gaussian 16, Revision A.03,
 Gaussian 16:  ES64L-G16RevA.03 25-Dec-2016

 --------------------------------------
 #P UB3LYP/6-311++G(d,p) nosym opt freq
 --------------------------------------

 -------
 Reduced
 -------
 Symbolic Z-matrix:
 Charge = -2 Multiplicity = 1

 SCF Done:  E(UB3LYP) =  -842.620187874     A.U. after   21 cycles
 Optimization completed.
    -- Stationary point found.
 Normal termination of Gaussian 16 at Wed Dec 27 20:09:55 2023.

 ----------------------------------------------------------------------
 #P Geom=AllCheck Guess=TCheck SCRF=Check GenChk UB3LYP/6-311++G(d,p) F
 req
 ----------------------------------------------------------------------

 Structure from the checkpoint file:  "133-an.chk"
 -------
 Reduced
 -------
 Charge = -2 Multiplicity = 1

                          Input orientation:
 ---------------------------------------------------------------------
 Center     Atomic      Atomic             Coordinates (Angstroms)
 Number     Number       Type             X           Y           Z
 ---------------------------------------------------------------------
      1          8           0        1.565985   -3.127911    0.083944
      2          6           0        1.302498   -1.872057    0.044745
      3          6           0        2.361235   -0.875670   -0.005719
      4          6           0        3.713344   -1.293717   -0.012037
      5          6           0        4.757949   -0.390636   -0.059131
      6          6           0        4.475578    0.998662   -0.102682
      7          6           0        3.162985    1.431231   -0.097441
      8          6           0        2.071882    0.529340   -0.049613
      9          6           0        0.712813    1.072500   -0.047473
     10          8           0        0.549594    2.349570   -0.088993
     11          6           0       -0.345467    0.098687    0.002060
     12          6           0       -1.752891    0.486361    0.010076
     13          6           0       -2.188424    1.841034   -0.029892
     14          6           0       -3.538641    2.186316   -0.021300
     15          6           0       -4.533087    1.202681    0.027532
     16          6           0       -4.143996   -0.134395    0.067571
     17          6           0       -2.787351   -0.517829    0.060243
     18          6           0       -2.414896   -1.904076    0.102248
     19          6           0       -1.096584   -2.266985    0.094724
     20          6           0       -0.032530   -1.331582    0.046425
     21          1           0        3.886617   -2.364932    0.022182
     22          1           0        5.789087   -0.740520   -0.062890
     23          1           0        5.290085    1.720448   -0.140076
     24          1           0        2.911147    2.486295   -0.129980
     25          1           0       -1.411268    2.592891   -0.067529
     26          1           0       -3.817240    3.238292   -0.053245
     27          1           0       -5.587325    1.472591    0.034188
     28          1           0       -4.897396   -0.920131    0.105914
     29          1           0       -3.202854   -2.654963    0.139958
     30          1           0       -0.800847   -3.311495    0.126188
 ---------------------------------------------------------------------

 SCF Done:  E(UB3LYP) =  -842.620187874     A.U. after    1 cycles

 Alpha  occ. eigenvalues --  -18.78418 -18.78295  -9.94556  -9.94524  -9.94487
 Alpha  occ. eigenvalues --   -9.94239  -9.94034  -9.93972  -9.93860  -9.93808
 Alpha  occ. eigenvalues --   -9.93761  -9.92770  -9.92593  -9.92036  -9.91969
 Alpha  occ. eigenvalues --   -9.91690  -9.91372  -9.91272  -9.90629  -9.90011
 Alpha  occ. eigenvalues --   -0.70420  -0.70028  -0.62386  -0.60510  -0.57214
 Alpha  occ. eigenvalues --   -0.53080  -0.51334  -0.50184  -0.49555  -0.46824
 Alpha  occ. eigenvalues --   -0.41308  -0.38871  -0.37753  -0.35948  -0.34439
 Alpha  occ. eigenvalues --   -0.30528  -0.30128  -0.26837  -0.25563  -0.24943
 Alpha  occ. eigenvalues --   -0.22183  -0.21172  -0.20628  -0.18638  -0.18178
 Alpha  occ. eigenvalues --   -0.17943  -0.17028  -0.15503  -0.15092  -0.14261
 Alpha  occ. eigenvalues --   -0.13667  -0.13483  -0.12080  -0.10861  -0.09989
 Alpha  occ. eigenvalues --   -0.09284  -0.08955  -0.08835  -0.07031  -0.06726
 Alpha  occ. eigenvalues --   -0.02948  -0.00826   0.00206   0.00697   0.03159
 Alpha  occ. eigenvalues --    0.03721   0.04542   0.12359
 Alpha virt. eigenvalues --    0.15070   0.15724   0.16843   0.17549   0.17974
 Alpha virt. eigenvalues --    0.19535   0.19764   0.20182   0.20275   0.21511
 Alpha virt. eigenvalues --    0.22428   0.22432   0.23477   0.24012   0.24533

  Beta  occ. eigenvalues --  -18.78418 -18.78295  -9.94556  -9.94524  -9.94487
  Beta  occ. eigenvalues --   -9.94239  -9.94034  -9.93972  -9.93860  -9.93808
  Beta  occ. eigenvalues --   -9.93761  -9.92770  -9.92593  -9.92036  -9.91969
  Beta  occ. eigenvalues --   -9.91690  -9.91372  -9.91272  -9.90629  -9.90011
  Beta  occ. eigenvalues --   -0.70420  -0.70028  -0.62386  -0.60510  -0.57214
  Beta  occ. eigenvalues --   -0.53080  -0.51334  -0.50184  -0.49555  -0.46824
  Beta  occ. eigenvalues --   -0.41308  -0.38871  -0.37753  -0.35948  -0.34439
  Beta  occ. eigenvalues --   -0.30528  -0.30128  -0.26837  -0.25563  -0.24943
  Beta  occ. eigenvalues --   -0.22183  -0.21172  -0.20628  -0.18638  -0.18178
  Beta  occ. eigenvalues --   -0.17943  -0.17028  -0.15503  -0.15092  -0.14261
  Beta  occ. eigenvalues --   -0.13667  -0.13483  -0.12080  -0.10861  -0.09989
  Beta  occ. eigenvalues --   -0.09284  -0.08955  -0.08835  -0.07031  -0.06726
  Beta  occ. eigenvalues --   -0.02948  -0.00826   0.00206   0.00697   0.03159
  Beta  occ. eigenvalues --    0.03721   0.04542   0.12359
  Beta virt. eigenvalues --    0.15070   0.15724   0.16843   0.17549   0.17974
  Beta virt. eigenvalues --    0.19535   0.19764   0.20182   0.20275   0.21511
  Beta virt. eigenvalues --    0.22428   0.22432   0.23477   0.24012   0.24533

 Mulliken charges and spin densities:
               1          2
     1  O   -0.491091   0.000000
     2  C   -1.086160  -0.000000
     3  C    0.397927   0.000000
     4  C   -0.158279   0.000000
     5  C   -0.441957   0.000000
     6  C   -0.487163  -0.000000
     7  C   -0.065198   0.000000
     8  C    0.415495   0.000000
     9  C   -0.686452   0.000000
    10  O   -0.459321  -0.000000
    11  C    0.588176   0.000000
    12  C    0.951921   0.000000
    13  C   -0.606417  -0.000000
    14  C   -0.620950  -0.000000
    15  C   -0.323836   0.000000
    16  C   -0.491064   0.000000
    17  C    0.574409   0.000000
    18  C   -0.546462  -0.000000
    19  C   -0.230341  -0.000000
    20  C    0.788355   0.000000
    21  H    0.129735   0.000000
    22  H    0.077143  -0.000000
    23  H    0.078874   0.000000
    24  H    0.125661  -0.000000
    25  H    0.154580  -0.000000
    26  H    0.098432  -0.000000
    27  H    0.073523   0.000000
    28  H    0.052221   0.000000
    29  H    0.059709  -0.000000
    30  H    0.128530   0.000000
 Sum of Mulliken charges =  -2.00000  -0.00000

 Dipole moment (field-independent basis, Debye):
    X=             -3.3255    Y=              1.8802    Z=             -0.0152  Tot=              3.8202
 Quadrupole moment (field-independent basis, Debye-Ang):
   XX=           -194.6006   YY=           -175.0215   ZZ=           -131.3490
   XY=             13.4386   XZ=              0.5011   YZ=              1.3005

  Exact polarizability: 569.084 -28.924 287.910  -5.481  -4.517 143.895
 Approx polarizability:1036.618 -49.341 528.633 -10.788  -9.998 216.730

                      1                      2                      3
                      A                      A                      A
 Frequencies --     44.3097                59.1984               118.8059
 Red. masses --      6.5049                 5.3902                 5.1262
 Frc consts  --      0.0075                 0.0111                 0.0426
 IR Inten    --      3.9646                 0.3323                 2.8267

                      4                      5                      6
                      A                      A                      A
 Frequencies --    133.4264               179.2629               182.2095
 Red. masses --      4.5950                 5.2824                 6.6991
 Frc consts  --      0.0482                 0.1000                 0.1310
 IR Inten    --      0.3143                 3.0498                 1.5923

                      7                      8                      9
                      A                      A                      A
 Frequencies --    217.4613               271.4137               291.3658
 Red. masses --      4.3678                 5.4074                 5.9826
 Frc consts  --      0.1217                 0.2347                 0.2992
 IR Inten    --      2.0826                 0.5901                 2.7978

                     10                     11                     12
                      A                      A                      A
 Frequencies --    312.8575               362.5932               379.6945
 Red. masses --      8.8620                 6.7703                 4.8978
 Frc consts  --      0.5111                 0.5244                 0.4160
 IR Inten    --      6.5041                 0.9563                 1.4879

                     13                     14                     15
                      A                      A                      A
 Frequencies --    389.4518               430.5081               443.0228
 Red. masses --     11.6268                 4.9326                 3.3919
 Frc consts  --      1.0390                 0.5386                 0.3922
 IR Inten    --      0.0277                 2.4060                 0.0594

                     16                     17                     18
                      A                      A                      A
 Frequencies --    443.1388               485.0558               505.9267
 Red. masses --      5.6790                12.0073                 4.0912
 Frc consts  --      0.6571                 1.6645                 0.6170
 IR Inten    --      1.4551                20.1896                 3.3561

                     19                     20                     21
                      A                      A                      A
 Frequencies --    529.8329               533.4396               561.5474
 Red. masses --      3.5131                 7.0751                 6.8457
 Frc consts  --      0.5811                 1.1862                 1.2719
 IR Inten    --     13.0182                 6.5382                 8.6490

                     22                     23                     24
                      A                      A                      A
 Frequencies --    596.5894               634.0590               665.8840
 Red. masses --      4.8002                 6.8100                 6.4934
 Frc consts  --      1.0066                 1.6131                 1.6964
 IR Inten    --      0.0007                 6.1856                 1.1782

                     25                     26                     27
                      A                      A                      A
 Frequencies --    674.2564               679.2245               681.6330
 Red. masses --      3.1803                 7.0401                 1.6794
 Frc consts  --      0.8518                 1.9136                 0.4597
 IR Inten    --     14.3386                 1.2098                 6.6733

                     28                     29                     30
                      A                      A                      A
 Frequencies --    711.4915               745.9997               749.1312
 Red. masses --      1.3642                 1.8154                 2.6619
 Frc consts  --      0.4069                 0.5952                 0.8801
 IR Inten    --    100.7991                18.4471                 3.6092

                     31                     32                     33
                      A                      A                      A
 Frequencies --    751.4812               768.4626               793.2982
 Red. masses --      6.3282                 2.6127                 1.6824
 Frc consts  --      2.1056                 0.9090                 0.6238
 IR Inten    --      5.2920                19.6019                 2.8893

                     34                     35                     36
                      A                      A                      A
 Frequencies --    806.1908               818.8245               835.3805
 Red. masses --      6.0353                 1.6208                 3.4216
 Frc consts  --      2.3111                 0.6403                 1.4068
 IR Inten    --      5.7421                 0.0002                 0.0645

                     37                     38                     39
                      A                      A                      A
 Frequencies --    857.0239               864.5622               917.4454
 Red. masses --      1.2561                 5.5126                 6.7693
 Frc consts  --      0.5436                 2.4277                 3.3570
 IR Inten    --      7.4424                29.9083                 7.2024

                     40                     41                     42
                      A                      A                      A
 Frequencies --    956.5877               964.7149               971.4954
 Red. masses --      1.2463                 1.3402                 1.2526
 Frc consts  --      0.6719                 0.7349                 0.6965
 IR Inten    --      0.2953                 2.3796                 7.4239

                     43                     44                     45
                      A                      A                      A
 Frequencies --    982.4423               993.4495              1020.9942
 Red. masses --      1.3032                 5.9554                 2.0235
 Frc consts  --      0.7411                 3.4630                 1.2428
 IR Inten    --      2.3398                32.9054               135.6666

                     46                     47                     48
                      A                      A                      A
 Frequencies --   1049.9453              1073.5241              1098.8371
 Red. masses --      2.0815                 3.3830                 1.8202
 Frc consts  --      1.3519                 2.2971                 1.2949
 IR Inten    --     12.2237                23.3169                18.8800

                     49                     50                     51
                      A                      A                      A
 Frequencies --   1112.1106              1137.5166              1153.0026
 Red. masses --      1.5293                 1.2544                 1.2211
 Frc consts  --      1.1144                 0.9563                 0.9565
 IR Inten    --    206.7001                21.7240                 6.7760

                     52                     53                     54
                      A                      A                      A
 Frequencies --   1168.6370              1190.6794              1209.3979
 Red. masses --      1.6792                 2.4052                 2.3433
 Frc consts  --      1.3511                 2.0090                 2.0194
 IR Inten    --      1.6595                49.5919               234.3846

                     55                     56                     57
                      A                      A                      A
 Frequencies --   1220.3495              1229.3062              1252.8981
 Red. masses --      2.5956                 2.3233                 2.2468
 Frc consts  --      2.2775                 2.0686                 2.0780
 IR Inten    --     35.7234               187.4721               179.1186

                     58                     59                     60
                      A                      A                      A
 Frequencies --   1285.3060              1317.9969              1343.5338
 Red. masses --      2.8055                 4.6986                 6.7363
 Frc consts  --      2.7307                 4.8089                 7.1643
 IR Inten    --     47.1993               501.7867                 1.1522

                     61                     62                     63
                      A                      A                      A
 Frequencies --   1355.4772              1384.9208              1401.4094
 Red. masses --      8.5292                 2.6647                 2.5543
 Frc consts  --      9.2330                 3.0113                 2.9556
 IR Inten    --    202.3860               194.0607               281.1466

                     64                     65                     66
                      A                      A                      A
 Frequencies --   1442.4123              1454.2490              1462.6253
 Red. masses --      2.9492                 3.6857                 3.1014
 Frc consts  --      3.6152                 4.5924                 3.9091
 IR Inten    --    166.3055                 4.6173                17.0108

                     67                     68                     69
                      A                      A                      A
 Frequencies --   1479.5594              1489.0080              1515.8023
 Red. masses --      3.1889                 3.6327                 4.0938
 Frc consts  --      4.1130                 4.7455                 5.5420
 IR Inten    --     35.0246               291.5804                69.3490

                     70                     71                     72
                      A                      A                      A
 Frequencies --   1542.1454              1574.9611              1580.6368
 Red. masses --      5.1302                 5.8045                 7.0352
 Frc consts  --      7.1885                 8.4830                10.3559
 IR Inten    --     17.2888                 5.5096               271.9706

                     73                     74                     75
                      A                      A                      A
 Frequencies --   1593.7323              1605.8803              3089.7318
 Red. masses --      5.4728                 6.2200                 1.0819
 Frc consts  --      8.1902                 9.4508                 6.0853
 IR Inten    --      5.8476                90.9701                 2.1142

                     76                     77                     78
                      A                      A                      A
 Frequencies --   3090.3756              3097.9825              3105.1778
 Red. masses --      1.0827                 1.0859                 1.0877
 Frc consts  --      6.0923                 6.1402                 6.1791
 IR Inten    --     36.7522                19.9035               131.7572

                     79                     80                     81
                      A                      A                      A
 Frequencies --   3114.5446              3127.4632              3154.0985
 Red. masses --      1.0910                 1.0954                 1.0908
 Frc consts  --      6.2352                 6.3127                 6.3934
 IR Inten    --    153.7738               189.4539                36.6855

                     82                     83                     84
                      A                      A                      A
 Frequencies --   3159.1973              3164.7074              3182.3893
 Red. masses --      1.0906                 1.0907                 1.0920
 Frc consts  --      6.4129                 6.4358                 6.5159
 IR Inten    --     38.7629                45.5090                 4.5583

 - Thermochemistry -
 -------------------
 Temperature   298.150 Kelvin.  Pressure   1.00000 Atm.
 Atom     1 has atomic number  8 and mass  15.99491

 Molecular mass:   258.06808 amu.
 Principal axes and moments of inertia in atomic units:
                           1         2         3
     Eigenvalues --  2326.663837322.771989649.43577
           X            0.99220   0.12371   0.01521
           Y           -0.12417   0.99166   0.03438
           Z           -0.01083  -0.03600   0.99929
 This molecule is an asymmetric top.
 Rotational symmetry number  1.
 Warning -- assumption of classical behavior for rotation
           may cause significant error
 Rotational temperatures (Kelvin)      0.03723     0.01183     0.00898
 Rotational constants (GHZ):           0.77568     0.24646     0.18703
 Zero-point vibrational energy     576161.5 (Joules/Mol)
                                  137.70589 (Kcal/Mol)
 Warning -- explicit consideration of  22 degrees of freedom as
           vibrations may cause significant error
 Vibrational temperatures:     63.75    85.17   170.94   191.97   257.92
          (Kelvin)            262.16   312.88   390.50   419.21   450.13
                              521.69   546.30   560.33   619.41   637.41
                              637.58   697.89   727.92   762.31   767.50
                              807.94   858.36   912.27   958.06   970.10
                              977.25   980.72  1023.68  1073.33  1077.83
                             1081.21  1105.65  1141.38  1159.93  1178.11
                             1201.93  1233.07  1243.91  1320.00  1376.32
                             1388.01  1397.77  1413.52  1429.35  1468.98
                             1510.64  1544.56  1580.98  1600.08  1636.63
                             1658.91  1681.41  1713.12  1740.05  1755.81
                             1768.70  1802.64  1849.27  1896.30  1933.05
                             1950.23  1992.59  2016.32  2075.31  2092.34
                             2104.39  2128.76  2142.35  2180.90  2218.80
                             2266.02  2274.18  2293.03  2310.50  4445.43
                             4446.36  4457.31  4467.66  4481.13  4499.72
                             4538.04  4545.38  4553.31  4578.75

 Zero-point correction=                           0.219448 (Hartree/Particle)
 Thermal correction to Energy=                    0.233523
 Thermal correction to Enthalpy=                  0.234467
 Thermal correction to Gibbs Free Energy=         0.178658
 Sum of electronic and zero-point Energies=           -842.400740
 Sum of electronic and thermal Energies=              -842.386665
 Sum of electronic and thermal Enthalpies=            -842.385721
 Sum of electronic and thermal Free Energies=         -842.441530

                     E (Thermal)             CV                S
                      KCal/Mol        Cal/Mol-Kelvin    Cal/Mol-Kelvin
 Total                  146.538             59.213            117.460
 Electronic               0.000              0.000              0.000
 Translational            0.889              2.981             42.544
 Rotational               0.889              2.981             33.463
 Vibrational            144.761             53.252             41.453
 Vibration     1          0.595              1.980              5.056
 Vibration     2          0.597              1.974              4.484
 Vibration     3          0.609              1.934              3.120
 Vibration     4          0.613              1.920              2.896
 Vibration     5          0.629              1.868              2.336
 Vibration     6          0.630              1.864              2.306
 Vibration     7          0.646              1.814              1.980
 Vibration     8          0.675              1.726              1.587
 Vibration     9          0.687              1.690              1.466
 Vibration    10          0.701              1.649              1.347
 Vibration    11          0.736              1.549              1.111
 Vibration    12          0.750              1.513              1.040
 Vibration    13          0.757              1.493              1.002
 Vibration    14          0.792              1.404              0.857
 Vibration    15          0.803              1.376              0.817
 Vibration    16          0.803              1.376              0.817
 Vibration    17          0.841              1.283              0.697
 Vibration    18          0.861              1.237              0.643
 Vibration    19          0.885              1.184              0.588
 Vibration    20          0.888              1.176              0.580
 Vibration    21          0.917              1.114              0.521
 Vibration    22          0.954              1.039              0.456

 Optimization completed.
    -- Stationary point found.
 Normal termination of Gaussian 16 at Wed Dec 27 22:54:42 2023.
