 Q-Chem 5.4, Q-Chem, Inc., Pleasanton, CA (2021)
 Q-Chem 5.4.0 for Intel X86 EM64T Linux

User input:
--------------------------------------------------------------
$molecule
-2 1
O                  1.5659850000     -3.1279110000      0.0839440000
C                  1.3024980000     -1.8720570000      0.0447450000
C                  2.3612350000     -0.8756700000     -0.0057190000
C                  3.7133440000     -1.2937170000     -0.0120370000
C                  4.7579490000     -0.3906360000     -0.0591310000
C                  4.4755780000      0.9986620000     -0.1026820000
C                  3.1629850000      1.4312310000     -0.0974410000
C                  2.0718820000      0.5293400000     -0.0496130000
C                  0.7128130000      1.0725000000     -0.0474730000
O                  0.5495940000      2.3495700000     -0.0889930000
C                 -0.3454670000      0.0986870000      0.0020600000
C                 -1.7528910000      0.4863610000      0.0100760000
C                 -2.1884240000      1.8410340000     -0.0298920000
C                 -3.5386410000      2.1863160000     -0.0213000000
C                 -4.5330870000      1.2026810000      0.0275320000
C                 -4.1439960000     -0.1343950000      0.0675710000
C                 -2.7873510000     -0.5178290000      0.0602430000
C                 -2.4148960000     -1.9040760000      0.1022480000
C                 -1.0965840000     -2.2669850000      0.0947240000
C                 -0.0325300000     -1.3315820000      0.0464250000
H                  3.8866170000     -2.3649320000      0.0221820000
H                  5.7890870000     -0.7405200000     -0.0628900000
H                  5.2900850000      1.7204480000     -0.1400760000
H                  2.9111470000      2.4862950000     -0.1299800000
H                 -1.4112680000      2.5928910000     -0.0675290000
H                 -3.8172400000      3.2382920000     -0.0532450000
H                 -5.5873250000      1.4725910000      0.0341880000
H                 -4.8973960000     -0.9201310000      0.1059140000
H                 -3.2028540000     -2.6549630000      0.1399580000
H                 -0.8008470000     -3.3114950000      0.1261880000
$end
$rem
MAX_SCF_CYCLES=200
BASIS  =  6-311++G(d,p)
GUI  =  2
JOB_TYPE  =  SP
METHOD  =  B3LYP
SOLVENT_METHOD = PCM
$end
$pcm
theory = CPCM
$end
$solvent
dielectric 37.219
opticaldielectric 1.43
$end

--------------------------------------------------------------

             Standard Nuclear Orientation (Angstroms)
    I     Atom           X                Y                Z
 ----------------------------------------------------------------
    1      O       1.5659850000    -3.1279110000     0.0839440000
    2      C       1.3024980000    -1.8720570000     0.0447450000
    3      C       2.3612350000    -0.8756700000    -0.0057190000
    4      C       3.7133440000    -1.2937170000    -0.0120370000
    5      C       4.7579490000    -0.3906360000    -0.0591310000
    6      C       4.4755780000     0.9986620000    -0.1026820000
    7      C       3.1629850000     1.4312310000    -0.0974410000
    8      C       2.0718820000     0.5293400000    -0.0496130000
    9      C       0.7128130000     1.0725000000    -0.0474730000
   10      O       0.5495940000     2.3495700000    -0.0889930000
   11      C      -0.3454670000     0.0986870000     0.0020600000
   12      C      -1.7528910000     0.4863610000     0.0100760000
   13      C      -2.1884240000     1.8410340000    -0.0298920000
   14      C      -3.5386410000     2.1863160000    -0.0213000000
   15      C      -4.5330870000     1.2026810000     0.0275320000
   16      C      -4.1439960000    -0.1343950000     0.0675710000
   17      C      -2.7873510000    -0.5178290000     0.0602430000
   18      C      -2.4148960000    -1.9040760000     0.1022480000
   19      C      -1.0965840000    -2.2669850000     0.0947240000
   20      C      -0.0325300000    -1.3315820000     0.0464250000
   21      H       3.8866170000    -2.3649320000     0.0221820000
   22      H       5.7890870000    -0.7405200000    -0.0628900000
   23      H       5.2900850000     1.7204480000    -0.1400760000
   24      H       2.9111470000     2.4862950000    -0.1299800000
   25      H      -1.4112680000     2.5928910000    -0.0675290000
   26      H      -3.8172400000     3.2382920000    -0.0532450000
   27      H      -5.5873250000     1.4725910000     0.0341880000
   28      H      -4.8973960000    -0.9201310000     0.1059140000
   29      H      -3.2028540000    -2.6549630000     0.1399580000
   30      H      -0.8008470000    -3.3114950000     0.1261880000
 ----------------------------------------------------------------

    9    -842.8782372917      2.47e-06  Convergence criterion met
 Total energy in the final basis set =     -842.8782372917

                    Orbital Energies (a.u.)
 --------------------------------------------------------------

 Alpha MOs
 -- Occupied --
-19.0277 -19.0251 -10.1814 -10.1813 -10.1651 -10.1634 -10.1561 -10.1551
-10.1543 -10.1542 -10.1538 -10.1502 -10.1490 -10.1472 -10.1449 -10.1440
-10.1432 -10.1421 -10.1416 -10.1352  -0.9480  -0.9444  -0.8471  -0.8304
 -0.7975  -0.7576  -0.7367  -0.7269  -0.7196  -0.6923  -0.6435  -0.6118
 -0.6007  -0.5820  -0.5660  -0.5305  -0.5238  -0.4900  -0.4755  -0.4691
 -0.4435  -0.4373  -0.4286  -0.4099  -0.4045  -0.4024  -0.3901  -0.3889
 -0.3763  -0.3713  -0.3668  -0.3630  -0.3517  -0.3342  -0.3315  -0.3242
 -0.3175  -0.3151  -0.3027  -0.2950  -0.2565  -0.2347  -0.2299  -0.2265
 -0.2079  -0.1973  -0.1969  -0.1151

          Ground-State Mulliken Net Atomic Charges

     Atom                 Charge (a.u.)
  ----------------------------------------
      1 O                    -0.658602
      2 C                    -0.611277
      3 C                     0.208843
      4 C                    -0.113673
      5 C                    -0.527369
      6 C                    -0.523405
      7 C                    -0.043389
      8 C                     0.215416
      9 C                    -0.466375
     10 O                    -0.622492
     11 C                     0.509885
     12 C                     0.812705
     13 C                    -0.613246
     14 C                    -0.583365
     15 C                    -0.379553
     16 C                    -0.457849
     17 C                     0.406746
     18 C                    -0.541249
     19 C                    -0.263751
     20 C                     0.624026
     21 H                     0.149535
     22 H                     0.178267
     23 H                     0.178656
     24 H                     0.148035
     25 H                     0.150687
     26 H                     0.187233
     27 H                     0.178739
     28 H                     0.151754
     29 H                     0.161937
     30 H                     0.143132
  ----------------------------------------
  Sum of atomic charges =    -2.000000

                    Cartesian Multipole Moments
 -----------------------------------------------------------------
    Charge (ESU x 10^10)
                -9.6064
    Dipole Moment (Debye)
         X      -6.0297      Y       3.0095      Z      -0.0135
       Tot       6.7391
    Quadrupole Moments (Debye-Ang)
        XX    -152.4105     XY      14.1523     YY    -174.6279
        XZ      -0.1558     YZ       1.3021     ZZ    -130.5718

 Total job time:  105.13s(wall), 513.88s(cpu)
        *  Thank you very much for using Q-Chem.  Have a nice day.  *
