 Gaussian 16, Revision A.03,
 Gaussian 16:  ES64L-G16RevA.03 25-Dec-2016

 --------------------------------------
 #P UB3LYP/6-311++G(d,p) nosym opt freq
 --------------------------------------

 -------
 Reduced
 -------
 Symbolic Z-matrix:
 Charge = -2 Multiplicity = 1

 SCF Done:  E(UB3LYP) =  -610.454761046     A.U. after   99 cycles
 SCF Done:  E(UB3LYP) =  -610.484211592     A.U. after   32 cycles
 SCF Done:  E(UB3LYP) =  -610.494637314     A.U. after   31 cycles
 SCF Done:  E(UB3LYP) =  -610.495789775     A.U. after   29 cycles
 SCF Done:  E(UB3LYP) =  -610.495844294     A.U. after   29 cycles
 SCF Done:  E(UB3LYP) =  -610.495971287     A.U. after   31 cycles
 SCF Done:  E(UB3LYP) =  -610.496030108     A.U. after   25 cycles
 SCF Done:  E(UB3LYP) =  -610.496035787     A.U. after   26 cycles
 SCF Done:  E(UB3LYP) =  -610.496036771     A.U. after   23 cycles
 Optimization completed.
    -- Stationary point found.
 Normal termination of Gaussian 16 at Tue Dec 26 21:27:59 2023.

 ----------------------------------------------------------------------
 #P Geom=AllCheck Guess=TCheck SCRF=Check GenChk UB3LYP/6-311++G(d,p) F
 req
 ----------------------------------------------------------------------

 Structure from the checkpoint file:  "279-an.chk"
 -------
 Reduced
 -------
 Charge = -2 Multiplicity = 1

                          Input orientation:
 ---------------------------------------------------------------------
 Center     Atomic      Atomic             Coordinates (Angstroms)
 Number     Number       Type             X           Y           Z
 ---------------------------------------------------------------------
      1          8           0       -1.274103    2.579430    0.353053
      2          6           0       -1.242258    1.297254    0.226717
      3          6           0       -2.413047    0.484267    0.198266
      4          6           0       -2.354106   -0.902936    0.060784
      5          8           0       -3.495891   -1.685993    0.035311
      6          6           0       -1.162934   -1.660182   -0.068182
      7          8           0       -1.274717   -2.970642   -0.188173
      8          6           0        0.041181   -0.899089   -0.046144
      9          6           0        1.312931   -1.533171   -0.146686
     10          6           0        2.492960   -0.817409   -0.131397
     11          6           0        2.465079    0.598953   -0.009262
     12          6           0        1.241076    1.243552    0.102130
     13          6           0        0.014037    0.552345    0.095919
     14          1           0       -3.380093    0.974258    0.289820
     15          1           0        1.315750   -2.615588   -0.238550
     16          1           0        3.447992   -1.335830   -0.220726
     17          1           0        3.394245    1.166865   -0.000694
     18          1           0        1.182345    2.324208    0.200422
     19          1           0       -3.060972   -2.573162   -0.070783
 ---------------------------------------------------------------------

 SCF Done:  E(UB3LYP) =  -610.496036771     A.U. after    4 cycles

 Alpha  occ. eigenvalues --  -18.86156 -18.77026 -18.76167  -9.92989  -9.92465
 Alpha  occ. eigenvalues --   -9.91231  -9.90990  -9.90644  -9.90263  -9.90224
 Alpha  occ. eigenvalues --   -9.88926  -9.88523  -9.86906  -0.77141  -0.67530
 Alpha  occ. eigenvalues --   -0.66525  -0.57711  -0.51315  -0.47674  -0.45176
 Alpha  occ. eigenvalues --   -0.38987  -0.34324  -0.32697  -0.28524  -0.25328
 Alpha  occ. eigenvalues --   -0.23233  -0.19441  -0.18305  -0.17291  -0.15534
 Alpha  occ. eigenvalues --   -0.13495  -0.13341  -0.10977  -0.10237  -0.09779
 Alpha  occ. eigenvalues --   -0.09573  -0.06895  -0.06222  -0.05091  -0.04195
 Alpha  occ. eigenvalues --    0.01801   0.03104   0.04355   0.05484   0.06238
 Alpha  occ. eigenvalues --    0.14426
 Alpha virt. eigenvalues --    0.16145   0.18079   0.20355   0.21138   0.21517
 Alpha virt. eigenvalues --    0.22737   0.23865   0.25822   0.26764   0.27280
 Alpha virt. eigenvalues --    0.28590   0.29042   0.29122   0.30031   0.30402

  Beta  occ. eigenvalues --  -18.86156 -18.77026 -18.76167  -9.92989  -9.92465
  Beta  occ. eigenvalues --   -9.91231  -9.90990  -9.90644  -9.90263  -9.90224
  Beta  occ. eigenvalues --   -9.88926  -9.88523  -9.86906  -0.77141  -0.67530
  Beta  occ. eigenvalues --   -0.66525  -0.57711  -0.51315  -0.47674  -0.45176
  Beta  occ. eigenvalues --   -0.38987  -0.34324  -0.32697  -0.28524  -0.25328
  Beta  occ. eigenvalues --   -0.23233  -0.19441  -0.18305  -0.17291  -0.15534
  Beta  occ. eigenvalues --   -0.13495  -0.13341  -0.10977  -0.10237  -0.09779
  Beta  occ. eigenvalues --   -0.09573  -0.06895  -0.06222  -0.05091  -0.04195
  Beta  occ. eigenvalues --    0.01801   0.03104   0.04355   0.05484   0.06238
  Beta  occ. eigenvalues --    0.14426
  Beta virt. eigenvalues --    0.16145   0.18079   0.20355   0.21138   0.21517
  Beta virt. eigenvalues --    0.22737   0.23865   0.25822   0.26764   0.27280
  Beta virt. eigenvalues --    0.28590   0.29042   0.29122   0.30031   0.30402

 Mulliken charges and spin densities:
               1          2
     1  O   -0.545296  -0.000000
     2  C   -0.730915  -0.000000
     3  C    0.587338   0.000000
     4  C   -0.121958  -0.000000
     5  O   -0.336166  -0.000000
     6  C   -1.167412  -0.000000
     7  O   -0.610896  -0.000000
     8  C    0.486138   0.000000
     9  C   -0.118317   0.000000
    10  C    0.028467  -0.000000
    11  C    0.060955  -0.000000
    12  C   -0.058227   0.000000
    13  C    0.378409  -0.000000
    14  H    0.078771   0.000000
    15  H    0.142924  -0.000000
    16  H   -0.271589   0.000000
    17  H   -0.166587   0.000000
    18  H    0.130233  -0.000000
    19  H    0.234129  -0.000000
 Sum of Mulliken charges =  -2.00000  -0.00000

 Dipole moment (field-independent basis, Debye):
    X=              5.9310    Y=              1.8758    Z=             -0.4746  Tot=              6.2387
 Quadrupole moment (field-independent basis, Debye-Ang):
   XX=           -135.1449   YY=           -136.6546   ZZ=            -88.7916
   XY=             -2.8462   XZ=              2.3060   YZ=             -3.4442

  Exact polarizability:2786.751 -71.555 525.479-143.364 -40.795 118.443
 Approx polarizability:1847.873  28.177 431.453 -86.980   0.410 153.747

                      1                      2                      3
                      A                      A                      A
 Frequencies --     99.2723               140.2551               174.0379
 Red. masses --      7.8349                 4.3274                 8.4983
 Frc consts  --      0.0455                 0.0502                 0.1517
 IR Inten    --      2.3730                25.3493                 5.6297

                      4                      5                      6
                      A                      A                      A
 Frequencies --    254.5317               260.4852               321.3572
 Red. masses --      6.0633                 5.6419                 5.8561
 Frc consts  --      0.2314                 0.2256                 0.3563
 IR Inten    --     12.3776                 2.7701               180.8152

                      7                      8                      9
                      A                      A                      A
 Frequencies --    348.9951               354.3814               400.8355
 Red. masses --     11.1246                 7.0803                10.9828
 Frc consts  --      0.7983                 0.5239                 1.0397
 IR Inten    --     13.3314                24.9177              4424.4633

                     10                     11                     12
                      A                      A                      A
 Frequencies --    436.7654               447.2308               480.8774
 Red. masses --      3.5234                 8.1242                 3.8355
 Frc consts  --      0.3960                 0.9574                 0.5226
 IR Inten    --     39.3614              1669.7549                27.3660

                     13                     14                     15
                      A                      A                      A
 Frequencies --    527.8592               637.8993               639.1275
 Red. masses --      8.2999                 3.8245                 4.6005
 Frc consts  --      1.3626                 0.9169                 1.1072
 IR Inten    --    351.7630               279.1805                60.2143

                     16                     17                     18
                      A                      A                      A
 Frequencies --    675.5421               687.8753               710.5264
 Red. masses --      5.3085                 2.3957                 3.7787
 Frc consts  --      1.4273                 0.6679                 1.1240
 IR Inten    --    215.6625                79.8138                76.2638

                     19                     20                     21
                      A                      A                      A
 Frequencies --    721.7359               747.4120               779.6038
 Red. masses --      6.4902                 1.9041                 1.2824
 Frc consts  --      1.9919                 0.6267                 0.4592
 IR Inten    --    120.8668                28.1500               130.1620

                     22                     23                     24
                      A                      A                      A
 Frequencies --    791.7111               808.9451               830.4122
 Red. masses --      1.6098                 1.3951                 4.4361
 Frc consts  --      0.5945                 0.5379                 1.8024
 IR Inten    --     12.8634               180.2583               204.7482

                     25                     26                     27
                      A                      A                      A
 Frequencies --    934.0853               943.0634               982.5669
 Red. masses --      1.1925                 1.3340                 4.6267
 Frc consts  --      0.6130                 0.6990                 2.6318
 IR Inten    --    153.6159                98.1851              1885.8153

                     28                     29                     30
                      A                      A                      A
 Frequencies --   1005.1272              1072.1319              1111.2620
 Red. masses --      2.6951                 2.9917                 1.6851
 Frc consts  --      1.6043                 2.0262                 1.2261
 IR Inten    --   2423.0405              1464.6050              1584.9479

                     31                     32                     33
                      A                      A                      A
 Frequencies --   1132.2766              1158.3770              1188.3243
 Red. masses --      1.5763                 3.0643                 1.6426
 Frc consts  --      1.1907                 2.4226                 1.3666
 IR Inten    --      4.9003                10.9052              2028.4189

                     34                     35                     36
                      A                      A                      A
 Frequencies --   1226.1457              1248.8514              1307.7575
 Red. masses --      3.4529                 1.9713                 5.4937
 Frc consts  --      3.0586                 1.8114                 5.5357
 IR Inten    --    475.9198               599.1042             15245.2395

                     37                     38                     39
                      A                      A                      A
 Frequencies --   1341.5881              1380.0071              1418.2739
 Red. masses --      2.7175                 4.0455                 5.4706
 Frc consts  --      2.8817                 4.5393                 6.4834
 IR Inten    --   3383.0454              9776.1859               482.8947

                     40                     41                     42
                      A                      A                      A
 Frequencies --   1441.1124              1469.7854              1511.2115
 Red. masses --      2.4043                 3.0808                 4.4024
 Frc consts  --      2.9420                 3.9212                 5.9237
 IR Inten    --    133.5239               734.9629               197.5923

                     43                     44                     45
                      A                      A                      A
 Frequencies --   1542.4060              1574.3569              1578.0069
 Red. masses --      4.5678                 3.0771                 4.6376
 Frc consts  --      6.4026                 4.4936                 6.8040
 IR Inten    --   2246.3058              5677.2361                37.4254

                     46                     47                     48
                      A                      A                      A
 Frequencies --   3078.1520              3106.0317              3122.1979
 Red. masses --      1.0831                 1.0899                 1.0878
 Frc consts  --      6.0462                 6.1949                 6.2476
 IR Inten    --    252.5328                24.4841               755.2423

                     49                     50                     51
                      A                      A                      A
 Frequencies --   3145.4356              3148.7289              3284.0793
 Red. masses --      1.0903                 1.0910                 1.0638
 Frc consts  --      6.3554                 6.3731                 6.7600
 IR Inten    --    109.1662               243.9157               909.4476

 - Thermochemistry -
 -------------------
 Temperature   298.150 Kelvin.  Pressure   1.00000 Atm.
 Atom     1 has atomic number  8 and mass  15.99491

 Molecular mass:   174.03169 amu.
 Principal axes and moments of inertia in atomic units:
                           1         2         3
     Eigenvalues --  1463.804482282.434293746.19362
           X            0.92998  -0.36511   0.04283
           Y            0.36758   0.92510  -0.09530
           Z           -0.00482   0.10437   0.99453
 This molecule is an asymmetric top.
 Rotational symmetry number  1.
 Warning -- assumption of classical behavior for rotation
           may cause significant error
 Rotational temperatures (Kelvin)      0.05917     0.03795     0.02312
 Rotational constants (GHZ):           1.23291     0.79071     0.48175
 Zero-point vibrational energy     345296.2 (Joules/Mol)
                                   82.52777 (Kcal/Mol)
 Warning -- explicit consideration of  13 degrees of freedom as
           vibrations may cause significant error
 Vibrational temperatures:    142.83   201.80   250.40   366.21   374.78
          (Kelvin)            462.36   502.13   509.88   576.71   628.41
                              643.47   691.88   759.47   917.79   919.56
                              971.95   989.70  1022.29  1038.42  1075.36
                             1121.68  1139.10  1163.89  1194.78  1343.94
                             1356.86  1413.69  1446.15  1542.56  1598.86
                             1629.09  1666.65  1709.73  1764.15  1796.82
                             1881.57  1930.25  1985.52  2040.58  2073.44
                             2114.69  2174.30  2219.18  2265.15  2270.40
                             4428.77  4468.89  4492.15  4525.58  4530.32
                             4725.06

 Zero-point correction=                           0.131516 (Hartree/Particle)
 Thermal correction to Energy=                    0.141217
 Thermal correction to Enthalpy=                  0.142161
 Thermal correction to Gibbs Free Energy=         0.096630
 Sum of electronic and zero-point Energies=           -610.364520
 Sum of electronic and thermal Energies=              -610.354820
 Sum of electronic and thermal Enthalpies=            -610.353876
 Sum of electronic and thermal Free Energies=         -610.399407

                     E (Thermal)             CV                S
                      KCal/Mol        Cal/Mol-Kelvin    Cal/Mol-Kelvin
 Total                   88.615             39.458             95.829
 Electronic               0.000              0.000              0.000
 Translational            0.889              2.981             41.370
 Rotational               0.889              2.981             30.904
 Vibrational             86.838             33.496             23.555
 Vibration     1          0.604              1.950              3.469
 Vibration     2          0.615              1.913              2.800
 Vibration     3          0.627              1.874              2.391
 Vibration     4          0.665              1.755              1.699
 Vibration     5          0.669              1.745              1.659
 Vibration     6          0.707              1.633              1.303
 Vibration     7          0.726              1.577              1.171
 Vibration     8          0.730              1.566              1.147
 Vibration     9          0.767              1.468              0.960
 Vibration    10          0.797              1.390              0.837
 Vibration    11          0.806              1.367              0.804
 Vibration    12          0.837              1.292              0.708
 Vibration    13          0.883              1.188              0.592

                           ! Non-Optimized Parameters !
 Normal termination of Gaussian 16 at Tue Dec 26 21:43:43 2023.
