 Q-Chem 5.4, Q-Chem, Inc., Pleasanton, CA (2021)
 Q-Chem 5.4.0 for Intel X86 EM64T Linux

User input:
--------------------------------------------------------------
$molecule
0 1
C                 -1.8343800000     -3.6680070000      1.3154460000
C                 -0.3969950000     -3.9356790000      1.0635920000
C                  0.3918660000     -2.9479400000      0.5967720000
C                 -0.1591390000     -1.5565680000      0.3207750000
C                 -1.5880790000     -1.2933440000      0.5709230000
C                 -2.3603290000     -2.2967220000      1.0385980000
O                 -2.6134670000     -4.5047730000      1.7363710000
O                  0.5776960000     -0.6865950000     -0.0986390000
O                 -3.6682560000     -2.1545510000      1.2969170000
C                 -2.1010260000      0.0865070000      0.2887140000
Br                 0.1843080000     -5.6932080000      1.4390750000
Br                 2.2257970000     -3.1692850000      0.2399470000
H                 -1.5624920000      0.8253420000      0.8882990000
H                 -3.1652340000      0.1561780000      0.5076270000
H                 -1.9319650000      0.3511850000     -0.7584900000
H                 -3.9865580000     -3.0177120000      1.6198250000
$end
$rem
MAX_SCF_CYCLES=200
BASIS  =  6-311++G(d,p)
GUI  =  2
JOB_TYPE  =  SP
METHOD  =  B3LYP
SOLVENT_METHOD = COSMO
$end
$solvent
dielectric 37.219
opticaldielectric 1.43
$end

--------------------------------------------------------------

             Standard Nuclear Orientation (Angstroms)
    I     Atom           X                Y                Z
 ----------------------------------------------------------------
    1      C       0.9970920959    -1.4915815475    -0.0001667223
    2      C      -0.2374275660    -0.6687112197    -0.0002231608
    3      C      -0.1410889595     0.6753757525    -0.0001457489
    4      C       1.2111113612     1.3734093738    -0.0006485396
    5      C       2.4364445247     0.5534776955     0.0004007494
    6      C       2.3172792825    -0.7910136517     0.0001974401
    7      O       0.9965672062    -2.7099129706    -0.0002930269
    8      O       1.2651690700     2.5869839294    -0.0018746257
    9      O       3.3714641358    -1.6194510795     0.0004415256
   10      C       3.7529558282     1.2700970092     0.0006724525
   11      Br     -1.8615431123    -1.6331061223    -0.0001197028
   12      Br     -1.6342085368     1.8200216319     0.0004381163
   13      H       3.8382224254     1.9148171309    -0.8782267287
   14      H       4.5794452877     0.5614288939     0.0051771978
   15      H       3.8341265446     1.9216669288     0.8748236051
   16      H       3.0157107642    -2.5272352969     0.0003716462
 ----------------------------------------------------------------

    9   -5643.2228268718      7.66e-06  Convergence criterion met
 Total energy in the final basis set =    -5643.2228268718
    5   -5643.2361652395      3.81e-06  Convergence criterion met
 Total energy in the final basis set =    -5643.2361652395

                    Orbital Energies (a.u.)
 --------------------------------------------------------------

 Alpha MOs
 -- Occupied --
********-482.8582 -62.5116 -62.5109 -56.3322 -56.3316 -56.3284 -56.3278
-56.3276 -56.3271 -19.1852 -19.1677 -19.1495 -10.3151 -10.3032 -10.2795
-10.2781 -10.2759 -10.2150 -10.1763  -8.7204  -8.7197  -6.5523  -6.5517
 -6.5394  -6.5384  -6.5376  -6.5370  -2.6631  -2.6624  -2.6598  -2.6591
 -2.6586  -2.6580  -2.6481  -2.6481  -2.6473  -2.6472  -1.1208  -1.0860
 -1.0833  -0.9043  -0.8449  -0.8277  -0.7756  -0.7262  -0.6938  -0.6398
 -0.6136  -0.5828  -0.5436  -0.5008  -0.4883  -0.4831  -0.4590  -0.4467
 -0.4421  -0.4351  -0.4268  -0.4032  -0.4021  -0.3932  -0.3760  -0.3303
 -0.3299  -0.3214  -0.3082  -0.2934  -0.2914  -0.2619

          Ground-State Mulliken Net Atomic Charges

     Atom                 Charge (a.u.)
  ----------------------------------------
      1 C                    -0.557807
      2 C                     1.062461
      3 C                    -0.034764
      4 C                    -0.706966
      5 C                     2.132820
      6 C                    -1.823873
      7 O                    -0.256960
      8 O                    -0.238177
      9 O                    -0.245688
     10 C                    -0.098903
     11 Br                   -0.068459
     12 Br                   -0.089017
     13 H                     0.198346
     14 H                     0.202107
     15 H                     0.197945
     16 H                     0.326934
  ----------------------------------------
  Sum of atomic charges =     0.000000

                    Cartesian Multipole Moments
 -----------------------------------------------------------------
    Charge (ESU x 10^10)
                -0.0000
    Dipole Moment (Debye)
         X       0.9265      Y      -1.3490      Z       0.0032
       Tot       1.6365
    Quadrupole Moments (Debye-Ang)
        XX     -86.7886     XY      -2.7829     YY    -105.4658
        XZ       0.0021     YZ       0.0077     ZZ     -92.2603

 Total job time:  26.23s(wall), 187.81s(cpu)
        *  Thank you very much for using Q-Chem.  Have a nice day.  *
