 Gaussian 16, Revision A.03,
 Gaussian 16:  ES64L-G16RevA.03 25-Dec-2016

 --------------------------------------
 #P UB3LYP/6-311++G(d,p) nosym opt freq
 --------------------------------------

 --------
 Oxidized
 --------
 Symbolic Z-matrix:
 Charge =  0 Multiplicity = 1

 SCF Done:  E(UB3LYP) =  -5643.18561394     A.U. after   19 cycles
 SCF Done:  E(UB3LYP) =  -5643.21831874     A.U. after   15 cycles
 SCF Done:  E(UB3LYP) =  -5643.22566318     A.U. after   15 cycles
 SCF Done:  E(UB3LYP) =  -5643.22633781     A.U. after   13 cycles
 SCF Done:  E(UB3LYP) =  -5643.22637421     A.U. after   12 cycles
 SCF Done:  E(UB3LYP) =  -5643.22637922     A.U. after   12 cycles
 SCF Done:  E(UB3LYP) =  -5643.22638202     A.U. after   11 cycles
 SCF Done:  E(UB3LYP) =  -5643.22638250     A.U. after   10 cycles
 SCF Done:  E(UB3LYP) =  -5643.22638285     A.U. after   10 cycles
 SCF Done:  E(UB3LYP) =  -5643.22638314     A.U. after   10 cycles
 SCF Done:  E(UB3LYP) =  -5643.22638352     A.U. after   10 cycles
 SCF Done:  E(UB3LYP) =  -5643.22638392     A.U. after   10 cycles
 SCF Done:  E(UB3LYP) =  -5643.22638424     A.U. after   10 cycles
 SCF Done:  E(UB3LYP) =  -5643.22638452     A.U. after   10 cycles
 SCF Done:  E(UB3LYP) =  -5643.22638475     A.U. after   10 cycles
 SCF Done:  E(UB3LYP) =  -5643.22638483     A.U. after   10 cycles
 Optimization completed.
    -- Stationary point found.
 Normal termination of Gaussian 16 at Thu Jan 25 06:04:23 2024.

 ----------------------------------------------------------------------
 #P Geom=AllCheck Guess=TCheck SCRF=Check GenChk UB3LYP/6-311++G(d,p) F
 req
 ----------------------------------------------------------------------

 Structure from the checkpoint file:  "109.chk"
 --------
 Oxidized
 --------
 Charge =  0 Multiplicity = 1

                          Input orientation:
 ---------------------------------------------------------------------
 Center     Atomic      Atomic             Coordinates (Angstroms)
 Number     Number       Type             X           Y           Z
 ---------------------------------------------------------------------
      1          6           0       -1.834380   -3.668007    1.315446
      2          6           0       -0.396995   -3.935679    1.063592
      3          6           0        0.391866   -2.947940    0.596772
      4          6           0       -0.159139   -1.556568    0.320775
      5          6           0       -1.588079   -1.293344    0.570923
      6          6           0       -2.360329   -2.296722    1.038598
      7          8           0       -2.613467   -4.504773    1.736371
      8          8           0        0.577696   -0.686595   -0.098639
      9          8           0       -3.668256   -2.154551    1.296917
     10          6           0       -2.101026    0.086507    0.288714
     11         35           0        0.184308   -5.693208    1.439075
     12         35           0        2.225797   -3.169285    0.239947
     13          1           0       -1.562492    0.825342    0.888299
     14          1           0       -3.165234    0.156178    0.507627
     15          1           0       -1.931965    0.351185   -0.758490
     16          1           0       -3.986558   -3.017712    1.619825
 ---------------------------------------------------------------------

 SCF Done:  E(UB3LYP) =  -5643.22638483     A.U. after    1 cycles

 Alpha  occ. eigenvalues -- -482.86137-482.86099 -62.51401 -62.51362 -56.33454
 Alpha  occ. eigenvalues --  -56.33422 -56.33069 -56.33020 -56.33003 -56.32969
 Alpha  occ. eigenvalues --  -19.19403 -19.17220 -19.15041 -10.31937 -10.30459
 Alpha  occ. eigenvalues --  -10.28566 -10.28492 -10.28157 -10.22361 -10.18739
 Alpha  occ. eigenvalues --   -8.72371  -8.72331  -6.55569  -6.55545  -6.54273
 Alpha  occ. eigenvalues --   -6.54199  -6.54074  -6.54050  -2.66660  -2.66629
 Alpha  occ. eigenvalues --   -2.66322  -2.66269  -2.66169  -2.66155  -2.65136
 Alpha  occ. eigenvalues --   -2.65132  -2.65083  -2.65081  -1.12843  -1.08976
 Alpha  occ. eigenvalues --   -1.08600  -0.90998  -0.85225  -0.83094  -0.78175
 Alpha  occ. eigenvalues --   -0.73376  -0.70047  -0.64750  -0.62020  -0.58822
 Alpha  occ. eigenvalues --   -0.54966  -0.50347  -0.49608  -0.48282  -0.46077
 Alpha  occ. eigenvalues --   -0.45180  -0.44826  -0.44155  -0.43452  -0.41081
 Alpha  occ. eigenvalues --   -0.41026  -0.40123  -0.37954  -0.33299  -0.33121
 Alpha  occ. eigenvalues --   -0.32490  -0.30856  -0.29602  -0.29370  -0.26953
 Alpha virt. eigenvalues --   -0.15146  -0.05815  -0.04054  -0.01790  -0.01699
 Alpha virt. eigenvalues --   -0.00915   0.00603   0.00702   0.02653   0.03038
 Alpha virt. eigenvalues --    0.03863   0.04316   0.04433   0.05548   0.05838

  Beta  occ. eigenvalues -- -482.86137-482.86099 -62.51401 -62.51362 -56.33454
  Beta  occ. eigenvalues --  -56.33422 -56.33069 -56.33020 -56.33003 -56.32969
  Beta  occ. eigenvalues --  -19.19403 -19.17220 -19.15041 -10.31937 -10.30459
  Beta  occ. eigenvalues --  -10.28566 -10.28492 -10.28157 -10.22361 -10.18739
  Beta  occ. eigenvalues --   -8.72371  -8.72331  -6.55569  -6.55545  -6.54273
  Beta  occ. eigenvalues --   -6.54199  -6.54074  -6.54050  -2.66660  -2.66629
  Beta  occ. eigenvalues --   -2.66322  -2.66269  -2.66169  -2.66155  -2.65136
  Beta  occ. eigenvalues --   -2.65132  -2.65083  -2.65081  -1.12843  -1.08976
  Beta  occ. eigenvalues --   -1.08600  -0.90998  -0.85225  -0.83094  -0.78175
  Beta  occ. eigenvalues --   -0.73376  -0.70047  -0.64750  -0.62020  -0.58822
  Beta  occ. eigenvalues --   -0.54966  -0.50347  -0.49608  -0.48282  -0.46077
  Beta  occ. eigenvalues --   -0.45180  -0.44826  -0.44155  -0.43452  -0.41081
  Beta  occ. eigenvalues --   -0.41026  -0.40123  -0.37954  -0.33299  -0.33121
  Beta  occ. eigenvalues --   -0.32490  -0.30856  -0.29602  -0.29370  -0.26953
  Beta virt. eigenvalues --   -0.15146  -0.05815  -0.04054  -0.01790  -0.01699
  Beta virt. eigenvalues --   -0.00915   0.00603   0.00702   0.02653   0.03038
  Beta virt. eigenvalues --    0.03863   0.04316   0.04433   0.05548   0.05838

 Mulliken charges and spin densities:
               1          2
     1  C   -0.363313  -0.000000
     2  C    0.581268   0.000000
     3  C    0.611894   0.000000
     4  C   -1.738843  -0.000000
     5  C    2.634916  -0.000000
     6  C   -1.868516   0.000000
     7  O   -0.206526   0.000000
     8  O   -0.135075   0.000000
     9  O   -0.201056  -0.000000
    10  C   -0.141410  -0.000000
    11  Br  -0.014868  -0.000000
    12  Br  -0.006311   0.000000
    13  H    0.183754   0.000000
    14  H    0.191419  -0.000000
    15  H    0.183639   0.000000
    16  H    0.289029   0.000000
 Sum of Mulliken charges =  -0.00000  -0.00000

 Dipole moment (field-independent basis, Debye):
    X=             -1.0000    Y=             -0.0593    Z=              0.2442  Tot=              1.0311
 Quadrupole moment (field-independent basis, Debye-Ang):
   XX=            -91.9242   YY=            -96.3274   ZZ=            -93.2591
   XY=             -3.3673   XZ=              1.0223   YZ=              1.9103

  Exact polarizability: 159.229   7.688 160.994 -22.060 -27.320  85.631
 Approx polarizability: 276.047  68.090 275.996 -56.619 -62.195 145.910

                      1                      2                      3
                      A                      A                      A
 Frequencies --     49.1834                60.4664                65.5466
 Red. masses --     16.0924                 3.0531                 1.3405
 Frc consts  --      0.0229                 0.0066                 0.0034
 IR Inten    --      0.5865                 1.6186                 0.6006

                      4                      5                      6
                      A                      A                      A
 Frequencies --    111.1366               130.6786               177.3151
 Red. masses --      5.3038                54.6679                 8.1410
 Frc consts  --      0.0386                 0.5500                 0.1508
 IR Inten    --      0.2791                 0.1337                 1.1256

                      7                      8                      9
                      A                      A                      A
 Frequencies --    178.5405               252.7807               273.4302
 Red. masses --     12.7016                 6.5889                 9.7767
 Frc consts  --      0.2386                 0.2481                 0.4307
 IR Inten    --      0.2885                 0.0145                 1.9229

                     10                     11                     12
                      A                      A                      A
 Frequencies --    300.6980               302.4214               358.8057
 Red. masses --      5.5683                 4.7013                 7.1268
 Frc consts  --      0.2966                 0.2533                 0.5406
 IR Inten    --      0.1859                 3.3997                10.5534

                     13                     14                     15
                      A                      A                      A
 Frequencies --    417.2191               419.6959               497.6535
 Red. masses --     10.9946                 9.7462                11.4392
 Frc consts  --      1.1276                 1.0115                 1.6692
 IR Inten    --      1.5935                25.4456                10.4611

                     16                     17                     18
                      A                      A                      A
 Frequencies --    530.0205               540.2758               614.9583
 Red. masses --      9.3422                 7.0151                 1.0971
 Frc consts  --      1.5463                 1.2065                 0.2444
 IR Inten    --      4.2665                10.3852                87.8102

                     19                     20                     21
                      A                      A                      A
 Frequencies --    709.0384               725.0964               736.4817
 Red. masses --     10.6293                 6.0735                 8.4619
 Frc consts  --      3.1484                 1.8814                 2.7042
 IR Inten    --      0.2978                19.4901                23.1917

                     22                     23                     24
                      A                      A                      A
 Frequencies --    773.7271               827.3295               938.4456
 Red. masses --      8.9849                 8.2254                 3.1552
 Frc consts  --      3.1691                 3.3171                 1.6372
 IR Inten    --     53.1076                24.9813                53.5591

                     25                     26                     27
                      A                      A                      A
 Frequencies --   1030.8086              1049.1130              1109.8615
 Red. masses --      3.5906                 1.4532                 3.0097
 Frc consts  --      2.2479                 0.9424                 2.1843
 IR Inten    --     25.2217                 0.0001                88.2291

                     28                     29                     30
                      A                      A                      A
 Frequencies --   1204.2021              1283.9779              1297.4850
 Red. masses --      9.1711                 2.2750                 8.3187
 Frc consts  --      7.8355                 2.2098                 8.2511
 IR Inten    --    328.6132                25.4890                94.0593

                     31                     32                     33
                      A                      A                      A
 Frequencies --   1385.8087              1419.0827              1478.0725
 Red. masses --      2.0641                 1.3573                 1.0424
 Frc consts  --      2.3355                 1.6105                 1.3418
 IR Inten    --    314.9907                53.4981                10.3232

                     34                     35                     36
                      A                      A                      A
 Frequencies --   1482.1535              1586.7172              1706.2833
 Red. masses --      1.0629                11.5248                10.1006
 Frc consts  --      1.3757                17.0955                17.3260
 IR Inten    --      8.7308               158.6272                 0.9503

                     37                     38                     39
                      A                      A                      A
 Frequencies --   1716.7185              1729.8147              3040.1517
 Red. masses --     12.1553                 9.1644                 1.0376
 Frc consts  --     21.1064                16.1567                 5.6505
 IR Inten    --    490.7720                21.8547                 8.1771

                     40                     41                     42
                      A                      A                      A
 Frequencies --   3087.6504              3141.8090              3639.2255
 Red. masses --      1.0995                 1.1006                 1.0644
 Frc consts  --      6.1762                 6.4009                 8.3058
 IR Inten    --      7.2385                 3.8093               127.9465

 - Thermochemistry -
 -------------------
 Temperature   298.150 Kelvin.  Pressure   1.00000 Atm.
 Atom     1 has atomic number  6 and mass  12.00000

 Molecular mass:   293.85272 amu.
 Principal axes and moments of inertia in atomic units:
                           1         2         3
     Eigenvalues --  3015.628213918.163496922.73038
           X            0.76020   0.61309   0.21500
           Y           -0.64954   0.71017   0.27158
           Z            0.01382  -0.34611   0.93809
 This molecule is an asymmetric top.
 Rotational symmetry number  1.
 Warning -- assumption of classical behavior for rotation
           may cause significant error
 Rotational temperatures (Kelvin)      0.02872     0.02211     0.01251
 Rotational constants (GHZ):           0.59846     0.46061     0.26070
 Zero-point vibrational energy     253488.0 (Joules/Mol)
                                   60.58508 (Kcal/Mol)
 Warning -- explicit consideration of  18 degrees of freedom as
           vibrations may cause significant error
 Vibrational temperatures:     70.76    87.00    94.31   159.90   188.02
          (Kelvin)            255.12   256.88   363.70   393.41   432.64
                              435.12   516.24   600.29   603.85   716.01
                              762.58   777.34   884.79  1020.15  1043.25
                             1059.63  1113.22  1190.34  1350.21  1483.10
                             1509.44  1596.84  1732.58  1847.36  1866.79
                             1993.87  2041.74  2126.62  2132.49  2282.93
                             2454.96  2469.98  2488.82  4374.10  4442.44
                             4520.36  5236.03

 Zero-point correction=                           0.096548 (Hartree/Particle)
 Thermal correction to Energy=                    0.108578
 Thermal correction to Enthalpy=                  0.109523
 Thermal correction to Gibbs Free Energy=         0.055738
 Sum of electronic and zero-point Energies=          -5643.129836
 Sum of electronic and thermal Energies=             -5643.117806
 Sum of electronic and thermal Enthalpies=           -5643.116862
 Sum of electronic and thermal Free Energies=        -5643.170647

                     E (Thermal)             CV                S
                      KCal/Mol        Cal/Mol-Kelvin    Cal/Mol-Kelvin
 Total                   68.134             41.411            113.199
 Electronic               0.000              0.000              0.000
 Translational            0.889              2.981             42.931
 Rotational               0.889              2.981             32.770
 Vibrational             66.357             35.449             37.499
 Vibration     1          0.595              1.978              4.850
 Vibration     2          0.597              1.973              4.442
 Vibration     3          0.597              1.971              4.283
 Vibration     4          0.607              1.940              3.249
 Vibration     5          0.612              1.923              2.936
 Vibration     6          0.628              1.870              2.356
 Vibration     7          0.629              1.869              2.344
 Vibration     8          0.664              1.758              1.711
 Vibration     9          0.676              1.722              1.574
 Vibration    10          0.693              1.672              1.413
 Vibration    11          0.694              1.669              1.403
 Vibration    12          0.734              1.557              1.127
 Vibration    13          0.780              1.433              0.901
 Vibration    14          0.782              1.427              0.893
 Vibration    15          0.853              1.255              0.664
 Vibration    16          0.885              1.184              0.587
 Vibration    17          0.895              1.161              0.565
 Vibration    18          0.974              1.000              0.425

                           ! Non-Optimized Parameters !
 Normal termination of Gaussian 16 at Thu Jan 25 06:12:24 2024.
