 Q-Chem 5.4, Q-Chem, Inc., Pleasanton, CA (2021)
 Q-Chem 5.4.0 for Intel X86 EM64T Linux

User input:
--------------------------------------------------------------
$molecule
-1 2
Br                -1.6227190000      2.5312440000      1.3383520000
C                 -0.7274530000      1.0415630000      0.4890760000
C                 -1.4398090000      0.0212930000     -0.0904960000
C                 -0.7307380000     -1.0469320000     -0.8131740000
O                 -1.3485240000     -1.9668210000     -1.3901890000
C                  0.7216900000     -0.9507750000     -0.7995230000
C                  1.4353370000      0.0482490000     -0.1855520000
C                  0.7244380000      1.1471500000      0.4873960000
O                  1.3404480000      2.0957220000      1.0180050000
C                  2.9224210000      0.1088510000     -0.1490890000
C                  3.6062660000      1.1939090000     -0.7114200000
C                  4.9964580000      1.2609050000     -0.6694050000
C                  5.7312650000      0.2529550000     -0.0453450000
C                  5.0605650000     -0.8223300000      0.5352730000
C                  3.6700810000     -0.8922650000      0.4819940000
Br                 1.6112160000     -2.3448010000     -1.8031830000
C                 -2.9236070000     -0.0907140000     -0.0443870000
C                 -3.6755700000     -0.0991450000     -1.2258090000
C                 -5.0625470000     -0.2164830000     -1.1884220000
C                 -5.7252340000     -0.3484810000      0.0317300000
C                 -4.9857190000     -0.3610470000      1.2133220000
C                 -3.5990010000     -0.2323650000      1.1735340000
H                  3.0386960000      1.9905890000     -1.1754620000
H                  5.5066390000      2.1079990000     -1.1167300000
H                  6.8144890000      0.3080350000     -0.0072650000
H                  5.6195030000     -1.6094050000      1.0313470000
H                  3.1542320000     -1.7310510000      0.9341020000
H                 -3.1633390000     -0.0215390000     -2.1764620000
H                 -5.6263970000     -0.2149310000     -2.1157960000
H                 -6.8057410000     -0.4460730000      0.0606540000
H                 -5.4878520000     -0.4713860000      2.1691900000
H                 -3.0294940000     -0.2419200000      2.0952810000
$end

$rem
BASIS  =  6-311++G(d,p)
GUI  =  2
JOB_TYPE  =  SP
METHOD  =  B3LYP
SCF_CONVERGENCE  = 8
SOLVENT_METHOD = sm12
$end

$smx
solvent dimethylformamide
charges CM5
$end

--------------------------------------------------------------

             Standard Nuclear Orientation (Angstroms)
    I     Atom           X                Y                Z
 ----------------------------------------------------------------
    1      Br     -1.6227190000     2.5312440000     1.3383520000
    2      C      -0.7274530000     1.0415630000     0.4890760000
    3      C      -1.4398090000     0.0212930000    -0.0904960000
    4      C      -0.7307380000    -1.0469320000    -0.8131740000
    5      O      -1.3485240000    -1.9668210000    -1.3901890000
    6      C       0.7216900000    -0.9507750000    -0.7995230000
    7      C       1.4353370000     0.0482490000    -0.1855520000
    8      C       0.7244380000     1.1471500000     0.4873960000
    9      O       1.3404480000     2.0957220000     1.0180050000
   10      C       2.9224210000     0.1088510000    -0.1490890000
   11      C       3.6062660000     1.1939090000    -0.7114200000
   12      C       4.9964580000     1.2609050000    -0.6694050000
   13      C       5.7312650000     0.2529550000    -0.0453450000
   14      C       5.0605650000    -0.8223300000     0.5352730000
   15      C       3.6700810000    -0.8922650000     0.4819940000
   16      Br      1.6112160000    -2.3448010000    -1.8031830000
   17      C      -2.9236070000    -0.0907140000    -0.0443870000
   18      C      -3.6755700000    -0.0991450000    -1.2258090000
   19      C      -5.0625470000    -0.2164830000    -1.1884220000
   20      C      -5.7252340000    -0.3484810000     0.0317300000
   21      C      -4.9857190000    -0.3610470000     1.2133220000
   22      C      -3.5990010000    -0.2323650000     1.1735340000
   23      H       3.0386960000     1.9905890000    -1.1754620000
   24      H       5.5066390000     2.1079990000    -1.1167300000
   25      H       6.8144890000     0.3080350000    -0.0072650000
   26      H       5.6195030000    -1.6094050000     1.0313470000
   27      H       3.1542320000    -1.7310510000     0.9341020000
   28      H      -3.1633390000    -0.0215390000    -2.1764620000
   29      H      -5.6263970000    -0.2149310000    -2.1157960000
   30      H      -6.8057410000    -0.4460730000     0.0606540000
   31      H      -5.4878520000    -0.4713860000     2.1691900000
   32      H      -3.0294940000    -0.2419200000     2.0952810000
 ----------------------------------------------------------------

   18   -5990.9441992068      5.78e-09  Convergence criterion met
 Total energy in the final basis set =    -5991.0280468574

                    Orbital Energies (a.u.)
 --------------------------------------------------------------

 Alpha MOs
 -- Occupied --
********-482.8187 -62.4713 -62.4713 -56.2918 -56.2918 -56.2882 -56.2881
-56.2877 -56.2877 -19.0830 -19.0829 -10.2376 -10.2376 -10.2242 -10.2242
-10.1939 -10.1939 -10.1926 -10.1925 -10.1818 -10.1817 -10.1814 -10.1812
-10.1809 -10.1808 -10.1808 -10.1807 -10.1800 -10.1799  -8.6800  -8.6800
 -6.5112  -6.5112  -6.4991  -6.4990  -6.4977  -6.4977  -2.6223  -2.6221
 -2.6189  -2.6187  -2.6178  -2.6178  -2.6083  -2.6082  -2.6082  -2.6082
 -1.0148  -1.0122  -0.8733  -0.8691  -0.8486  -0.8209  -0.7754  -0.7732
 -0.7549  -0.7539  -0.7529  -0.7109  -0.6775  -0.6409  -0.6147  -0.6139
 -0.6018  -0.5732  -0.5645  -0.5285  -0.5173  -0.5065  -0.4740  -0.4692
 -0.4657  -0.4599  -0.4452  -0.4345  -0.4306  -0.4291  -0.4201  -0.4168
 -0.4042  -0.4000  -0.3877  -0.3845  -0.3739  -0.3656  -0.3583  -0.3547
 -0.3539  -0.3524  -0.3254  -0.3138  -0.2868  -0.2820  -0.2745  -0.2668
 -0.2634  -0.2614  -0.2539  -0.2483  -0.2381  -0.2360  -0.1678

 Beta MOs
 -- Occupied --
********-482.8186 -62.4713 -62.4713 -56.2918 -56.2918 -56.2881 -56.2881
-56.2877 -56.2877 -19.0758 -19.0757 -10.2367 -10.2366 -10.2230 -10.2230
-10.1929 -10.1928 -10.1926 -10.1925 -10.1818 -10.1817 -10.1813 -10.1812
-10.1809 -10.1808 -10.1807 -10.1806 -10.1799 -10.1798  -8.6800  -8.6800
 -6.5113  -6.5112  -6.4990  -6.4989  -6.4977  -6.4977  -2.6224  -2.6222
 -2.6189  -2.6187  -2.6179  -2.6178  -2.6082  -2.6082  -2.6081  -2.6081
 -1.0028  -0.9998  -0.8714  -0.8687  -0.8452  -0.8195  -0.7745  -0.7714
 -0.7543  -0.7538  -0.7521  -0.7091  -0.6694  -0.6391  -0.6144  -0.6137
 -0.6010  -0.5715  -0.5605  -0.5282  -0.5163  -0.5045  -0.4721  -0.4687
 -0.4639  -0.4592  -0.4436  -0.4330  -0.4295  -0.4289  -0.4115  -0.4074
 -0.3995  -0.3971  -0.3829  -0.3738  -0.3640  -0.3639  -0.3555  -0.3539
 -0.3536  -0.3516  -0.3191  -0.2987  -0.2858  -0.2816  -0.2657  -0.2643
 -0.2622  -0.2583  -0.2437  -0.2425  -0.2323  -0.2316

          Ground-State Mulliken Net Atomic Charges

     Atom                 Charge (a.u.)    Spin (a.u.)
  --------------------------------------------------------
      1 Br                    0.065023       0.006642
      2 C                    -0.588872       0.075107
      3 C                     0.600975       0.097782
      4 C                    -2.009037       0.055856
      5 O                    -0.222302       0.268221
      6 C                    -0.593060       0.075043
      7 C                     0.607476       0.098120
      8 C                    -2.007459       0.055570
      9 O                    -0.222106       0.268334
     10 C                     0.637879      -0.046971
     11 C                    -0.552470       0.023907
     12 C                     0.260552      -0.001838
     13 C                     0.515452       0.005157
     14 C                     0.203516      -0.002755
     15 C                    -0.667867       0.020675
     16 Br                    0.065064       0.006616
     17 C                     0.634148      -0.046699
     18 C                    -0.544308       0.024396
     19 C                     0.258663      -0.001913
     20 C                     0.514337       0.005241
     21 C                     0.199976      -0.002821
     22 C                    -0.671798       0.020364
     23 H                     0.152472      -0.001622
     24 H                     0.306494       0.000456
     25 H                     0.318190      -0.000391
     26 H                     0.314519       0.000277
     27 H                     0.166321      -0.000757
     28 H                     0.152191      -0.001585
     29 H                     0.306543       0.000473
     30 H                     0.318094      -0.000392
     31 H                     0.314214       0.000273
     32 H                     0.167182      -0.000766
  --------------------------------------------------------
  Sum of atomic charges =    -1.000000

                    Cartesian Multipole Moments
 -----------------------------------------------------------------
    Charge (ESU x 10^10)
                -4.8032
    Dipole Moment (Debye)
         X       0.0286      Y      -0.3399      Z       0.9437
       Tot       1.0035
    Quadrupole Moments (Debye-Ang)
        XX    -165.0687     XY      -4.7778     YY    -181.4225
        XZ      -2.4206     YZ     -18.5798     ZZ    -162.5623

 Total job time:  1318.22s(wall), 10139.13s(cpu)
        *  Thank you very much for using Q-Chem.  Have a nice day.  *
