 Gaussian 16, Revision A.03,
 Gaussian 16:  ES64L-G16RevA.03 25-Dec-2016

 --------------------------------------
 #P UB3LYP/6-311++G(d,p) nosym opt freq
 --------------------------------------

 -------
 Radical
 -------
 Symbolic Z-matrix:
 Charge = -1 Multiplicity = 2

 SCF Done:  E(UB3LYP) =  -5990.95144953     A.U. after   23 cycles
 Optimization completed.
    -- Stationary point found.
 Normal termination of Gaussian 16 at Sat Jan  6 05:57:00 2024.

 ----------------------------------------------------------------------
 #P Geom=AllCheck Guess=TCheck SCRF=Check GenChk UB3LYP/6-311++G(d,p) F
 req
 ----------------------------------------------------------------------

 Structure from the checkpoint file:  "021-rad.chk"
 -------
 Radical
 -------
 Charge = -1 Multiplicity = 2

                          Input orientation:
 ---------------------------------------------------------------------
 Center     Atomic      Atomic             Coordinates (Angstroms)
 Number     Number       Type             X           Y           Z
 ---------------------------------------------------------------------
      1         35           0       -1.622719    2.531244    1.338352
      2          6           0       -0.727453    1.041563    0.489076
      3          6           0       -1.439809    0.021293   -0.090496
      4          6           0       -0.730738   -1.046932   -0.813174
      5          8           0       -1.348524   -1.966821   -1.390189
      6          6           0        0.721690   -0.950775   -0.799523
      7          6           0        1.435337    0.048249   -0.185552
      8          6           0        0.724438    1.147150    0.487396
      9          8           0        1.340448    2.095722    1.018005
     10          6           0        2.922421    0.108851   -0.149089
     11          6           0        3.606266    1.193909   -0.711420
     12          6           0        4.996458    1.260905   -0.669405
     13          6           0        5.731265    0.252955   -0.045345
     14          6           0        5.060565   -0.822330    0.535273
     15          6           0        3.670081   -0.892265    0.481994
     16         35           0        1.611216   -2.344801   -1.803183
     17          6           0       -2.923607   -0.090714   -0.044387
     18          6           0       -3.675570   -0.099145   -1.225809
     19          6           0       -5.062547   -0.216483   -1.188422
     20          6           0       -5.725234   -0.348481    0.031730
     21          6           0       -4.985719   -0.361047    1.213322
     22          6           0       -3.599001   -0.232365    1.173534
     23          1           0        3.038696    1.990589   -1.175462
     24          1           0        5.506639    2.107999   -1.116730
     25          1           0        6.814489    0.308035   -0.007265
     26          1           0        5.619503   -1.609405    1.031347
     27          1           0        3.154232   -1.731051    0.934102
     28          1           0       -3.163339   -0.021539   -2.176462
     29          1           0       -5.626397   -0.214931   -2.115796
     30          1           0       -6.805741   -0.446073    0.060654
     31          1           0       -5.487852   -0.471386    2.169190
     32          1           0       -3.029494   -0.241920    2.095281
 ---------------------------------------------------------------------

 SCF Done:  E(UB3LYP) =  -5990.95144953     A.U. after    2 cycles

 Alpha  occ. eigenvalues -- -482.70848-482.70848 -62.36128 -62.36128 -56.18153
 Alpha  occ. eigenvalues --  -56.18153 -56.17798 -56.17798 -56.17755 -56.17755
 Alpha  occ. eigenvalues --  -18.96687 -18.96686 -10.12263 -10.12261 -10.11156
 Alpha  occ. eigenvalues --  -10.11155 -10.08665 -10.08664 -10.08309 -10.08308
 Alpha  occ. eigenvalues --  -10.08146 -10.08145 -10.08087 -10.08085 -10.08066
 Alpha  occ. eigenvalues --  -10.08065 -10.07718 -10.07717 -10.07561 -10.07560
 Alpha  occ. eigenvalues --   -8.57095  -8.57095  -6.40202  -6.40202  -6.39012
 Alpha  occ. eigenvalues --   -6.39012  -6.38886  -6.38886  -2.51303  -2.51303
 Alpha  occ. eigenvalues --   -2.50986  -2.50986  -2.50890  -2.50889  -2.49941
 Alpha  occ. eigenvalues --   -2.49941  -2.49939  -2.49939  -0.89896  -0.89598
 Alpha  occ. eigenvalues --   -0.76799  -0.76570  -0.73893  -0.71082  -0.66710
 Alpha  occ. eigenvalues --   -0.66649  -0.65233  -0.65216  -0.64683  -0.60327
 Alpha  occ. eigenvalues --   -0.56413  -0.53528  -0.51258  -0.51203  -0.49899
 Alpha  occ. eigenvalues --   -0.46769  -0.45129  -0.42698  -0.41470  -0.39361
 Alpha  occ. eigenvalues --   -0.36896  -0.36805  -0.36152  -0.35599  -0.34064
 Alpha  occ. eigenvalues --   -0.33071  -0.32877  -0.32811  -0.30716  -0.30316
 Alpha  occ. eigenvalues --   -0.29520  -0.28762  -0.27862  -0.27287  -0.27016
 Alpha  occ. eigenvalues --   -0.25944  -0.25636  -0.25236  -0.25167  -0.24693
 Alpha  occ. eigenvalues --   -0.21483  -0.20142  -0.17994  -0.17505  -0.16512
 Alpha  occ. eigenvalues --   -0.16083  -0.15821  -0.15736  -0.14610  -0.13385
 Alpha  occ. eigenvalues --   -0.12657  -0.12478  -0.05227
 Alpha virt. eigenvalues --    0.06314   0.06765   0.06863   0.08198   0.08244
 Alpha virt. eigenvalues --    0.08369   0.08528   0.08603   0.08793   0.09283
 Alpha virt. eigenvalues --    0.09823   0.10171   0.10877   0.11644   0.11906

  Beta  occ. eigenvalues -- -482.70848-482.70848 -62.36127 -62.36127 -56.18155
  Beta  occ. eigenvalues --  -56.18155 -56.17794 -56.17794 -56.17755 -56.17755
  Beta  occ. eigenvalues --  -18.95963 -18.95962 -10.12177 -10.12175 -10.11025
  Beta  occ. eigenvalues --  -10.11024 -10.08677 -10.08677 -10.08301 -10.08300
  Beta  occ. eigenvalues --  -10.08149 -10.08148 -10.08069 -10.08068 -10.07968
  Beta  occ. eigenvalues --  -10.07967 -10.07706 -10.07705 -10.07549 -10.07548
  Beta  occ. eigenvalues --   -8.57094  -8.57094  -6.40206  -6.40206  -6.39005
  Beta  occ. eigenvalues --   -6.39005  -6.38886  -6.38885  -2.51305  -2.51305
  Beta  occ. eigenvalues --   -2.50984  -2.50983  -2.50892  -2.50892  -2.49937
  Beta  occ. eigenvalues --   -2.49937  -2.49936  -2.49935  -0.88696  -0.88353
  Beta  occ. eigenvalues --   -0.76679  -0.76535  -0.73480  -0.70934  -0.66641
  Beta  occ. eigenvalues --   -0.66491  -0.65214  -0.65203  -0.64538  -0.60125
  Beta  occ. eigenvalues --   -0.55609  -0.53361  -0.51230  -0.51181  -0.49813
  Beta  occ. eigenvalues --   -0.46599  -0.44729  -0.42666  -0.41370  -0.39178
  Beta  occ. eigenvalues --   -0.36754  -0.36753  -0.36028  -0.35528  -0.33883
  Beta  occ. eigenvalues --   -0.32970  -0.32836  -0.32797  -0.29846  -0.29481
  Beta  occ. eigenvalues --   -0.29036  -0.28366  -0.27653  -0.27078  -0.25828
  Beta  occ. eigenvalues --   -0.25721  -0.25208  -0.25102  -0.24553  -0.24414
  Beta  occ. eigenvalues --   -0.20811  -0.18841  -0.17872  -0.17448  -0.16044
  Beta  occ. eigenvalues --   -0.15923  -0.15739  -0.15297  -0.13076  -0.12731
  Beta  occ. eigenvalues --   -0.12147  -0.11849
  Beta virt. eigenvalues --    0.01789   0.06748   0.06849   0.06862   0.08244
  Beta virt. eigenvalues --    0.08335   0.08414   0.08552   0.08607   0.08925
  Beta virt. eigenvalues --    0.09352   0.10026   0.10183   0.11226   0.11913

 Mulliken charges and spin densities:
               1          2
     1  Br  -0.163121   0.004413
     2  C   -0.404492   0.077683
     3  C    1.071962   0.105444
     4  C   -1.229526   0.049346
     5  O   -0.252946   0.269424
     6  C   -0.405320   0.077694
     7  C    1.069692   0.105586
     8  C   -1.230334   0.049341
     9  O   -0.253021   0.269453
    10  C    1.285476  -0.046207
    11  C   -0.073290   0.022355
    12  C   -0.280037  -0.002673
    13  C   -0.348628   0.005148
    14  C   -0.391597  -0.003039
    15  C   -0.526279   0.020314
    16  Br  -0.163118   0.004413
    17  C    1.286175  -0.046055
    18  C   -0.072008   0.022345
    19  C   -0.280180  -0.002674
    20  C   -0.348273   0.005183
    21  C   -0.392085  -0.003062
    22  C   -0.528430   0.020277
    23  H    0.209792  -0.001717
    24  H    0.145802   0.000506
    25  H    0.126796  -0.000438
    26  H    0.146979   0.000287
    27  H    0.185324  -0.000989
    28  H    0.209851  -0.001724
    29  H    0.145798   0.000506
    30  H    0.126812  -0.000440
    31  H    0.146945   0.000288
    32  H    0.185280  -0.000989
 Sum of Mulliken charges =  -1.00000   1.00000

 Dipole moment (field-independent basis, Debye):
    X=              0.0165    Y=             -0.2499    Z=              0.7954  Tot=              0.8339
 Quadrupole moment (field-independent basis, Debye-Ang):
   XX=           -180.9259   YY=           -181.7339   ZZ=           -162.9152
   XY=             -4.6889   XZ=             -1.7529   YZ=            -18.5566

  Exact polarizability: 410.800   5.716 251.526  -5.061  37.026 214.421
 Approx polarizability: 535.986  33.876 450.372  13.237  67.475 380.442

                      1                      2                      3
                      A                      A                      A
 Frequencies --     23.9470                37.8615                43.5671
 Red. masses --      6.7731                 4.3335                 4.1590
 Frc consts  --      0.0023                 0.0037                 0.0047
 IR Inten    --      0.5192                 0.8233                 0.8429

                      4                      5                      6
                      A                      A                      A
 Frequencies --     55.4865                57.6135                65.3279
 Red. masses --     10.9789                 5.8262                10.2205
 Frc consts  --      0.0199                 0.0114                 0.0257
 IR Inten    --      1.9564                 1.2619                 0.0527

                      7                      8                      9
                      A                      A                      A
 Frequencies --     72.7575               131.5081               135.5377
 Red. masses --      8.0617                 8.3300                15.0768
 Frc consts  --      0.0251                 0.0849                 0.1632
 IR Inten    --      0.4711                 2.4249                 0.3958

                     10                     11                     12
                      A                      A                      A
 Frequencies --    163.3299               187.3001               201.3570
 Red. masses --      6.2292                12.2120                 8.1033
 Frc consts  --      0.0979                 0.2524                 0.1936
 IR Inten    --      0.0852                 0.0136                 0.0770

                     13                     14                     15
                      A                      A                      A
 Frequencies --    209.3082               238.5329               281.8476
 Red. masses --      9.5130                 5.7525                 7.0980
 Frc consts  --      0.2456                 0.1928                 0.3322
 IR Inten    --      0.0050                 0.7623                 0.2865

                     16                     17                     18
                      A                      A                      A
 Frequencies --    318.9428               327.6826               330.5056
 Red. masses --      7.1432                 9.7289                11.7740
 Frc consts  --      0.4281                 0.6155                 0.7578
 IR Inten    --      0.0105                 6.4789                 1.4945

                     19                     20                     21
                      A                      A                      A
 Frequencies --    339.0687               413.3159               413.4003
 Red. masses --     10.8399                 2.8855                 2.8856
 Frc consts  --      0.7343                 0.2904                 0.2906
 IR Inten    --      1.6414                 0.0100                 0.0267

                     22                     23                     24
                      A                      A                      A
 Frequencies --    464.3836               481.4951               500.4768
 Red. masses --      6.8981                 7.7872                 5.2423
 Frc consts  --      0.8765                 1.0637                 0.7736
 IR Inten    --      1.2317                 0.9143                 1.2023

                     25                     26                     27
                      A                      A                      A
 Frequencies --    526.6657               567.9513               599.5985
 Red. masses --      4.3352                 7.1940                 7.7451
 Frc consts  --      0.7085                 1.3672                 1.6406
 IR Inten    --      7.0561                64.1946                 4.2903

                     28                     29                     30
                      A                      A                      A
 Frequencies --    633.3936               633.8478               636.3616
 Red. masses --      7.4110                 6.4227                 6.6493
 Frc consts  --      1.7518                 1.5203                 1.5865
 IR Inten    --      0.4754                 0.2966                 1.1555

                     31                     32                     33
                      A                      A                      A
 Frequencies --    701.3371               702.4076               704.3324
 Red. masses --      3.5162                 1.6671                 1.6771
 Frc consts  --      1.0190                 0.4846                 0.4902
 IR Inten    --      6.8009                42.3863                16.7213

                     34                     35                     36
                      A                      A                      A
 Frequencies --    718.9915               733.2436               753.6754
 Red. masses --      5.2601                 8.9196                 3.1073
 Frc consts  --      1.6021                 2.8255                 1.0399
 IR Inten    --     93.2415                 8.2355                 6.4759

                     37                     38                     39
                      A                      A                      A
 Frequencies --    781.3085               795.8258               804.4459
 Red. masses --      4.9035                 4.1424                 4.7109
 Frc consts  --      1.7636                 1.5457                 1.7962
 IR Inten    --      7.8120                 6.6753                 1.2990

                     40                     41                     42
                      A                      A                      A
 Frequencies --    842.9519               843.0352               894.5403
 Red. masses --      1.2517                 1.2529                 4.5516
 Frc consts  --      0.5240                 0.5246                 2.1459
 IR Inten    --      0.7666                 0.0682                71.5159

                     43                     44                     45
                      A                      A                      A
 Frequencies --    919.3287               921.5783               938.4842
 Red. masses --      1.7325                 1.5691                 7.3804
 Frc consts  --      0.8627                 0.7852                 3.8298
 IR Inten    --     25.6232                 2.6014                 0.0360

                     46                     47                     48
                      A                      A                      A
 Frequencies --    971.9003               972.0648               982.3344
 Red. masses --      1.3740                 1.3760                 1.2710
 Frc consts  --      0.7647                 0.7661                 0.7226
 IR Inten    --      0.4207                 0.0519                 0.8031

                     49                     50                     51
                      A                      A                      A
 Frequencies --    983.0179              1016.5070              1016.8235
 Red. masses --      1.2730                 6.2534                 6.2857
 Frc consts  --      0.7247                 3.8070                 3.8291
 IR Inten    --      0.1657                 0.8628                 0.0150

                     52                     53                     54
                      A                      A                      A
 Frequencies --   1045.6486              1050.7118              1080.1435
 Red. masses --      2.7759                 2.1270                 3.1954
 Frc consts  --      1.7883                 1.3835                 2.1965
 IR Inten    --     37.3715                 0.0542                19.6187

                     55                     56                     57
                      A                      A                      A
 Frequencies --   1096.7369              1098.4887              1118.9127
 Red. masses --      1.5986                 1.9733                 7.1717
 Frc consts  --      1.1329                 1.4029                 5.2901
 IR Inten    --     10.9629                15.4733               115.9499

                     58                     59                     60
                      A                      A                      A
 Frequencies --   1174.6737              1174.6861              1200.4872
 Red. masses --      1.1019                 1.1019                 1.1357
 Frc consts  --      0.8959                 0.8959                 0.9643
 IR Inten    --      0.0146                 0.0036                 2.5919

                     61                     62                     63
                      A                      A                      A
 Frequencies --   1200.6687              1228.3896              1244.1928
 Red. masses --      1.1397                 4.5109                 5.0033
 Frc consts  --      0.9680                 4.0104                 4.5633
 IR Inten    --      0.0261                 0.0402                72.6120

                     64                     65                     66
                      A                      A                      A
 Frequencies --   1311.4283              1317.2990              1334.7756
 Red. masses --      4.1603                 4.6018                 8.1408
 Frc consts  --      4.2157                 4.7049                 8.5454
 IR Inten    --      0.1377                 1.4609                 0.0191

                     67                     68                     69
                      A                      A                      A
 Frequencies --   1351.0846              1352.9732              1465.4471
 Red. masses --      1.5139                 1.5868                 2.3888
 Frc consts  --      1.6283                 1.7114                 3.0226
 IR Inten    --      0.3079                 0.9742                 3.5290

                     70                     71                     72
                      A                      A                      A
 Frequencies --   1468.1564              1483.1139              1518.9517
 Red. masses --      2.2037                 4.9880                 2.4714
 Frc consts  --      2.7986                 6.4644                 3.3595
 IR Inten    --      5.0284                31.4390                 0.0127

                     73                     74                     75
                      A                      A                      A
 Frequencies --   1521.3608              1535.9799              1540.8981
 Red. masses --      3.4211                 8.5219                 5.8854
 Frc consts  --      4.6652                11.8456                 8.2333
 IR Inten    --     93.5165                 0.0128               256.4966

                     76                     77                     78
                      A                      A                      A
 Frequencies --   1597.3991              1612.8004              1614.2827
 Red. masses --      9.6628                 5.4975                 5.8743
 Frc consts  --     14.5271                 8.4252                 9.0191
 IR Inten    --      0.3549                 1.2996                 0.2572

                     79                     80                     81
                      A                      A                      A
 Frequencies --   1637.7265              1638.9413              3142.6357
 Red. masses --      5.6476                 5.7081                 1.0840
 Frc consts  --      8.9248                 9.0337                 6.3077
 IR Inten    --     59.9897                 0.0097                 0.2495

                     82                     83                     84
                      A                      A                      A
 Frequencies --   3142.6574              3154.8264              3154.8331
 Red. masses --      1.0840                 1.0889                 1.0889
 Frc consts  --      6.3078                 6.3854                 6.3854
 IR Inten    --      0.0123                13.5443                38.4500

                     85                     86                     87
                      A                      A                      A
 Frequencies --   3168.5056              3168.6550              3184.3300
 Red. masses --      1.0943                 1.0942                 1.0937
 Frc consts  --      6.4728                 6.4731                 6.5343
 IR Inten    --    131.0282                 0.6403                11.0808

                     88                     89                     90
                      A                      A                      A
 Frequencies --   3184.4468              3194.9930              3195.0623
 Red. masses --      1.0937                 1.0934                 1.0934
 Frc consts  --      6.5346                 6.5762                 6.5764
 IR Inten    --     15.6474                 6.4204                 7.1368

 - Thermochemistry -
 -------------------
 Temperature   298.150 Kelvin.  Pressure   1.00000 Atm.
 Atom     1 has atomic number 35 and mass  78.91834

 Molecular mass:   415.90475 amu.
 Principal axes and moments of inertia in atomic units:
                           1         2         3
     Eigenvalues --  5838.25276********************
           X            0.97107   0.23645   0.03325
           Y           -0.18422   0.83050  -0.52567
           Z           -0.15191   0.50434   0.85004
 This molecule is an asymmetric top.
 Rotational symmetry number  1.
 Warning -- assumption of classical behavior for rotation
           may cause significant error
 Rotational temperatures (Kelvin)      0.01484     0.00620     0.00460
 Rotational constants (GHZ):           0.30912     0.12911     0.09592
 Zero-point vibrational energy     584960.8 (Joules/Mol)
                                  139.80899 (Kcal/Mol)
 Warning -- explicit consideration of  27 degrees of freedom as
           vibrations may cause significant error
 Vibrational temperatures:     34.45    54.47    62.68    79.83    82.89
          (Kelvin)             93.99   104.68   189.21   195.01   235.00
                              269.48   289.71   301.15   343.20   405.52
                              458.89   471.46   475.52   487.84   594.67
                              594.79   668.14   692.76   720.07   757.75
                              817.16   862.69   911.31   911.97   915.58
                             1009.07  1010.61  1013.38  1034.47  1054.97
                             1084.37  1124.13  1145.02  1157.42  1212.82
                             1212.94  1287.04  1322.71  1325.95  1350.27
                             1398.35  1398.58  1413.36  1414.34  1462.53
                             1462.98  1504.46  1511.74  1554.09  1577.96
                             1580.48  1609.87  1690.09  1690.11  1727.23
                             1727.49  1767.38  1790.12  1886.85  1895.30
                             1920.44  1943.91  1946.63  2108.45  2112.35
                             2133.87  2185.43  2188.90  2209.93  2217.01
                             2298.30  2320.46  2322.59  2356.32  2358.07
                             4521.55  4521.58  4539.09  4539.10  4558.77
                             4558.99  4581.54  4581.71  4596.88  4596.98

 Zero-point correction=                           0.222800 (Hartree/Particle)
 Thermal correction to Energy=                    0.241678
 Thermal correction to Enthalpy=                  0.242622
 Thermal correction to Gibbs Free Energy=         0.171461
 Sum of electronic and zero-point Energies=          -5990.728650
 Sum of electronic and thermal Energies=             -5990.709772
 Sum of electronic and thermal Enthalpies=           -5990.708827
 Sum of electronic and thermal Free Energies=        -5990.779988

                     E (Thermal)             CV                S
                      KCal/Mol        Cal/Mol-Kelvin    Cal/Mol-Kelvin
 Total                  151.655             70.525            149.771
 Electronic               0.000              0.000              1.377
 Translational            0.889              2.981             43.967
 Rotational               0.889              2.981             35.683
 Vibrational            149.878             64.564             68.743
 Vibration     1          0.593              1.985              6.277
 Vibration     2          0.594              1.982              5.368
 Vibration     3          0.595              1.980              5.090
 Vibration     4          0.596              1.975              4.612
 Vibration     5          0.596              1.974              4.537
 Vibration     6          0.597              1.971              4.289
 Vibration     7          0.599              1.967              4.077
 Vibration     8          0.612              1.922              2.924
 Vibration     9          0.613              1.918              2.866
 Vibration    10          0.623              1.887              2.511
 Vibration    11          0.632              1.857              2.254
 Vibration    12          0.638              1.838              2.121
 Vibration    13          0.642              1.827              2.050
 Vibration    14          0.657              1.782              1.814
 Vibration    15          0.681              1.707              1.522
 Vibration    16          0.705              1.637              1.316
 Vibration    17          0.711              1.620              1.271
 Vibration    18          0.713              1.615              1.258
 Vibration    19          0.719              1.597              1.217
 Vibration    20          0.777              1.441              0.915
 Vibration    21          0.777              1.441              0.915
 Vibration    22          0.822              1.329              0.753
 Vibration    23          0.838              1.291              0.706
 Vibration    24          0.856              1.249              0.657
 Vibration    25          0.882              1.191              0.595
 Vibration    26          0.924              1.101              0.508
 Vibration    27          0.958              1.033              0.450

                           ! Non-Optimized Parameters !
 Normal termination of Gaussian 16 at Sat Jan  6 08:15:12 2024.
