 Q-Chem 5.4, Q-Chem, Inc., Pleasanton, CA (2021)
 Q-Chem 5.4.0 for Intel X86 EM64T Linux

User input:
--------------------------------------------------------------
$molecule
-2 1
C                  2.8116100000     -0.4061810000      0.4152590000
O                  1.6484480000      0.2966420000      0.8181500000
C                  0.4544430000     -0.3204880000      0.4312410000
C                 -0.3913240000      0.3887380000     -0.4378800000
O                  0.0928130000      1.5841080000     -0.9790850000
C                 -0.6638360000      2.7250300000     -0.6118210000
C                 -1.6894900000     -0.0885490000     -0.8415670000
O                 -2.4713220000      0.5656480000     -1.6474560000
C                 -2.0165730000     -1.3598080000     -0.2752020000
C                 -1.1655390000     -2.0762110000      0.5667400000
C                  0.1185620000     -1.6074540000      0.9852160000
O                  0.8988960000     -2.2628700000      1.7916700000
H                  2.9040750000     -0.4144550000     -0.6840020000
H                  3.6720840000      0.1347610000      0.8317770000
H                  2.7887580000     -1.4310080000      0.7999930000
H                 -0.2312970000      3.5811470000     -1.1470910000
H                 -0.5852960000      2.9158040000      0.4718760000
H                 -1.7127180000      2.5935170000     -0.8971020000
H                 -2.9847840000     -1.7759950000     -0.5554520000
H                 -1.4775100000     -3.0423760000      0.9647360000
$end
$rem
MAX_SCF_CYCLES=200
BASIS  =  6-311++G(d,p)
GUI  =  2
JOB_TYPE  =  SP
METHOD  =  B3LYP
SOLVENT_METHOD = PCM
$end
$pcm
theory = CPCM
$end
$solvent
dielectric 37.219
opticaldielectric 1.43
$end

--------------------------------------------------------------

             Standard Nuclear Orientation (Angstroms)
    I     Atom           X                Y                Z
 ----------------------------------------------------------------
    1      C       2.8116100000    -0.4061810000     0.4152590000
    2      O       1.6484480000     0.2966420000     0.8181500000
    3      C       0.4544430000    -0.3204880000     0.4312410000
    4      C      -0.3913240000     0.3887380000    -0.4378800000
    5      O       0.0928130000     1.5841080000    -0.9790850000
    6      C      -0.6638360000     2.7250300000    -0.6118210000
    7      C      -1.6894900000    -0.0885490000    -0.8415670000
    8      O      -2.4713220000     0.5656480000    -1.6474560000
    9      C      -2.0165730000    -1.3598080000    -0.2752020000
   10      C      -1.1655390000    -2.0762110000     0.5667400000
   11      C       0.1185620000    -1.6074540000     0.9852160000
   12      O       0.8988960000    -2.2628700000     1.7916700000
   13      H       2.9040750000    -0.4144550000    -0.6840020000
   14      H       3.6720840000     0.1347610000     0.8317770000
   15      H       2.7887580000    -1.4310080000     0.7999930000
   16      H      -0.2312970000     3.5811470000    -1.1470910000
   17      H      -0.5852960000     2.9158040000     0.4718760000
   18      H      -1.7127180000     2.5935170000    -0.8971020000
   19      H      -2.9847840000    -1.7759950000    -0.5554520000
   20      H      -1.4775100000    -3.0423760000     0.9647360000
 ----------------------------------------------------------------

    9    -610.9397578044      6.72e-06  Convergence criterion met
 Total energy in the final basis set =     -610.9397578044

                    Orbital Energies (a.u.)
 --------------------------------------------------------------

 Alpha MOs
 -- Occupied --
-19.1133 -19.1132 -19.0165 -19.0165 -10.1898 -10.1898 -10.1764 -10.1759
-10.1698 -10.1697 -10.1211 -10.1205  -1.0323  -1.0147  -0.9271  -0.9246
 -0.7779  -0.7127  -0.6810  -0.6394  -0.6351  -0.5549  -0.5362  -0.4788
 -0.4658  -0.4474  -0.4430  -0.4255  -0.4220  -0.4050  -0.3970  -0.3629
 -0.3519  -0.3452  -0.3376  -0.3262  -0.3175  -0.3108  -0.2624  -0.2607
 -0.2249  -0.1984  -0.1950  -0.1944  -0.1193

          Ground-State Mulliken Net Atomic Charges

     Atom                 Charge (a.u.)
  ----------------------------------------
      1 C                    -0.256199
      2 O                    -0.237202
      3 C                    -0.045490
      4 C                    -0.054469
      5 O                    -0.235192
      6 C                    -0.256742
      7 C                    -0.234805
      8 O                    -0.754049
      9 C                    -0.051311
     10 C                    -0.051234
     11 C                    -0.233576
     12 O                    -0.754928
     13 H                     0.127965
     14 H                     0.143984
     15 H                     0.168389
     16 H                     0.143839
     17 H                     0.127884
     18 H                     0.169053
     19 H                     0.142080
     20 H                     0.142003
  ----------------------------------------
  Sum of atomic charges =    -2.000000

                    Cartesian Multipole Moments
 -----------------------------------------------------------------
    Charge (ESU x 10^10)
                -9.6064
    Dipole Moment (Debye)
         X       6.1429      Y       6.6346      Z      -0.5612
       Tot       9.0591
    Quadrupole Moments (Debye-Ang)
        XX    -105.0018     XY       7.3096     YY    -100.1111
        XZ     -22.6722     YZ      20.0257     ZZ    -106.5247

 Total job time:  29.72s(wall), 152.45s(cpu)
        *  Thank you very much for using Q-Chem.  Have a nice day.  *
