 Gaussian 16, Revision A.03,
 Gaussian 16:  ES64L-G16RevA.03 25-Dec-2016

 ----------------------------------------------------------------------
 #P UB3LYP/6-311++G(d,p) nosym opt freq SCRF=(PCM,Solvent=n,n-DiMethylF
 ormamide)
 ----------------------------------------------------------------------

 -------
 Radical
 -------
 Symbolic Z-matrix:
 Charge = -1 Multiplicity = 2

 SCF Done:  E(UB3LYP) =  -972.954472390     A.U. after   22 cycles
 SCF Done:  E(UB3LYP) =  -972.954751567     A.U. after   14 cycles
 SCF Done:  E(UB3LYP) =  -972.954796920     A.U. after   14 cycles
 SCF Done:  E(UB3LYP) =  -972.954799968     A.U. after   13 cycles
 SCF Done:  E(UB3LYP) =  -972.954799957     A.U. after   12 cycles
 SCF Done:  E(UB3LYP) =  -972.954801907     A.U. after   12 cycles
 Optimization completed.
    -- Stationary point found.
 Normal termination of Gaussian 16 at Sun Feb 11 01:40:35 2024.

 ----------------------------------------------------------------------
 #P Geom=AllCheck Guess=TCheck SCRF=Check GenChk UB3LYP/6-311++G(d,p) F
 req
 ----------------------------------------------------------------------

 Structure from the checkpoint file:  "276-rad.chk"
 -------
 Radical
 -------
 Charge = -1 Multiplicity = 2

                          Input orientation:
 ---------------------------------------------------------------------
 Center     Atomic      Atomic             Coordinates (Angstroms)
 Number     Number       Type             X           Y           Z
 ---------------------------------------------------------------------
      1          6           0        4.264661   -0.003319   -0.155668
      2         16           0        3.033993   -1.340023   -0.309289
      3          6           0        1.481940   -0.482445   -0.132475
      4          6           0        1.358308    0.880590    0.066315
      5          6           0        0.092461    1.536141    0.203688
      6          8           0        0.002395    2.787121    0.384641
      7          6           0       -1.103913    0.681755    0.124509
      8          6           0       -2.387898    1.245895    0.249115
      9          6           0       -3.524425    0.458222    0.179203
     10          6           0       -3.403255   -0.929840   -0.018401
     11          6           0       -2.150739   -1.504486   -0.144010
     12          6           0       -0.980567   -0.719232   -0.077431
     13          6           0        0.333119   -1.356934   -0.217352
     14          8           0        0.461552   -2.603013   -0.402345
     15          1           0        4.152935    0.736303   -0.948893
     16          1           0        5.234652   -0.490416   -0.258167
     17          1           0        4.210776    0.479435    0.820471
     18          1           0        2.230088    1.520449    0.127459
     19          1           0       -2.463061    2.316052    0.401390
     20          1           0       -4.506384    0.908343    0.276796
     21          1           0       -4.292472   -1.548723   -0.072146
     22          1           0       -2.044168   -2.571879   -0.295548
 ---------------------------------------------------------------------

 SCF Done:  E(UB3LYP) =  -972.954801907     A.U. after    1 cycles

 Alpha  occ. eigenvalues --  -88.85118 -19.08004 -19.07515 -10.22661 -10.22392
 Alpha  occ. eigenvalues --  -10.20012 -10.19232 -10.17642 -10.17458 -10.17405
 Alpha  occ. eigenvalues --  -10.17340 -10.17160 -10.17139 -10.16276  -7.93671
 Alpha  occ. eigenvalues --   -5.90055  -5.89649  -5.89121  -1.00296  -0.99574
 Alpha  occ. eigenvalues --   -0.86010  -0.82644  -0.77888  -0.75150  -0.73504
 Alpha  occ. eigenvalues --   -0.68793  -0.64696  -0.61868  -0.58944  -0.55804
 Alpha  occ. eigenvalues --   -0.51064  -0.49812  -0.47042  -0.45737  -0.43370
 Alpha  occ. eigenvalues --   -0.43289  -0.42729  -0.41739  -0.41589  -0.40447
 Alpha  occ. eigenvalues --   -0.39339  -0.38269  -0.37902  -0.35547  -0.34995
 Alpha  occ. eigenvalues --   -0.34147  -0.32527  -0.29853  -0.26270  -0.25783
 Alpha  occ. eigenvalues --   -0.24795  -0.23928  -0.22397  -0.15336
 Alpha virt. eigenvalues --   -0.03541  -0.01740  -0.00377   0.00224   0.01429
 Alpha virt. eigenvalues --    0.02002   0.02487   0.03320   0.04064   0.04495
 Alpha virt. eigenvalues --    0.04787   0.05093   0.05836   0.05871   0.06334

  Beta  occ. eigenvalues --  -88.85103 -19.07375 -19.06930 -10.22454 -10.22257
  Beta  occ. eigenvalues --  -10.19847 -10.19234 -10.17613 -10.17390 -10.17385
  Beta  occ. eigenvalues --  -10.17294 -10.17146 -10.17137 -10.16167  -7.93657
  Beta  occ. eigenvalues --   -5.90049  -5.89644  -5.89068  -0.99187  -0.98539
  Beta  occ. eigenvalues --   -0.85785  -0.82294  -0.77643  -0.74965  -0.73334
  Beta  occ. eigenvalues --   -0.68096  -0.64349  -0.61687  -0.58687  -0.55538
  Beta  occ. eigenvalues --   -0.50849  -0.49533  -0.46766  -0.45656  -0.43301
  Beta  occ. eigenvalues --   -0.43078  -0.42666  -0.41144  -0.40435  -0.40088
  Beta  occ. eigenvalues --   -0.39057  -0.38151  -0.35452  -0.34848  -0.34717
  Beta  occ. eigenvalues --   -0.34056  -0.32389  -0.28228  -0.25152  -0.24769
  Beta  occ. eigenvalues --   -0.24219  -0.23388  -0.21509
  Beta virt. eigenvalues --   -0.08857  -0.02778  -0.00655  -0.00359   0.00230
  Beta virt. eigenvalues --    0.01448   0.02027   0.02497   0.03380   0.04078
  Beta virt. eigenvalues --    0.04810   0.05127   0.05361   0.05903   0.06337

 Mulliken charges and spin densities:
               1          2
     1  C   -0.485567   0.001634
     2  S   -0.621746   0.030737
     3  C    0.980031   0.104099
     4  C    0.518953   0.078807
     5  C   -0.477375   0.082028
     6  O   -0.493694   0.210139
     7  C    0.438360   0.052607
     8  C    0.201463   0.016094
     9  C   -0.376865   0.040320
    10  C   -0.411208   0.011196
    11  C    0.297956   0.049124
    12  C   -0.005633  -0.015150
    13  C   -1.595111   0.120614
    14  O   -0.435435   0.234186
    15  H    0.189316   0.000212
    16  H    0.196857  -0.000231
    17  H    0.189444   0.000237
    18  H    0.194505  -0.007726
    19  H    0.161074  -0.001589
    20  H    0.184376  -0.002946
    21  H    0.180636  -0.001217
    22  H    0.169662  -0.003176
 Sum of Mulliken charges =  -1.00000   1.00000

 Dipole moment (field-independent basis, Debye):
    X=             -0.6588    Y=              0.9924    Z=              0.2390  Tot=              1.2149
 Quadrupole moment (field-independent basis, Debye-Ang):
   XX=            -81.2882   YY=           -131.3675   ZZ=            -96.4795
   XY=              9.0237   XZ=              0.8159   YZ=             -5.4623

  Exact polarizability: 355.191 -20.544 311.888 -11.046  27.030 131.305
 Approx polarizability: 357.571 -19.888 372.716 -10.485  33.370 148.070

                      1                      2                      3
                      A                      A                      A
 Frequencies --     50.5388                98.0591               133.8381
 Red. masses --      4.1942                 5.7804                 4.4842
 Frc consts  --      0.0063                 0.0327                 0.0473
 IR Inten    --     15.1165                 0.7800                 2.2528

                      4                      5                      6
                      A                      A                      A
 Frequencies --    156.4319               161.3904               206.3350
 Red. masses --      5.7603                 4.5420                 2.0718
 Frc consts  --      0.0831                 0.0697                 0.0520
 IR Inten    --      6.8007                 6.6331                 0.0675

                      7                      8                      9
                      A                      A                      A
 Frequencies --    239.6605               251.0155               273.2544
 Red. masses --      1.6224                 4.6092                 7.3825
 Frc consts  --      0.0549                 0.1711                 0.3248
 IR Inten    --      0.3852                 8.2445                 2.1826

                     10                     11                     12
                      A                      A                      A
 Frequencies --    358.9723               367.2315               382.6385
 Red. masses --      8.7519                10.0182                 5.9252
 Frc consts  --      0.6645                 0.7960                 0.5111
 IR Inten    --      0.1125                36.7285                 0.1316

                     13                     14                     15
                      A                      A                      A
 Frequencies --    441.8971               471.1313               494.5428
 Red. masses --      3.5829                10.1364                 4.0093
 Frc consts  --      0.4122                 1.3256                 0.5777
 IR Inten    --      2.9858                 2.5615                 0.3470

                     16                     17                     18
                      A                      A                      A
 Frequencies --    508.9685               607.7490               656.9311
 Red. masses --      8.9447                 7.4308                 3.2223
 Frc consts  --      1.3652                 1.6171                 0.8193
 IR Inten    --      4.3535                25.6894                 6.4898

                     19                     20                     21
                      A                      A                      A
 Frequencies --    662.1036               698.4598               706.2124
 Red. masses --      5.9209                 3.7183                 6.1161
 Frc consts  --      1.5293                 1.0688                 1.7972
 IR Inten    --      1.2035                36.9295                 2.7155

                     22                     23                     24
                      A                      A                      A
 Frequencies --    724.4477               780.2846               793.3319
 Red. masses --      6.3595                 1.5732                 3.7859
 Frc consts  --      1.9665                 0.5644                 1.4039
 IR Inten    --     11.6382                87.1765                11.1190

                     25                     26                     27
                      A                      A                      A
 Frequencies --    827.9628               846.9593               856.3614
 Red. masses --      4.9563                 1.5838                 8.7253
 Frc consts  --      2.0018                 0.6694                 3.7700
 IR Inten    --     24.2637                30.7450               174.9163

                     28                     29                     30
                      A                      A                      A
 Frequencies --    890.3283               970.3707               987.8243
 Red. masses --      1.4440                 1.1902                 1.3692
 Frc consts  --      0.6744                 0.6603                 0.7872
 IR Inten    --      0.0202                 7.7778                 2.7445

                     31                     32                     33
                      A                      A                      A
 Frequencies --    990.7768              1003.3220              1035.7493
 Red. masses --      1.3105                 1.2878                 2.3775
 Frc consts  --      0.7580                 0.7638                 1.5027
 IR Inten    --      2.6366                 0.0117                21.9112

                     34                     35                     36
                      A                      A                      A
 Frequencies --   1093.0473              1105.3775              1145.2375
 Red. masses --      3.2484                 3.0553                 1.6019
 Frc consts  --      2.2866                 2.1995                 1.2379
 IR Inten    --     16.4245                26.2047                89.3029

                     37                     38                     39
                      A                      A                      A
 Frequencies --   1161.1832              1226.3736              1243.6974
 Red. masses --      1.3977                 2.1246                 2.5821
 Frc consts  --      1.1104                 1.8826                 2.3532
 IR Inten    --      8.8273                76.0519                72.1092

                     40                     41                     42
                      A                      A                      A
 Frequencies --   1291.7109              1351.1806              1355.8516
 Red. masses --      1.7750                 9.7019                 1.1638
 Frc consts  --      1.7449                10.4360                 1.2606
 IR Inten    --     10.3304                 6.2926                11.2180

                     43                     44                     45
                      A                      A                      A
 Frequencies --   1385.9135              1453.9047              1458.6999
 Red. masses --      3.4163                 4.5010                 1.0511
 Frc consts  --      3.8662                 5.6057                 1.3178
 IR Inten    --    114.0527               694.7146                13.5275

                     46                     47                     48
                      A                      A                      A
 Frequencies --   1462.3390              1475.6070              1479.4326
 Red. masses --      2.7167                 1.2297                 3.5582
 Frc consts  --      3.4228                 1.5776                 4.5886
 IR Inten    --    194.7436                13.6893                77.6037

                     49                     50                     51
                      A                      A                      A
 Frequencies --   1508.5690              1543.1180              1606.4418
 Red. masses --      4.3044                 4.7514                 7.5632
 Frc consts  --      5.7715                 6.6661                11.4997
 IR Inten    --   1038.5416                47.8479                44.1549

                     52                     53                     54
                      A                      A                      A
 Frequencies --   1628.2711              3041.3477              3124.6285
 Red. masses --      5.9301                 1.0296                 1.1080
 Frc consts  --      9.2633                 5.6112                 6.3738
 IR Inten    --     15.0004                37.9065                13.6312

                     55                     56                     57
                      A                      A                      A
 Frequencies --   3133.1100              3159.4016              3172.9932
 Red. masses --      1.1037                 1.0860                 1.0900
 Frc consts  --      6.3835                 6.3867                 6.4656
 IR Inten    --      8.4747                 9.0233                19.0735

                     58                     59                     60
                      A                      A                      A
 Frequencies --   3183.7751              3186.7841              3190.9409
 Red. masses --      1.0885                 1.0922                 1.0948
 Frc consts  --      6.5005                 6.5353                 6.5678
 IR Inten    --     17.5436                21.2177                38.5490

 - Thermochemistry -
 -------------------
 Temperature   298.150 Kelvin.  Pressure   1.00000 Atm.
 Atom     1 has atomic number  6 and mass  12.00000

 Molecular mass:   204.02450 amu.
 Principal axes and moments of inertia in atomic units:
                           1         2         3
     Eigenvalues --  1517.696124065.094255571.26100
           X            0.98528   0.16735   0.03497
           Y           -0.16093   0.97688  -0.14075
           Z           -0.05772   0.13305   0.98943
 This molecule is an asymmetric top.
 Rotational symmetry number  1.
 Warning -- assumption of classical behavior for rotation
           may cause significant error
 Rotational temperatures (Kelvin)      0.05707     0.02131     0.01555
 Rotational constants (GHZ):           1.18913     0.44396     0.32394
 Zero-point vibrational energy     417520.7 (Joules/Mol)
                                   99.78985 (Kcal/Mol)
 Warning -- explicit consideration of  17 degrees of freedom as
           vibrations may cause significant error
 Vibrational temperatures:     72.71   141.09   192.56   225.07   232.20
          (Kelvin)            296.87   344.82   361.16   393.15   516.48
                              528.36   550.53   635.79   677.85   711.54
                              732.29   874.42   945.18   952.62  1004.93
                             1016.08  1042.32  1122.66  1141.43  1191.25
                             1218.59  1232.11  1280.98  1396.15  1421.26
                             1425.51  1443.56  1490.21  1572.65  1590.39
                             1647.74  1670.68  1764.48  1789.40  1858.48
                             1944.05  1950.77  1994.02  2091.84  2098.74
                             2103.98  2123.07  2128.57  2170.49  2220.20
                             2311.31  2342.72  4375.82  4495.64  4507.85
                             4545.67  4565.23  4580.74  4585.07  4591.05

 Zero-point correction=                           0.159025 (Hartree/Particle)
 Thermal correction to Energy=                    0.170883
 Thermal correction to Enthalpy=                  0.171827
 Thermal correction to Gibbs Free Energy=         0.120117
 Sum of electronic and zero-point Energies=           -972.795777
 Sum of electronic and thermal Energies=              -972.783919
 Sum of electronic and thermal Enthalpies=            -972.782975
 Sum of electronic and thermal Free Energies=         -972.834684

                     E (Thermal)             CV                S
                      KCal/Mol        Cal/Mol-Kelvin    Cal/Mol-Kelvin
 Total                  107.231             45.821            108.833
 Electronic               0.000              0.000              1.377
 Translational            0.889              2.981             41.844
 Rotational               0.889              2.981             31.908
 Vibrational            105.453             39.859             33.704
 Vibration     1          0.595              1.977              4.796
 Vibration     2          0.603              1.951              3.493
 Vibration     3          0.613              1.920              2.890
 Vibration     4          0.620              1.895              2.592
 Vibration     5          0.622              1.890              2.533
 Vibration     6          0.641              1.831              2.076
 Vibration     7          0.657              1.780              1.805
 Vibration     8          0.663              1.761              1.723
 Vibration     9          0.676              1.723              1.576
 Vibration    10          0.734              1.557              1.127
 Vibration    11          0.740              1.540              1.091
 Vibration    12          0.752              1.507              1.029
 Vibration    13          0.802              1.379              0.821
 Vibration    14          0.828              1.314              0.734
 Vibration    15          0.850              1.262              0.672
 Vibration    16          0.864              1.230              0.636
 Vibration    17          0.967              1.015              0.437

 Optimization completed.
    -- Stationary point found.
 Normal termination of Gaussian 16 at Sun Feb 11 02:16:51 2024.
