 Q-Chem 5.4, Q-Chem, Inc., Pleasanton, CA (2021)
 Q-Chem 5.4.0 for Intel X86 EM64T Linux

User input:
--------------------------------------------------------------
$molecule
0 1
C                  5.9185980000     -5.2161530000      1.0702950000
C                  6.7932460000     -5.0767610000     -0.0024560000
C                  6.5647820000     -4.0977170000     -0.9716780000
C                  4.8089460000     -4.3748170000      1.1785850000
C                  4.5795520000     -3.3916600000      0.2053270000
C                  5.4613790000     -3.2567220000     -0.8694140000
C                  3.8861660000     -4.5421550000      2.3351060000
C                  2.7072990000     -3.6129120000      2.4069370000
C                  2.4862860000     -2.6654140000      1.4690950000
C                  3.4052140000     -2.4805880000      0.2944470000
O                  4.0648210000     -5.3859690000      3.1878040000
O                  3.1872180000     -1.6238960000     -0.5359680000
H                  6.0772580000     -5.9686560000      1.8325990000
H                  7.6537660000     -5.7305880000     -0.0846730000
H                  5.2657660000     -2.4911650000     -1.6098150000
Cl                 1.6657180000     -3.8422050000      3.7623040000
H                  7.2479180000     -3.9913990000     -1.8064030000
Cl                 1.1402190000     -1.5890260000      1.5322060000
$end
$rem
MAX_SCF_CYCLES=200
BASIS  =  6-311++G(d,p)
GUI  =  2
JOB_TYPE  =  SP
METHOD  =  B3LYP
SOLVENT_METHOD = PCM
$end
$pcm
theory = CPCM
$end
$solvent
dielectric 37.219
opticaldielectric 1.43
$end

--------------------------------------------------------------

             Standard Nuclear Orientation (Angstroms)
    I     Atom           X                Y                Z
 ----------------------------------------------------------------
    1      C       5.9185980000    -5.2161530000     1.0702950000
    2      C       6.7932460000    -5.0767610000    -0.0024560000
    3      C       6.5647820000    -4.0977170000    -0.9716780000
    4      C       4.8089460000    -4.3748170000     1.1785850000
    5      C       4.5795520000    -3.3916600000     0.2053270000
    6      C       5.4613790000    -3.2567220000    -0.8694140000
    7      C       3.8861660000    -4.5421550000     2.3351060000
    8      C       2.7072990000    -3.6129120000     2.4069370000
    9      C       2.4862860000    -2.6654140000     1.4690950000
   10      C       3.4052140000    -2.4805880000     0.2944470000
   11      O       4.0648210000    -5.3859690000     3.1878040000
   12      O       3.1872180000    -1.6238960000    -0.5359680000
   13      H       6.0772580000    -5.9686560000     1.8325990000
   14      H       7.6537660000    -5.7305880000    -0.0846730000
   15      H       5.2657660000    -2.4911650000    -1.6098150000
   16      Cl      1.6657180000    -3.8422050000     3.7623040000
   17      H       7.2479180000    -3.9913990000    -1.8064030000
   18      Cl      1.1402190000    -1.5890260000     1.5322060000
 ----------------------------------------------------------------

    8   -1454.5060455553      7.35e-06  Convergence criterion met
 Total energy in the final basis set =    -1454.5060455553

                    Orbital Energies (a.u.)
 --------------------------------------------------------------

 Alpha MOs
 -- Occupied --
********-101.5849 -19.1504 -19.1504 -10.3051 -10.3051 -10.2836 -10.2829
-10.2182 -10.2176 -10.2038 -10.2038 -10.2022 -10.2016  -9.4995  -9.4995
 -7.2644  -7.2644  -7.2546  -7.2546  -7.2535  -7.2534  -1.0892  -1.0872
 -0.9378  -0.8962  -0.8845  -0.8236  -0.7863  -0.7677  -0.7055  -0.6565
 -0.6417  -0.6028  -0.5703  -0.5379  -0.5159  -0.4967  -0.4782  -0.4777
 -0.4687  -0.4592  -0.4567  -0.4528  -0.4392  -0.4093  -0.3918  -0.3807
 -0.3769  -0.3634  -0.3549  -0.3330  -0.3074  -0.2994  -0.2968  -0.2848
 -0.2795

          Ground-State Mulliken Net Atomic Charges

     Atom                 Charge (a.u.)
  ----------------------------------------
      1 C                     0.073068
      2 C                    -0.422045
      3 C                    -0.421720
      4 C                     0.547954
      5 C                     0.548317
      6 C                     0.071566
      7 C                    -1.651897
      8 C                     0.773825
      9 C                     0.768735
     10 C                    -1.653309
     11 O                    -0.226063
     12 O                    -0.226187
     13 H                     0.210679
     14 H                     0.231535
     15 H                     0.210700
     16 Cl                    0.465809
     17 H                     0.231575
     18 Cl                    0.467456
  ----------------------------------------
  Sum of atomic charges =     0.000000

                    Cartesian Multipole Moments
 -----------------------------------------------------------------
    Charge (ESU x 10^10)
                 0.0000
    Dipole Moment (Debye)
         X       3.9547      Y      -1.4021      Z      -2.3463
       Tot       4.8073
    Quadrupole Moments (Debye-Ang)
        XX     -51.6461     XY     -21.9385     YY     -89.3535
        XZ     -12.9659     YZ      16.6479     ZZ    -102.1998

 Total job time:  27.53s(wall), 153.21s(cpu)
        *  Thank you very much for using Q-Chem.  Have a nice day.  *
