 Q-Chem 5.4, Q-Chem, Inc., Pleasanton, CA (2021)
 Q-Chem 5.4.0 for Intel X86 EM64T Linux

User input:
--------------------------------------------------------------
$molecule
-2 1
Cl                 3.0198890000     -0.8316570000     -0.1891180000
C                  1.2666440000     -0.3598540000     -0.0796520000
C                  0.9936200000      1.0062100000     -0.0238690000
C                 -0.3425240000      1.5151640000      0.0640420000
O                 -0.6288020000      2.7810680000      0.1175610000
C                 -1.3286730000      0.4765080000      0.0865380000
C                 -0.9877510000     -0.8740660000      0.0275050000
Cl                -2.3666390000     -2.0597870000      0.0669860000
C                  0.3264510000     -1.4449650000     -0.0611510000
O                  0.6091710000     -2.6947430000     -0.1139420000
H                  1.8115410000      1.7198450000     -0.0469450000
H                 -2.3729260000      0.7662780000      0.1520460000
$end
$rem
MAX_SCF_CYCLES=200
BASIS  =  6-311++G(d,p)
GUI  =  2
JOB_TYPE  =  SP
METHOD  =  B3LYP
SOLVENT_METHOD = PCM
$end
$pcm
theory = CPCM
$end
$solvent
dielectric 37.219
opticaldielectric 1.43
$end

--------------------------------------------------------------

             Standard Nuclear Orientation (Angstroms)
    I     Atom           X                Y                Z
 ----------------------------------------------------------------
    1      Cl      3.0198890000    -0.8316570000    -0.1891180000
    2      C       1.2666440000    -0.3598540000    -0.0796520000
    3      C       0.9936200000     1.0062100000    -0.0238690000
    4      C      -0.3425240000     1.5151640000     0.0640420000
    5      O      -0.6288020000     2.7810680000     0.1175610000
    6      C      -1.3286730000     0.4765080000     0.0865380000
    7      C      -0.9877510000    -0.8740660000     0.0275050000
    8      Cl     -2.3666390000    -2.0597870000     0.0669860000
    9      C       0.3264510000    -1.4449650000    -0.0611510000
   10      O       0.6091710000    -2.6947430000    -0.1139420000
   11      H       1.8115410000     1.7198450000    -0.0469450000
   12      H      -2.3729260000     0.7662780000     0.1520460000
 ----------------------------------------------------------------

    9   -1301.0988093898      4.53e-06  Convergence criterion met
 Total energy in the final basis set =    -1301.0988093898

                    Orbital Energies (a.u.)
 --------------------------------------------------------------

 Alpha MOs
 -- Occupied --
********-101.5306 -19.0335 -19.0270 -10.1989 -10.1982 -10.1981 -10.1879
-10.1400 -10.1400  -9.4448  -9.4448  -7.2088  -7.2086  -7.2002  -7.2002
 -7.1998  -7.1996  -0.9545  -0.9380  -0.8426  -0.8331  -0.7726  -0.6928
 -0.6675  -0.5629  -0.5426  -0.4586  -0.4483  -0.4204  -0.3914  -0.3895
 -0.3771  -0.3539  -0.3438  -0.3353  -0.3318  -0.3033  -0.3009  -0.2945
 -0.2383  -0.2196  -0.2174  -0.2084  -0.1362

          Ground-State Mulliken Net Atomic Charges

     Atom                 Charge (a.u.)
  ----------------------------------------
      1 Cl                    0.121945
      2 C                     1.025663
      3 C                    -0.688001
      4 C                    -0.635068
      5 O                    -0.739514
      6 C                    -0.687289
      7 C                     1.025488
      8 Cl                    0.122480
      9 C                    -1.248073
     10 O                    -0.630924
     11 H                     0.166774
     12 H                     0.166519
  ----------------------------------------
  Sum of atomic charges =    -2.000000

                    Cartesian Multipole Moments
 -----------------------------------------------------------------
    Charge (ESU x 10^10)
                -9.6064
    Dipole Moment (Debye)
         X      -0.4943      Y       2.2017      Z       0.0931
       Tot       2.2584
    Quadrupole Moments (Debye-Ang)
        XX     -96.8102     XY      10.4752     YY    -140.8910
        XZ       1.2668     YZ      -2.4176     ZZ     -79.4636

 Total job time:  17.52s(wall), 72.22s(cpu)
        *  Thank you very much for using Q-Chem.  Have a nice day.  *
