 Gaussian 16, Revision A.03,
 Gaussian 16:  ES64L-G16RevA.03 25-Dec-2016

 ----------------------------------------------
 #P UB3LYP/6-311++G(d,p) nosym opt freq SCF=YQC
 ----------------------------------------------

 -------
 Reduced
 -------
 Symbolic Z-matrix:
 Charge = -2 Multiplicity = 1

 SCF Done:  E(UB3LYP) =  -612.623925071     a.u. after    8 cycles
 SCF Done:  E(UB3LYP) =  -612.631392253     A.U. after   33 cycles
 SCF Done:  E(UB3LYP) =  -612.632625744     a.u. after    3 cycles
 SCF Done:  E(UB3LYP) =  -612.659024297     a.u. after   27 cycles
 SCF Done:  E(UB3LYP) =  -612.659419602     A.U. after   32 cycles
 SCF Done:  E(UB3LYP) =  -612.663127715     a.u. after   26 cycles
 SCF Done:  E(UB3LYP) =  -612.663526676     A.U. after   27 cycles
 SCF Done:  E(UB3LYP) =  -612.663464339     a.u. after   34 cycles
 SCF Done:  E(UB3LYP) =  -612.663620801     A.U. after   26 cycles
 SCF Done:  E(UB3LYP) =  -612.664814350     a.u. after   35 cycles
 SCF Done:  E(UB3LYP) =  -612.665112056     a.u. after    1 cycles
 SCF Done:  E(UB3LYP) =  -612.665134936     A.U. after   23 cycles
 SCF Done:  E(UB3LYP) =  -612.665129594     a.u. after    1 cycles
 SCF Done:  E(UB3LYP) =  -612.665135332     A.U. after   24 cycles
 SCF Done:  E(UB3LYP) =  -612.665098146     a.u. after    1 cycles
 SCF Done:  E(UB3LYP) =  -612.665135740     A.U. after   22 cycles
 SCF Done:  E(UB3LYP) =  -612.665095871     a.u. after    1 cycles
 SCF Done:  E(UB3LYP) =  -612.665135533     A.U. after   22 cycles
 Optimization completed.
    -- Stationary point found.
 Normal termination of Gaussian 16 at Thu Dec 21 02:51:21 2023.

 ----------------------------------------------------------------------
 #P Geom=AllCheck Guess=TCheck SCRF=Check GenChk UB3LYP/6-311++G(d,p) F
 req
 ----------------------------------------------------------------------

 Structure from the checkpoint file:  "062-an.chk"
 -------
 Reduced
 -------
 Charge = -2 Multiplicity = 1

                          Input orientation:
 ---------------------------------------------------------------------
 Center     Atomic      Atomic             Coordinates (Angstroms)
 Number     Number       Type             X           Y           Z
 ---------------------------------------------------------------------
      1          6           0       -1.687445   -2.425624    1.195085
      2          6           0       -2.277406   -2.159694   -0.113982
      3          6           0       -1.767465   -1.083287   -0.898202
      4          6           0       -0.696704   -0.224141   -0.538703
      5          6           0       -0.115135   -0.541796    0.745619
      6          6           0       -0.581044   -1.564647    1.540873
      7          8           0       -2.062211   -3.340907    2.020588
      8          8           0       -0.266959    0.760002   -1.262397
      9          6           0       -3.365917   -2.991183   -0.646390
     10          6           0       -4.082611   -3.931127    0.148599
     11          6           0       -3.772613   -2.922265   -2.010781
     12          6           0       -4.818912   -3.682974   -2.520231
     13          6           0       -5.125776   -4.691816   -0.371267
     14          6           0       -5.521319   -4.582500   -1.710265
     15          1           0       -2.239877   -0.841455   -1.845427
     16          1           0        0.717998    0.080046    1.076568
     17          1           0       -0.121366   -1.768122    2.507873
     18          1           0       -3.765520   -4.039496    1.177662
     19          1           0       -3.241113   -2.264594   -2.686937
     20          1           0       -5.085886   -3.581593   -3.571669
     21          1           0       -5.643752   -5.389564    0.285280
     22          1           0       -6.339887   -5.177005   -2.110175
 ---------------------------------------------------------------------

 SCF Done:  E(UB3LYP) =  -612.665135533     a.u. after    1 cycles
 SCF Done:  E(UB3LYP) =  -612.665135533     A.U. after    3 cycles

 Alpha  occ. eigenvalues --  -18.78151 -18.76532  -9.94563  -9.94188  -9.94070
 Alpha  occ. eigenvalues --   -9.93995  -9.93669  -9.93079  -9.92580  -9.91820
 Alpha  occ. eigenvalues --   -9.89795  -9.89335  -9.89027  -9.87476  -0.69632
 Alpha  occ. eigenvalues --   -0.67530  -0.61508  -0.54471  -0.51358  -0.50715
 Alpha  occ. eigenvalues --   -0.45330  -0.40532  -0.36884  -0.36312  -0.31777
 Alpha  occ. eigenvalues --   -0.29627  -0.26382  -0.22262  -0.21576  -0.19309
 Alpha  occ. eigenvalues --   -0.18046  -0.17624  -0.17215  -0.14720  -0.13683
 Alpha  occ. eigenvalues --   -0.11726  -0.10885  -0.10756  -0.09858  -0.08275
 Alpha  occ. eigenvalues --   -0.07274  -0.06525  -0.03329  -0.01993   0.01925
 Alpha  occ. eigenvalues --    0.04248   0.04923   0.05903   0.12928
 Alpha virt. eigenvalues --    0.14295   0.16509   0.18046   0.18792   0.20556
 Alpha virt. eigenvalues --    0.20732   0.21537   0.22112   0.22769   0.23629
 Alpha virt. eigenvalues --    0.25195   0.26441   0.26808   0.27234   0.27583

  Beta  occ. eigenvalues --  -18.78151 -18.76532  -9.94563  -9.94188  -9.94070
  Beta  occ. eigenvalues --   -9.93995  -9.93669  -9.93079  -9.92580  -9.91820
  Beta  occ. eigenvalues --   -9.89795  -9.89335  -9.89027  -9.87476  -0.69632
  Beta  occ. eigenvalues --   -0.67530  -0.61508  -0.54471  -0.51358  -0.50715
  Beta  occ. eigenvalues --   -0.45330  -0.40532  -0.36884  -0.36312  -0.31777
  Beta  occ. eigenvalues --   -0.29627  -0.26382  -0.22262  -0.21576  -0.19309
  Beta  occ. eigenvalues --   -0.18046  -0.17624  -0.17215  -0.14720  -0.13683
  Beta  occ. eigenvalues --   -0.11726  -0.10885  -0.10756  -0.09858  -0.08275
  Beta  occ. eigenvalues --   -0.07274  -0.06525  -0.03329  -0.01993   0.01925
  Beta  occ. eigenvalues --    0.04248   0.04923   0.05903   0.12928
  Beta virt. eigenvalues --    0.14295   0.16509   0.18046   0.18792   0.20556
  Beta virt. eigenvalues --    0.20732   0.21537   0.22112   0.22769   0.23629
  Beta virt. eigenvalues --    0.25195   0.26441   0.26808   0.27234   0.27583

 Mulliken charges and spin densities:
               1          2
     1  C   -1.145061   0.000000
     2  C    1.709086  -0.000000
     3  C   -0.756463   0.000000
     4  C   -0.892470   0.000000
     5  C    0.174890   0.000000
     6  C    0.080606  -0.000000
     7  O   -0.490239   0.000000
     8  O   -0.565276   0.000000
     9  C    1.507254   0.000000
    10  C   -0.249291   0.000000
    11  C   -0.848650  -0.000000
    12  C   -0.146216   0.000000
    13  C   -0.364397   0.000000
    14  C    0.245515   0.000000
    15  H    0.016709  -0.000000
    16  H    0.069548  -0.000000
    17  H    0.081080  -0.000000
    18  H    0.190041   0.000000
    19  H    0.119000   0.000000
    20  H   -0.114100  -0.000000
    21  H    0.068829  -0.000000
    22  H   -0.690396  -0.000000
 Sum of Mulliken charges =  -2.00000   0.00000

 Dipole moment (field-independent basis, Debye):
    X=             22.0597    Y=             19.5287    Z=              3.2536  Tot=             29.6410
 Quadrupole moment (field-independent basis, Debye-Ang):
   XX=           -197.1447   YY=           -185.6502   ZZ=           -125.2147
   XY=            -87.3019   XZ=            -20.4166   YZ=             -1.4974

  Exact polarizability:1340.586 893.078 831.930 524.236 243.416 756.253
 Approx polarizability:3436.4372316.8301883.5541662.9531053.5521308.458

                      1                      2                      3
                      A                      A                      A
 Frequencies --     35.9077                77.7463               128.4509
 Red. masses --      4.2119                 4.5369                 8.0122
 Frc consts  --      0.0032                 0.0162                 0.0779
 IR Inten    --      1.8501                 0.4638                15.1294

                      4                      5                      6
                      A                      A                      A
 Frequencies --    157.9764               221.2889               297.4255
 Red. masses --      5.9953                 5.0044                 7.6168
 Frc consts  --      0.0882                 0.1444                 0.3970
 IR Inten    --      3.3823                 4.6441                39.3838

                      7                      8                      9
                      A                      A                      A
 Frequencies --    326.4901               341.1180               406.9597
 Red. masses --      6.4304                 5.8960                 9.2478
 Frc consts  --      0.4039                 0.4042                 0.9024
 IR Inten    --     33.3101                 4.1431               323.0455

                     10                     11                     12
                      A                      A                      A
 Frequencies --    421.1624               431.8057               460.0275
 Red. masses --      3.2387                 3.4690                11.4809
 Frc consts  --      0.3385                 0.3811                 1.4315
 IR Inten    --     68.9029                 3.1429              1127.2653

                     13                     14                     15
                      A                      A                      A
 Frequencies --    506.5155               555.9011               602.7253
 Red. masses --      2.1949                 5.0494                 2.7764
 Frc consts  --      0.3318                 0.9194                 0.5943
 IR Inten    --      3.2594                 0.9541                13.2150

                     16                     17                     18
                      A                      A                      A
 Frequencies --    631.3596               641.3134               696.0872
 Red. masses --      6.2561                 6.3286                 2.0834
 Frc consts  --      1.4693                 1.5335                 0.5948
 IR Inten    --      5.3131                11.4991                13.6852

                     19                     20                     21
                      A                      A                      A
 Frequencies --    709.0241               720.9327               770.1707
 Red. masses --      6.2571                 2.2302                 1.5896
 Frc consts  --      1.8533                 0.6829                 0.5555
 IR Inten    --     31.3225                 7.5095                41.2535

                     22                     23                     24
                      A                      A                      A
 Frequencies --    810.0496               814.0950               821.6065
 Red. masses --      5.6447                 2.4776                 1.4653
 Frc consts  --      2.1823                 0.9674                 0.5828
 IR Inten    --     52.6903                 1.9939                22.4104

                     25                     26                     27
                      A                      A                      A
 Frequencies --    827.8378               883.5123               888.3467
 Red. masses --      1.8876                 1.7410                 3.5603
 Frc consts  --      0.7622                 0.8007                 1.6554
 IR Inten    --     48.4966               101.3179                55.1517

                     28                     29                     30
                      A                      A                      A
 Frequencies --    907.5386               944.5860               988.1036
 Red. masses --      1.2801                 1.2494                 3.3866
 Frc consts  --      0.6212                 0.6568                 1.9482
 IR Inten    --      0.2653                 0.1182               268.9099

                     31                     32                     33
                      A                      A                      A
 Frequencies --    990.2017              1004.6234              1037.7621
 Red. masses --      1.4883                 3.2423                 2.1438
 Frc consts  --      0.8598                 1.9280                 1.3603
 IR Inten    --     38.7749                25.4444               191.5733

                     34                     35                     36
                      A                      A                      A
 Frequencies --   1076.2290              1091.7452              1149.5260
 Red. masses --      1.6621                 1.7008                 1.3838
 Frc consts  --      1.1343                 1.1944                 1.0774
 IR Inten    --     55.9384               693.1517               209.6530

                     37                     38                     39
                      A                      A                      A
 Frequencies --   1163.8274              1196.5929              1231.9390
 Red. masses --      1.2992                 1.4116                 1.6957
 Frc consts  --      1.0368                 1.1909                 1.5163
 IR Inten    --      5.6290                 1.4652              1789.5319

                     40                     41                     42
                      A                      A                      A
 Frequencies --   1255.2271              1285.9739              1325.0892
 Red. masses --      4.8189                 2.1194                 3.3742
 Frc consts  --      4.4734                 2.0651                 3.4907
 IR Inten    --    121.9849                 2.2460                60.7720

                     43                     44                     45
                      A                      A                      A
 Frequencies --   1345.6441              1364.0677              1412.5785
 Red. masses --      2.1583                 5.7068                 3.6659
 Frc consts  --      2.3026                 6.2562                 4.3097
 IR Inten    --    869.3517               870.2547               778.8700

                     46                     47                     48
                      A                      A                      A
 Frequencies --   1453.0204              1462.7855              1483.1128
 Red. masses --      3.6302                 3.0188                 3.7758
 Frc consts  --      4.5157                 3.8057                 4.8934
 IR Inten    --    856.6752                66.9961               495.4687

                     49                     50                     51
                      A                      A                      A
 Frequencies --   1500.9400              1559.0907              1585.1707
 Red. masses --      2.0509                 4.6367                 5.4638
 Frc consts  --      2.7222                 6.6405                 8.0891
 IR Inten    --    639.6102                22.3266              6080.7698

                     52                     53                     54
                      A                      A                      A
 Frequencies --   1606.3061              3075.3543              3091.4127
 Red. masses --      5.2905                 1.0834                 1.0832
 Frc consts  --      8.0427                 6.0374                 6.0990
 IR Inten    --    136.5119               153.9268               205.7221

                     55                     56                     57
                      A                      A                      A
 Frequencies --   3101.7912              3106.4888              3129.7446
 Red. masses --      1.0880                 1.0927                 1.0945
 Frc consts  --      6.1677                 6.2127                 6.3167
 IR Inten    --    194.6407               773.9730                93.9422

                     58                     59                     60
                      A                      A                      A
 Frequencies --   3138.2389              3183.0392              3184.3929
 Red. masses --      1.0865                 1.0921                 1.0881
 Frc consts  --      6.3047                 6.5192                 6.5009
 IR Inten    --    163.5115                63.9375                21.7595

 - Thermochemistry -
 -------------------
 Temperature   298.150 Kelvin.  Pressure   1.00000 Atm.
 Atom     1 has atomic number  6 and mass  12.00000

 Molecular mass:   184.05243 amu.
 Principal axes and moments of inertia in atomic units:
                           1         2         3
     Eigenvalues --  1263.703713977.574085221.14498
           X            0.74112   0.08543   0.66591
           Y            0.62894  -0.43535  -0.64413
           Z            0.23488   0.89620  -0.37638
 This molecule is an asymmetric top.
 Rotational symmetry number  1.
 Warning -- assumption of classical behavior for rotation
           may cause significant error
 Rotational temperatures (Kelvin)      0.06854     0.02178     0.01659
 Rotational constants (GHZ):           1.42814     0.45373     0.34566
 Zero-point vibrational energy     422389.3 (Joules/Mol)
                                  100.95347 (Kcal/Mol)
 Warning -- explicit consideration of  15 degrees of freedom as
           vibrations may cause significant error
 Vibrational temperatures:     51.66   111.86   184.81   227.29   318.39
          (Kelvin)            427.93   469.75   490.79   585.52   605.96
                              621.27   661.88   728.76   799.82   867.19
                              908.39   922.71  1001.51  1020.13  1037.26
                             1108.10  1165.48  1171.30  1182.11  1191.07
                             1271.18  1278.13  1305.75  1359.05  1421.66
                             1424.68  1445.43  1493.11  1548.45  1570.78
                             1653.91  1674.49  1721.63  1772.49  1805.99
                             1850.23  1906.51  1936.08  1962.59  2032.39
                             2090.57  2104.62  2133.87  2159.52  2243.18
                             2280.71  2311.12  4424.75  4447.85  4462.79
                             4469.54  4503.00  4515.23  4579.68  4581.63

 Zero-point correction=                           0.160880 (Hartree/Particle)
 Thermal correction to Energy=                    0.171632
 Thermal correction to Enthalpy=                  0.172577
 Thermal correction to Gibbs Free Energy=         0.123546
 Sum of electronic and zero-point Energies=           -612.504256
 Sum of electronic and thermal Energies=              -612.493503
 Sum of electronic and thermal Enthalpies=            -612.492559
 Sum of electronic and thermal Free Energies=         -612.541589

                     E (Thermal)             CV                S
                      KCal/Mol        Cal/Mol-Kelvin    Cal/Mol-Kelvin
 Total                  107.701             43.188            103.193
 Electronic               0.000              0.000              0.000
 Translational            0.889              2.981             41.536
 Rotational               0.889              2.981             31.640
 Vibrational            105.924             37.227             30.016
 Vibration     1          0.594              1.982              5.473
 Vibration     2          0.599              1.964              3.947
 Vibration     3          0.611              1.925              2.969
 Vibration     4          0.621              1.894              2.574
 Vibration     5          0.648              1.809              1.949
 Vibration     6          0.691              1.679              1.431
 Vibration     7          0.710              1.623              1.277
 Vibration     8          0.721              1.593              1.207
 Vibration     9          0.772              1.455              0.937
 Vibration    10          0.784              1.424              0.888
 Vibration    11          0.793              1.401              0.853
 Vibration    12          0.818              1.339              0.766
 Vibration    13          0.862              1.236              0.642
 Vibration    14          0.911              1.127              0.532
 Vibration    15          0.961              1.026              0.445

                           ! Non-Optimized Parameters !
 Normal termination of Gaussian 16 at Thu Dec 21 03:08:40 2023.
