 Q-Chem 5.4, Q-Chem, Inc., Pleasanton, CA (2021)
 Q-Chem 5.4.0 for Intel X86 EM64T Linux

User input:
--------------------------------------------------------------
$molecule
-2 1
I                 -2.8034190000     -2.0468300000      0.0038360000
C                 -1.0633320000     -0.7444200000      0.0011460000
C                 -1.2894660000      0.6297810000     -0.0163880000
C                 -0.2101650000      1.5764500000     -0.0197460000
O                 -0.3814680000      2.8587170000     -0.0357700000
C                  1.0792640000      0.9460470000     -0.0033110000
C                  1.2213200000     -0.4397240000      0.0137730000
I                  3.2416880000     -1.2402490000      0.0370630000
C                  0.1922730000     -1.4410330000      0.0180700000
O                  0.3610010000     -2.7078200000      0.0339720000
H                 -2.3007670000      1.0209290000     -0.0280560000
H                  1.9530710000      1.5881520000     -0.0045890000
$end
$rem
MAX_SCF_CYCLES=200
BASIS  =  6-311++G(d,p)
GUI  =  2
JOB_TYPE  =  SP
METHOD  =  B3LYP
SOLVENT_METHOD = PCM
$end
$pcm
theory = CPCM
$end
$solvent
dielectric 37.219
opticaldielectric 1.43
$end

--------------------------------------------------------------

             Standard Nuclear Orientation (Angstroms)
    I     Atom           X                Y                Z
 ----------------------------------------------------------------
    1      I      -2.8034190000    -2.0468300000     0.0038360000
    2      C      -1.0633320000    -0.7444200000     0.0011460000
    3      C      -1.2894660000     0.6297810000    -0.0163880000
    4      C      -0.2101650000     1.5764500000    -0.0197460000
    5      O      -0.3814680000     2.8587170000    -0.0357700000
    6      C       1.0792640000     0.9460470000    -0.0033110000
    7      C       1.2213200000    -0.4397240000     0.0137730000
    8      I       3.2416880000    -1.2402490000     0.0370630000
    9      C       0.1922730000    -1.4410330000     0.0180700000
   10      O       0.3610010000    -2.7078200000     0.0339720000
   11      H      -2.3007670000     1.0209290000    -0.0280560000
   12      H       1.9530710000     1.5881520000    -0.0045890000
 ----------------------------------------------------------------

   10  -14219.6854952245      7.94e-06  Convergence criterion met
 Total energy in the final basis set =   -14219.6854952245

                    Orbital Energies (a.u.)
 --------------------------------------------------------------

 Alpha MOs
 -- Occupied --
*****************-176.2746-176.2746-165.6781-165.6780-165.6764-165.6763
********-165.6763 -35.7711 -35.7710 -31.2634 -31.2634 -31.2587 -31.2587
-31.2585 -31.2585 -22.9142 -22.9141 -22.9131 -22.9130 -22.9129 -22.9129
-22.9097 -22.9097 -22.9096 -22.9096 -19.0359 -19.0281 -10.2012 -10.1884
-10.1873 -10.1872 -10.1421 -10.1421  -6.3203  -6.3203  -4.7307  -4.7306
 -4.7192  -4.7192  -4.7188  -4.7187  -1.9968  -1.9966  -1.9932  -1.9930
 -1.9929  -1.9927  -1.9829  -1.9829  -1.9828  -1.9828  -0.9573  -0.9413
 -0.8071  -0.7305  -0.6771  -0.6276  -0.6250  -0.5407  -0.5310  -0.4533
 -0.4479  -0.3834  -0.3815  -0.3763  -0.3718  -0.3374  -0.3313  -0.3084
 -0.2853  -0.2648  -0.2514  -0.2512  -0.2345  -0.2147  -0.2147  -0.2075
 -0.1371

          Ground-State Mulliken Net Atomic Charges

     Atom                 Charge (a.u.)
  ----------------------------------------
      1 I                    -0.158226
      2 C                     1.321748
      3 C                    -0.661992
      4 C                    -0.179636
      5 O                    -0.732747
      6 C                    -0.645339
      7 C                     1.294685
      8 I                    -0.155270
      9 C                    -1.798068
     10 O                    -0.570046
     11 H                     0.142066
     12 H                     0.142825
  ----------------------------------------
  Sum of atomic charges =    -2.000000

                    Cartesian Multipole Moments
 -----------------------------------------------------------------
    Charge (ESU x 10^10)
                -9.6064
    Dipole Moment (Debye)
         X      -0.2851      Y       2.1726      Z      -0.0273
       Tot       2.1914
    Quadrupole Moments (Debye-Ang)
        XX    -131.1733     XY       5.8505     YY    -174.2862
        XZ      -0.2006     YZ       0.7543     ZZ    -112.6420

 Total job time:  25.71s(wall), 121.28s(cpu)
        *  Thank you very much for using Q-Chem.  Have a nice day.  *
