 Gaussian 16, Revision A.03,
 Gaussian 16:  ES64L-G16RevA.03 25-Dec-2016

 ----------------------------------------------------------------------
 #P UB3LYP/6-311++G(d,p) nosym opt freq SCRF=(PCM,Solvent=n,n-DiMethylF
 ormamide)
 ----------------------------------------------------------------------

 --------
 Oxidized
 --------
 Symbolic Z-matrix:
 Charge =  0 Multiplicity = 1

 SCF Done:  E(UB3LYP) =  -613.928461530     A.U. after   15 cycles
 SCF Done:  E(UB3LYP) =  -613.928560145     A.U. after   12 cycles
 SCF Done:  E(UB3LYP) =  -613.928571142     A.U. after   11 cycles
 SCF Done:  E(UB3LYP) =  -613.928573271     A.U. after    9 cycles
 Optimization completed.
    -- Stationary point found.
 Normal termination of Gaussian 16 at Sat Feb 10 23:47:40 2024.

 ----------------------------------------------------------------------
 #P Geom=AllCheck Guess=TCheck SCRF=Check GenChk UB3LYP/6-311++G(d,p) F
 req
 ----------------------------------------------------------------------

 Structure from the checkpoint file:  "243.chk"
 --------
 Oxidized
 --------
 Charge =  0 Multiplicity = 1

                          Input orientation:
 ---------------------------------------------------------------------
 Center     Atomic      Atomic             Coordinates (Angstroms)
 Number     Number       Type             X           Y           Z
 ---------------------------------------------------------------------
      1          6           0        3.742986   -1.040808   -0.323455
      2          6           0        2.457908   -0.291356   -0.084046
      3          6           0        2.470332    1.097134    0.124791
      4          6           0        1.293981    1.800534    0.349853
      5          6           0        0.066908    1.132417    0.372185
      6          6           0       -1.194701    1.876481    0.615322
      7          8           0       -1.211315    3.090134    0.801717
      8          6           0       -2.452682    1.105858    0.628218
      9          6           0       -2.515326   -0.224147    0.429631
     10          6           0       -3.798106   -0.996195    0.441917
     11          6           0       -1.256379   -0.997194    0.180676
     12          8           0       -1.306434   -2.206366   -0.001195
     13          6           0        0.036697   -0.256280    0.163476
     14          6           0        1.227191   -0.951529   -0.061580
     15          1           0        4.264124   -0.648875   -1.201637
     16          1           0        4.420578   -0.931316    0.528394
     17          1           0        3.561148   -2.104730   -0.480136
     18          1           0        3.415689    1.629025    0.110450
     19          1           0        1.313615    2.871304    0.510675
     20          1           0       -3.350531    1.687443    0.810813
     21          1           0       -3.771745   -1.773006    1.211222
     22          1           0       -4.647012   -0.339039    0.629647
     23          1           0       -3.947822   -1.507102   -0.513341
     24          1           0        1.180895   -2.022387   -0.219661
 ---------------------------------------------------------------------

 SCF Done:  E(UB3LYP) =  -613.928573271     A.U. after    1 cycles

 Alpha  occ. eigenvalues --  -19.13805 -19.13322 -10.28565 -10.28213 -10.22123
 Alpha  occ. eigenvalues --  -10.20840 -10.20838 -10.20524 -10.20382 -10.19805
 Alpha  occ. eigenvalues --  -10.19536 -10.19505 -10.17865 -10.17453  -1.06925
 Alpha  occ. eigenvalues --   -1.06229  -0.89227  -0.85003  -0.80103  -0.77944
 Alpha  occ. eigenvalues --   -0.73872  -0.70654  -0.68455  -0.63281  -0.62012
 Alpha  occ. eigenvalues --   -0.58890  -0.54176  -0.52149  -0.50269  -0.47240
 Alpha  occ. eigenvalues --   -0.46555  -0.46104  -0.45858  -0.45005  -0.43331
 Alpha  occ. eigenvalues --   -0.42469  -0.42438  -0.41511  -0.40937  -0.40123
 Alpha  occ. eigenvalues --   -0.39425  -0.37530  -0.36752  -0.36444  -0.29876
 Alpha  occ. eigenvalues --   -0.28933  -0.27864  -0.27751  -0.26948
 Alpha virt. eigenvalues --   -0.12676  -0.05540  -0.03269  -0.00754   0.00190
 Alpha virt. eigenvalues --    0.01025   0.02077   0.02181   0.02356   0.03361
 Alpha virt. eigenvalues --    0.03516   0.03834   0.04274   0.05152   0.05634

  Beta  occ. eigenvalues --  -19.13805 -19.13322 -10.28565 -10.28213 -10.22123
  Beta  occ. eigenvalues --  -10.20840 -10.20838 -10.20524 -10.20382 -10.19805
  Beta  occ. eigenvalues --  -10.19536 -10.19505 -10.17865 -10.17453  -1.06925
  Beta  occ. eigenvalues --   -1.06229  -0.89227  -0.85003  -0.80103  -0.77944
  Beta  occ. eigenvalues --   -0.73872  -0.70654  -0.68455  -0.63281  -0.62012
  Beta  occ. eigenvalues --   -0.58890  -0.54176  -0.52149  -0.50269  -0.47240
  Beta  occ. eigenvalues --   -0.46555  -0.46104  -0.45858  -0.45005  -0.43331
  Beta  occ. eigenvalues --   -0.42469  -0.42438  -0.41511  -0.40937  -0.40123
  Beta  occ. eigenvalues --   -0.39425  -0.37530  -0.36752  -0.36444  -0.29876
  Beta  occ. eigenvalues --   -0.28933  -0.27864  -0.27751  -0.26948
  Beta virt. eigenvalues --   -0.12676  -0.05540  -0.03269  -0.00754   0.00190
  Beta virt. eigenvalues --    0.01025   0.02077   0.02181   0.02356   0.03361
  Beta virt. eigenvalues --    0.03516   0.03834   0.04274   0.05152   0.05634

 Mulliken charges and spin densities:
               1          2
     1  C   -0.435022  -0.000000
     2  C    0.509430   0.000000
     3  C   -0.337598  -0.000000
     4  C    0.080457  -0.000000
     5  C    0.437070  -0.000000
     6  C   -0.687845   0.000000
     7  O   -0.309386  -0.000000
     8  C   -0.492653   0.000000
     9  C    1.026380  -0.000000
    10  C   -0.292381  -0.000000
    11  C   -0.665741   0.000000
    12  O   -0.263522  -0.000000
    13  C   -0.068275   0.000000
    14  C   -0.315282  -0.000000
    15  H    0.172681  -0.000000
    16  H    0.174401  -0.000000
    17  H    0.178964   0.000000
    18  H    0.209109   0.000000
    19  H    0.176796   0.000000
    20  H    0.198443  -0.000000
    21  H    0.188871   0.000000
    22  H    0.176216   0.000000
    23  H    0.188781  -0.000000
    24  H    0.150106   0.000000
 Sum of Mulliken charges =  -0.00000  -0.00000

 Dipole moment (field-independent basis, Debye):
    X=              2.0596    Y=             -1.2361    Z=             -0.3791  Tot=              2.4318
 Quadrupole moment (field-independent basis, Debye-Ang):
   XX=            -60.2732   YY=            -99.9168   ZZ=            -82.9965
   XY=              2.0267   XZ=             -1.5184   YZ=             -3.1300

  Exact polarizability: 253.244   2.448 257.007 -14.513  22.860 110.489
 Approx polarizability: 266.986   3.818 337.062 -13.786  32.167 130.354

                      1                      2                      3
                      A                      A                      A
 Frequencies --     11.6074                53.8721                93.3171
 Red. masses --      1.0354                 5.3660                 4.4165
 Frc consts  --      0.0001                 0.0092                 0.0227
 IR Inten    --      0.6455                13.2307                 0.9706

                      4                      5                      6
                      A                      A                      A
 Frequencies --    137.1622               151.2309               184.6403
 Red. masses --      2.5652                 1.8263                 2.0938
 Frc consts  --      0.0284                 0.0246                 0.0421
 IR Inten    --      0.8164                 0.3591                 2.7067

                      7                      8                      9
                      A                      A                      A
 Frequencies --    200.6504               277.8317               297.0168
 Red. masses --      3.8992                 4.0329                 3.2635
 Frc consts  --      0.0925                 0.1834                 0.1696
 IR Inten    --      1.0843                 1.0752                 0.4658

                     10                     11                     12
                      A                      A                      A
 Frequencies --    344.1078               357.3078               378.3795
 Red. masses --      5.5252                 3.7497                 4.9723
 Frc consts  --      0.3855                 0.2821                 0.4194
 IR Inten    --     10.5812                 0.4063                 5.0182

                     13                     14                     15
                      A                      A                      A
 Frequencies --    410.4963               435.1283               453.6930
 Red. masses --      6.2689                 3.0928                 6.0040
 Frc consts  --      0.6224                 0.3450                 0.7281
 IR Inten    --     16.8810                 2.2661                25.9742

                     16                     17                     18
                      A                      A                      A
 Frequencies --    495.9510               526.5056               640.3012
 Red. masses --      8.7131                 3.7252                 4.8159
 Frc consts  --      1.2627                 0.6084                 1.1633
 IR Inten    --      2.4414                11.5387                 0.7198

                     19                     20                     21
                      A                      A                      A
 Frequencies --    679.5846               679.7871               693.4262
 Red. masses --      4.2275                 4.3362                 4.4963
 Frc consts  --      1.1503                 1.1806                 1.2738
 IR Inten    --     11.8309                11.3502                 4.6466

                     22                     23                     24
                      A                      A                      A
 Frequencies --    713.3540               734.6866               795.7755
 Red. masses --      3.8381                 5.4596                 5.5801
 Frc consts  --      1.1507                 1.7363                 2.0820
 IR Inten    --      9.6159                 3.2625                 0.0450

                     25                     26                     27
                      A                      A                      A
 Frequencies --    854.5825               870.1198               912.2527
 Red. masses --      1.3405                 4.9857                 1.4924
 Frc consts  --      0.5768                 2.2240                 0.7318
 IR Inten    --     54.3774                33.9679                26.6639

                     28                     29                     30
                      A                      A                      A
 Frequencies --    931.6457               981.6377              1005.5487
 Red. masses --      1.3946                 2.3823                 1.3559
 Frc consts  --      0.7132                 1.3525                 0.8078
 IR Inten    --      0.0281                54.6831                 0.5956

                     31                     32                     33
                      A                      A                      A
 Frequencies --   1017.2921              1040.5320              1056.1482
 Red. masses --      1.5332                 2.0528                 1.5453
 Frc consts  --      0.9348                 1.3095                 1.0156
 IR Inten    --     22.4810                10.5683                 5.7571

                     34                     35                     36
                      A                      A                      A
 Frequencies --   1061.8799              1104.8456              1135.4177
 Red. masses --      1.5733                 2.9313                 2.6118
 Frc consts  --      1.0452                 2.1082                 1.9838
 IR Inten    --      9.6615                11.2706                 2.3520

                     37                     38                     39
                      A                      A                      A
 Frequencies --   1166.9492              1215.8600              1255.9853
 Red. masses --      1.4860                 2.2192                 1.8665
 Frc consts  --      1.1923                 1.9329                 1.7348
 IR Inten    --     51.5212                23.0272                34.6631

                     40                     41                     42
                      A                      A                      A
 Frequencies --   1288.7533              1310.7553              1355.2030
 Red. masses --      2.4884                 3.2453                 5.4872
 Frc consts  --      2.4351                 3.2851                 5.9376
 IR Inten    --    249.3503               399.1518                43.7273

                     43                     44                     45
                      A                      A                      A
 Frequencies --   1361.7406              1407.9206              1409.5804
 Red. masses --      2.3953                 1.2879                 1.2532
 Frc consts  --      2.6170                 1.5041                 1.4671
 IR Inten    --     40.0905                21.9170                 5.5571

                     46                     47                     48
                      A                      A                      A
 Frequencies --   1437.6581              1459.4395              1470.2847
 Red. masses --      2.7144                 1.0433                 1.0759
 Frc consts  --      3.3055                 1.3093                 1.3704
 IR Inten    --     19.1223                13.9958                21.6299

                     49                     50                     51
                      A                      A                      A
 Frequencies --   1474.4147              1488.0101              1518.9108
 Red. masses --      1.0423                 1.2251                 2.9822
 Frc consts  --      1.3350                 1.5982                 4.0538
 IR Inten    --     12.1762                 3.0889                 0.9583

                     52                     53                     54
                      A                      A                      A
 Frequencies --   1599.8098              1625.4655              1667.1285
 Red. masses --      6.7116                 6.0966                 9.4399
 Frc consts  --     10.1207                 9.4906                15.4580
 IR Inten    --     70.3340               388.3820               130.9424

                     55                     56                     57
                      A                      A                      A
 Frequencies --   1686.4940              1701.0441              3030.5469
 Red. masses --      9.6832                10.3450                 1.0373
 Frc consts  --     16.2270                17.6364                 5.6130
 IR Inten    --    793.5619               151.6466                27.4118

                     58                     59                     60
                      A                      A                      A
 Frequencies --   3036.3611              3080.7956              3086.4250
 Red. masses --      1.0367                 1.1002                 1.0990
 Frc consts  --      5.6311                 6.1526                 6.1685
 IR Inten    --     11.7018                17.1703                11.0440

                     61                     62                     63
                      A                      A                      A
 Frequencies --   3115.1541              3127.2482              3171.3517
 Red. masses --      1.1012                 1.1024                 1.0897
 Frc consts  --      6.2963                 6.3520                 6.4570
 IR Inten    --     25.2151                18.3290                14.2334

                     64                     65                     66
                      A                      A                      A
 Frequencies --   3172.9222              3190.1663              3199.5353
 Red. masses --      1.0919                 1.0904                 1.0929
 Frc consts  --      6.4765                 6.5385                 6.5919
 IR Inten    --     11.6667                 5.2545                 7.4718

 - Thermochemistry -
 -------------------
 Temperature   298.150 Kelvin.  Pressure   1.00000 Atm.
 Atom     1 has atomic number  6 and mass  12.00000

 Molecular mass:   186.06808 amu.
 Principal axes and moments of inertia in atomic units:
                           1         2         3
     Eigenvalues --  1573.066913193.623714744.46435
           X            0.99419   0.04159   0.09927
           Y           -0.02635   0.98831  -0.15014
           Z           -0.10436   0.14665   0.98367
 This molecule is an asymmetric top.
 Rotational symmetry number  1.
 Warning -- assumption of classical behavior for rotation
           may cause significant error
 Rotational temperatures (Kelvin)      0.05506     0.02712     0.01826
 Rotational constants (GHZ):           1.14728     0.56511     0.38039
 Zero-point vibrational energy     489449.9 (Joules/Mol)
                                  116.98133 (Kcal/Mol)
 Warning -- explicit consideration of  17 degrees of freedom as
           vibrations may cause significant error
 Vibrational temperatures:     16.70    77.51   134.26   197.35   217.59
          (Kelvin)            265.66   288.69   399.74   427.34   495.09
                              514.09   544.40   590.61   626.05   652.76
                              713.56   757.52   921.25   977.77   978.06
                              997.69  1026.36  1057.05  1144.94  1229.55
                             1251.91  1312.53  1340.43  1412.36  1446.76
                             1463.66  1497.09  1519.56  1527.81  1589.63
                             1633.61  1678.98  1749.35  1807.08  1854.23
                             1885.88  1949.83  1959.24  2025.68  2028.07
                             2068.47  2099.81  2115.41  2121.35  2140.91
                             2185.37  2301.77  2338.68  2398.63  2426.49
                             2447.42  4360.28  4368.65  4432.58  4440.68
                             4482.01  4499.41  4562.87  4565.13  4589.94
                             4603.42

 Zero-point correction=                           0.186422 (Hartree/Particle)
 Thermal correction to Energy=                    0.198794
 Thermal correction to Enthalpy=                  0.199738
 Thermal correction to Gibbs Free Energy=         0.146116
 Sum of electronic and zero-point Energies=           -613.742152
 Sum of electronic and thermal Energies=              -613.729779
 Sum of electronic and thermal Enthalpies=            -613.728835
 Sum of electronic and thermal Free Energies=         -613.782457

                     E (Thermal)             CV                S
                      KCal/Mol        Cal/Mol-Kelvin    Cal/Mol-Kelvin
 Total                  124.745             46.571            112.856
 Electronic               0.000              0.000              0.000
 Translational            0.889              2.981             41.569
 Rotational               0.889              2.981             31.544
 Vibrational            122.968             40.610             39.743
 Vibration     1          0.593              1.987              7.715
 Vibration     2          0.596              1.976              4.670
 Vibration     3          0.602              1.954              3.589
 Vibration     4          0.614              1.916              2.843
 Vibration     5          0.619              1.901              2.657
 Vibration     6          0.631              1.861              2.281
 Vibration     7          0.638              1.839              2.127
 Vibration     8          0.679              1.714              1.547
 Vibration     9          0.691              1.679              1.434
 Vibration    10          0.723              1.587              1.193
 Vibration    11          0.732              1.560              1.134
 Vibration    12          0.749              1.516              1.046
 Vibration    13          0.775              1.447              0.925
 Vibration    14          0.796              1.394              0.842
 Vibration    15          0.812              1.353              0.785
 Vibration    16          0.852              1.259              0.668
 Vibration    17          0.881              1.191              0.595

                           ! Non-Optimized Parameters !
 Normal termination of Gaussian 16 at Sun Feb 11 00:05:06 2024.
