 Gaussian 16, Revision A.03,
 Gaussian 16:  ES64L-G16RevA.03 25-Dec-2016

 ----------------------------------------------------------------------
 #P UB3LYP/genecp nosym opt freq SCRF=(PCM,Solvent=n,n-DiMethylFormamid
 e)
 ----------------------------------------------------------------------

 -------
 Radical
 -------
 Symbolic Z-matrix:
 Charge = -1 Multiplicity = 2

 SCF Done:  E(UB3LYP) =  -986.292482084     A.U. after   20 cycles
 SCF Done:  E(UB3LYP) =  -986.292685582     A.U. after   13 cycles
 SCF Done:  E(UB3LYP) =  -986.292265245     A.U. after   15 cycles
 SCF Done:  E(UB3LYP) =  -986.292716285     A.U. after   12 cycles
 SCF Done:  E(UB3LYP) =  -986.292716843     A.U. after   10 cycles
 SCF Done:  E(UB3LYP) =  -986.292716758     A.U. after   10 cycles
 SCF Done:  E(UB3LYP) =  -986.292717079     A.U. after    9 cycles
 Optimization completed.
    -- Stationary point found.
 Normal termination of Gaussian 16 at Sat Feb 10 22:38:02 2024.

 ------------------------------------------------------------------
 #P Geom=AllCheck Guess=TCheck SCRF=Check GenChk UB3LYP/GenECP Freq
 ------------------------------------------------------------------

 Structure from the checkpoint file:  "119-rad.chk"
 -------
 Radical
 -------
 Charge = -1 Multiplicity = 2

                          Input orientation:
 ---------------------------------------------------------------------
 Center     Atomic      Atomic             Coordinates (Angstroms)
 Number     Number       Type             X           Y           Z
 ---------------------------------------------------------------------
      1          6           0        6.899477   -1.640125   -0.255105
      2          6           0        7.458829   -0.681574   -1.076267
      3          6           0        6.644847    0.323111   -1.641492
      4          6           0        5.290973    0.344960   -1.371575
      5          6           0        4.693808   -0.624742   -0.534434
      6          6           0        5.516062   -1.639919    0.036355
      7          6           0        4.966065   -2.674296    0.910533
      8          6           0        3.529715   -2.611089    1.168467
      9          6           0        2.706817   -1.596445    0.598312
     10          6           0        3.255865   -0.563822   -0.275111
     11          6           0        2.940509   -3.585494    2.008163
     12          6           0        1.589392   -3.551439    2.269677
     13          6           0        0.759192   -2.554291    1.713542
     14          6           0        1.325119   -1.599967    0.893119
     15          8           0        5.691809   -3.574570    1.416773
     16          8           0        2.526597    0.334215   -0.779722
     17          1           0        7.511340   -2.417487    0.186284
     18          1           0        4.653361    1.110150   -1.797463
     19          1           0        3.583857   -4.346430    2.429679
     20          1           0        0.707326   -0.825265    0.455048
     21         53           0        0.722866   -5.019674    3.531398
     22          1           0        8.522451   -0.699056   -1.287874
     23          1           0        7.083948    1.076315   -2.286641
     24          1           0       -0.302229   -2.537077    1.925794
 ---------------------------------------------------------------------

 SCF Done:  E(UB3LYP) =  -986.292717079     A.U. after    1 cycles

 Alpha  occ. eigenvalues --  -19.07887 -19.07863 -10.22773 -10.22771 -10.22173
 Alpha  occ. eigenvalues --  -10.18455 -10.18252 -10.18121 -10.17948 -10.17852
 Alpha  occ. eigenvalues --  -10.17673 -10.17624 -10.17488 -10.17440 -10.17231
 Alpha  occ. eigenvalues --  -10.17230  -6.84484  -4.86883  -4.85781  -4.85763
 Alpha  occ. eigenvalues --   -1.91700  -1.91328  -1.91323  -1.90369  -1.90369
 Alpha  occ. eigenvalues --   -1.00394  -1.00125  -0.87081  -0.85692  -0.79501
 Alpha  occ. eigenvalues --   -0.76435  -0.75271  -0.74919  -0.69838  -0.66823
 Alpha  occ. eigenvalues --   -0.63952  -0.61416  -0.59362  -0.56109  -0.53687
 Alpha  occ. eigenvalues --   -0.52170  -0.47738  -0.46959  -0.46170  -0.44587
 Alpha  occ. eigenvalues --   -0.43295  -0.42659  -0.42559  -0.41493  -0.41336
 Alpha  occ. eigenvalues --   -0.40333  -0.38270  -0.37785  -0.37145  -0.35346
 Alpha  occ. eigenvalues --   -0.34803  -0.34173  -0.33451  -0.29417  -0.26947
 Alpha  occ. eigenvalues --   -0.26907  -0.26026  -0.25831  -0.24949  -0.24192
 Alpha  occ. eigenvalues --   -0.24083  -0.14650
 Alpha virt. eigenvalues --   -0.06015  -0.03740  -0.02792  -0.01012  -0.00244
 Alpha virt. eigenvalues --    0.00559   0.01326   0.02302   0.02543   0.04193
 Alpha virt. eigenvalues --    0.04501   0.04520   0.04700   0.05096   0.06093

  Beta  occ. eigenvalues --  -19.07319 -19.07305 -10.22604 -10.22597 -10.22119
  Beta  occ. eigenvalues --  -10.18398 -10.18250 -10.18029 -10.17954 -10.17764
  Beta  occ. eigenvalues --  -10.17606 -10.17553 -10.17447 -10.17397 -10.17229
  Beta  occ. eigenvalues --  -10.17223  -6.84483  -4.86884  -4.85778  -4.85762
  Beta  occ. eigenvalues --   -1.91701  -1.91327  -1.91325  -1.90367  -1.90367
  Beta  occ. eigenvalues --   -0.99415  -0.99120  -0.86844  -0.85549  -0.79112
  Beta  occ. eigenvalues --   -0.76240  -0.75075  -0.74746  -0.69670  -0.66153
  Beta  occ. eigenvalues --   -0.63781  -0.61169  -0.59301  -0.55865  -0.53479
  Beta  occ. eigenvalues --   -0.51986  -0.47431  -0.46858  -0.46038  -0.44484
  Beta  occ. eigenvalues --   -0.43234  -0.42520  -0.41410  -0.41230  -0.40862
  Beta  occ. eigenvalues --   -0.40042  -0.37418  -0.37031  -0.35907  -0.35258
  Beta  occ. eigenvalues --   -0.34078  -0.33762  -0.33316  -0.28715  -0.26899
  Beta  occ. eigenvalues --   -0.25933  -0.25013  -0.24805  -0.24429  -0.23682
  Beta  occ. eigenvalues --   -0.23565
  Beta virt. eigenvalues --   -0.08741  -0.05105  -0.03684  -0.01749  -0.00780
  Beta virt. eigenvalues --   -0.00227   0.00560   0.01335   0.02316   0.02537
  Beta virt. eigenvalues --    0.04513   0.04517   0.04715   0.05057   0.05106

 Mulliken charges and spin densities:
               1          2
     1  C    0.063232   0.029544
     2  C   -0.435382   0.030723
     3  C   -0.437639   0.036088
     4  C    0.092748   0.026263
     5  C    0.182325   0.026718
     6  C    0.268430   0.027925
     7  C   -0.450389   0.102539
     8  C    0.181723   0.058207
     9  C    0.271714   0.045569
    10  C   -0.535498   0.095121
    11  C    0.187887   0.019585
    12  C    0.220656   0.031170
    13  C   -0.763118   0.048842
    14  C    0.009259   0.017945
    15  O   -0.459616   0.210959
    16  O   -0.458576   0.206842
    17  H    0.165548  -0.001777
    18  H    0.168232  -0.001473
    19  H    0.148079  -0.001389
    20  H    0.176988  -0.000994
    21  I   -0.124649   0.000761
    22  H    0.182904  -0.002605
    23  H    0.182731  -0.002911
    24  H    0.162413  -0.003652
 Sum of Mulliken charges =  -1.00000   1.00000

 Dipole moment (field-independent basis, Debye):
    X=            -18.3051    Y=              9.6074    Z=             -3.1718  Tot=             20.9150
 Quadrupole moment (field-independent basis, Debye-Ang):
   XX=           -201.6153   YY=           -162.8418   ZZ=           -134.8704
   XY=             46.4435   XZ=            -18.0867   YZ=             17.0563

  Exact polarizability: 461.293  43.717 352.530 -95.861-150.677 290.588
 Approx polarizability: 490.417   7.438 392.193 -70.203-154.044 312.191

                      1                      2                      3
                      A                      A                      A
 Frequencies --     37.7648                79.2014               104.4155
 Red. masses --      8.2763                 6.5978                10.2908
 Frc consts  --      0.0070                 0.0244                 0.0661
 IR Inten    --      6.8901                 8.1177                 1.8032

                      4                      5                      6
                      A                      A                      A
 Frequencies --    125.4373               152.9320               184.8090
 Red. masses --      4.5854                 6.1270                15.9622
 Frc consts  --      0.0425                 0.0844                 0.3212
 IR Inten    --      0.7236                 2.0615                 2.7999

                      7                      8                      9
                      A                      A                      A
 Frequencies --    188.0596               265.9480               267.1503
 Red. masses --      6.4736                 5.7966                 6.1335
 Frc consts  --      0.1349                 0.2416                 0.2579
 IR Inten    --      2.2505                 7.2759                 1.7290

                     10                     11                     12
                      A                      A                      A
 Frequencies --    326.2643               379.5961               405.5524
 Red. masses --      6.8457                10.5899                 7.6523
 Frc consts  --      0.4293                 0.8991                 0.7415
 IR Inten    --      1.5754                18.6857                 9.9747

                     13                     14                     15
                      A                      A                      A
 Frequencies --    414.7187               431.4014               454.1418
 Red. masses --      3.4506                 5.9011                 8.2537
 Frc consts  --      0.3497                 0.6471                 1.0030
 IR Inten    --      3.0986                 3.2993                 6.2593

                     16                     17                     18
                      A                      A                      A
 Frequencies --    461.7233               499.1387               517.0129
 Red. masses --      3.1181                11.1042                 4.5769
 Frc consts  --      0.3917                 1.6300                 0.7208
 IR Inten    --      0.0103                 2.8423                 7.8570

                     19                     20                     21
                      A                      A                      A
 Frequencies --    630.6822               637.4231               638.5090
 Red. masses --      6.9573                 4.5621                 7.2109
 Frc consts  --      1.6305                 1.0921                 1.7321
 IR Inten    --     63.6431                 6.5616                 3.3943

                     22                     23                     24
                      A                      A                      A
 Frequencies --    690.9862               695.2238               704.4235
 Red. masses --      7.2602                 6.7168                 2.5354
 Frc consts  --      2.0424                 1.9128                 0.7412
 IR Inten    --     12.5051                16.0383               120.3211

                     25                     26                     27
                      A                      A                      A
 Frequencies --    724.2387               786.1518               796.1886
 Red. masses --      4.5971                 1.6066                 3.1262
 Frc consts  --      1.4207                 0.5850                 1.1676
 IR Inten    --      0.0027                13.6444                14.3959

                     28                     29                     30
                      A                      A                      A
 Frequencies --    813.0149               830.1962               887.3986
 Red. masses --      6.7669                 1.8015                 1.4687
 Frc consts  --      2.6353                 0.7315                 0.6814
 IR Inten    --     52.1677                37.3695                 0.1493

                     31                     32                     33
                      A                      A                      A
 Frequencies --    922.4214               932.2971               946.0929
 Red. masses --      1.4035                 6.6357                 7.4000
 Frc consts  --      0.7036                 3.3982                 3.9026
 IR Inten    --     13.5638                75.6350                25.8671

                     34                     35                     36
                      A                      A                      A
 Frequencies --    985.9759               991.1017              1003.6853
 Red. masses --      1.3230                 1.3672                 1.2916
 Frc consts  --      0.7578                 0.7913                 0.7666
 IR Inten    --      0.4757                 3.7806                 0.0225

                     37                     38                     39
                      A                      A                      A
 Frequencies --   1040.0536              1064.6147              1111.9129
 Red. masses --      2.0406                 2.0685                 2.3572
 Frc consts  --      1.3005                 1.3813                 1.7171
 IR Inten    --     32.8336                 7.8304                57.2049

                     40                     41                     42
                      A                      A                      A
 Frequencies --   1124.7895              1152.2521              1176.5196
 Red. masses --      2.0769                 1.3910                 2.9056
 Frc consts  --      1.5481                 1.0881                 2.3697
 IR Inten    --     45.4997                12.0485                 6.3349

                     43                     44                     45
                      A                      A                      A
 Frequencies --   1195.1268              1218.8599              1225.5991
 Red. masses --      2.0160                 1.6450                 2.5060
 Frc consts  --      1.6965                 1.4399                 2.2178
 IR Inten    --      5.9512                 0.5513                31.7324

                     46                     47                     48
                      A                      A                      A
 Frequencies --   1256.0438              1330.2694              1353.6730
 Red. masses --      1.9368                 2.2151                10.0114
 Frc consts  --      1.8003                 2.3095                10.8087
 IR Inten    --    339.3288                85.3858                 8.9451

                     49                     50                     51
                      A                      A                      A
 Frequencies --   1358.3917              1397.9234              1450.2072
 Red. masses --      9.9954                 3.0884                 2.7641
 Frc consts  --     10.8667                 3.5559                 3.4251
 IR Inten    --      2.2202               879.1021               436.3662

                     52                     53                     54
                      A                      A                      A
 Frequencies --   1470.9668              1481.9613              1497.5806
 Red. masses --      3.6682                 3.0328                 3.8310
 Frc consts  --      4.6764                 3.9243                 5.0622
 IR Inten    --    444.9675                75.8991               873.8296

                     55                     56                     57
                      A                      A                      A
 Frequencies --   1516.0915              1550.3781              1596.8859
 Red. masses --      6.7958                 5.6651                 6.4998
 Frc consts  --      9.2033                 8.0229                 9.7656
 IR Inten    --     56.9154                66.9544                93.1902

                     58                     59                     60
                      A                      A                      A
 Frequencies --   1605.5208              1628.7867              3160.5395
 Red. masses --      8.7379                 5.9158                 1.0861
 Frc consts  --     13.2705                 9.2468                 6.3920
 IR Inten    --      7.5470                 4.4385                12.4540

                     61                     62                     63
                      A                      A                      A
 Frequencies --   3174.3089              3183.7721              3190.1351
 Red. masses --      1.0903                 1.0868                 1.0919
 Frc consts  --      6.4726                 6.4909                 6.5470
 IR Inten    --     20.5351                 2.8937                15.5654

                     64                     65                     66
                      A                      A                      A
 Frequencies --   3193.5183              3198.1341              3202.7478
 Red. masses --      1.0946                 1.0947                 1.0906
 Frc consts  --      6.5770                 6.5967                 6.5912
 IR Inten    --     50.5036                11.4059                 8.1653

 - Thermochemistry -
 -------------------
 Temperature   298.150 Kelvin.  Pressure   1.00000 Atm.
 Atom     1 has atomic number  6 and mass  12.00000

 Molecular mass:   333.94500 amu.
 Principal axes and moments of inertia in atomic units:
                           1         2         3
     Eigenvalues --  1842.28464********************
           X            0.63312   0.75556   0.16817
           Y            0.55405  -0.59407   0.58319
           Z           -0.54054   0.27605   0.79474
 This molecule is an asymmetric top.
 Rotational symmetry number  1.
 Warning -- assumption of classical behavior for rotation
           may cause significant error
 Rotational temperatures (Kelvin)      0.04701     0.00655     0.00575
 Rotational constants (GHZ):           0.97962     0.13647     0.11979
 Zero-point vibrational energy     436749.7 (Joules/Mol)
                                  104.38568 (Kcal/Mol)
 Warning -- explicit consideration of  18 degrees of freedom as
           vibrations may cause significant error
 Vibrational temperatures:     54.34   113.95   150.23   180.48   220.04
          (Kelvin)            265.90   270.58   382.64   384.37   469.42
                              546.15   583.50   596.69   620.69   653.41
                              664.32   718.15   743.87   907.41   917.11
                              918.67   994.18  1000.27  1013.51  1042.02
                             1131.10  1145.54  1169.75  1194.47  1276.77
                             1327.16  1341.37  1361.22  1418.60  1425.97
                             1444.08  1496.41  1531.74  1599.79  1618.32
                             1657.83  1692.75  1719.52  1753.67  1763.36
                             1807.17  1913.96  1947.63  1954.42  2011.30
                             2086.52  2116.39  2132.21  2154.68  2181.32
                             2230.65  2297.56  2309.99  2343.46  4547.31
                             4567.12  4580.74  4589.89  4594.76  4601.40
                             4608.04

 Zero-point correction=                           0.166349 (Hartree/Particle)
 Thermal correction to Energy=                    0.179280
 Thermal correction to Enthalpy=                  0.180224
 Thermal correction to Gibbs Free Energy=         0.124369
 Sum of electronic and zero-point Energies=           -986.126368
 Sum of electronic and thermal Energies=              -986.113437
 Sum of electronic and thermal Enthalpies=            -986.112493
 Sum of electronic and thermal Free Energies=         -986.168348

                     E (Thermal)             CV                S
                      KCal/Mol        Cal/Mol-Kelvin    Cal/Mol-Kelvin
 Total                  112.500             50.709            117.557
 Electronic               0.000              0.000              1.377
 Translational            0.889              2.981             43.312
 Rotational               0.889              2.981             34.261
 Vibrational            110.722             44.747             38.606
 Vibration     1          0.594              1.982              5.373
 Vibration     2          0.600              1.963              3.911
 Vibration     3          0.605              1.946              3.370
 Vibration     4          0.610              1.928              3.015
 Vibration     5          0.619              1.899              2.635
 Vibration     6          0.631              1.861              2.279
 Vibration     7          0.633              1.856              2.247
 Vibration     8          0.672              1.736              1.622
 Vibration     9          0.672              1.733              1.615
 Vibration    10          0.710              1.623              1.279
 Vibration    11          0.750              1.514              1.041
 Vibration    12          0.771              1.458              0.942
 Vibration    13          0.778              1.438              0.910
 Vibration    14          0.792              1.402              0.854
 Vibration    15          0.813              1.352              0.783
 Vibration    16          0.819              1.335              0.761
 Vibration    17          0.855              1.252              0.660
 Vibration    18          0.872              1.212              0.617

 Optimization completed.
    -- Stationary point found.
 Normal termination of Gaussian 16 at Sat Feb 10 23:43:23 2024.
