 Q-Chem 5.4, Q-Chem, Inc., Pleasanton, CA (2021)
 Q-Chem 5.4.0 for Intel X86 EM64T Linux

User input:
--------------------------------------------------------------
$molecule
0 1
C                 -2.9637860000     -2.0529370000     -0.0358190000
C                 -2.3359990000     -0.6799800000     -0.0490140000
C                 -3.1974190000      0.4194560000     -0.0966560000
C                 -2.7267680000      1.7207070000     -0.1127190000
C                 -1.3610370000      2.0155470000     -0.0823040000
C                 -0.9652150000      3.4722970000     -0.1041380000
C                 -0.4608390000      0.9249150000     -0.0335710000
C                  1.0114410000      1.1930230000      0.0006470000
O                  1.4626140000      2.3294420000     -0.0128020000
C                  1.9511900000      0.0382500000      0.0526900000
C                  3.3292190000      0.2814430000      0.0855150000
C                  4.2215290000     -0.7813710000      0.1340010000
C                  3.7457300000     -2.0968270000      0.1500810000
C                  2.3796770000     -2.3437920000      0.1176390000
C                  1.4757470000     -1.2762250000      0.0688070000
C                  0.0143810000     -1.5636240000      0.0346480000
O                 -0.3657820000     -2.7257040000      0.0494750000
C                 -0.9460930000     -0.4166790000     -0.0170070000
H                 -2.6861800000     -2.6185540000      0.8552020000
H                 -2.6386780000     -2.6569830000     -0.8845290000
H                 -4.0512020000     -1.9548050000     -0.0676440000
H                 -4.2674500000      0.2430160000     -0.1217380000
H                 -3.4365810000      2.5401520000     -0.1500940000
H                 -0.3358090000      3.7098370000     -0.9633850000
H                 -0.3827230000      3.7487120000      0.7763100000
H                 -1.8640010000      4.0918480000     -0.1422210000
H                  3.6735180000      1.3077740000      0.0721280000
H                  5.2885420000     -0.5909090000      0.1593980000
H                  4.4442510000     -2.9251240000      0.1879230000
H                  1.9877250000     -3.3529090000      0.1291780000
$end
$rem
MAX_SCF_CYCLES=200
BASIS  =  6-311++G(d,p)
GUI  =  2
JOB_TYPE  =  SP
METHOD  =  B3LYP
SOLVENT_METHOD = COSMO
$end
$solvent
dielectric 37.219
opticaldielectric 1.43
$end

--------------------------------------------------------------

             Standard Nuclear Orientation (Angstroms)
    I     Atom           X                Y                Z
 ----------------------------------------------------------------
    1      C      -2.2919555969    -2.9379627278     0.0000546623
    2      C      -2.1684855685    -1.4332844618     0.0001855475
    3      C      -3.3531296115    -0.6918723605     0.0007166576
    4      C      -3.3531131630     0.6919717594     0.0007021790
    5      C      -2.1684391613     1.4333381030     0.0001395154
    6      C      -2.2917554865     2.9380192506    -0.0001246556
    7      C      -0.9502972171     0.7133800407    -0.0001706767
    8      C       0.3437360298     1.4658021594    -0.0004552079
    9      O       0.3815012281     2.6879967417    -0.0009917741
   10      C       1.6209459121     0.6989436187     0.0000279431
   11      C       2.8347977463     1.3958997415     0.0003860933
   12      C       4.0360708788     0.6994197273     0.0006650759
   13      C       4.0360393946    -0.6995326383     0.0005217407
   14      C       2.8347385066    -1.3959671427     0.0001333434
   15      C       1.6209171910    -0.6989656487    -0.0000663564
   16      C       0.3436954480    -1.4658164026    -0.0004521860
   17      O       0.3814384919    -2.6880065536    -0.0010607167
   18      C      -0.9503246909    -0.7133716091    -0.0001524459
   19      H      -1.8091814729    -3.3857457893     0.8702992138
   20      H      -1.8095985854    -3.3855498203    -0.8705043271
   21      H      -3.3485013061    -3.2151402450     0.0003102860
   22      H      -4.2998743140    -1.2214012326     0.0011207208
   23      H      -4.2998309856     1.2215439485     0.0010952220
   24      H      -1.8094832414     3.3854043730    -0.8708385037
   25      H      -1.8086660613     3.3858281788     0.8699228340
   26      H      -3.3482535313     3.2153669188     0.0003025681
   27      H       2.8094860885     2.4782285522     0.0003969302
   28      H       4.9752278847     1.2411037199     0.0009709001
   29      H       4.9751642412    -1.2412742855     0.0007085770
   30      H       2.8093498540    -2.4782942779    -0.0000318734
 ----------------------------------------------------------------

    9    -767.5995845366      2.42e-06  Convergence criterion met
 Total energy in the final basis set =     -767.5995845366
    5    -767.6113632038      2.84e-06  Convergence criterion met
 Total energy in the final basis set =     -767.6113632038

                    Orbital Energies (a.u.)
 --------------------------------------------------------------

 Alpha MOs
 -- Occupied --
-19.1248 -19.1248 -10.2792 -10.2792 -10.2080 -10.2076 -10.2062 -10.2062
-10.2030 -10.2025 -10.1939 -10.1934 -10.1925 -10.1925 -10.1886 -10.1880
-10.1645 -10.1645  -1.0627  -1.0610  -0.8900  -0.8799  -0.8087  -0.8045
 -0.7738  -0.7651  -0.7264  -0.6971  -0.6573  -0.6566  -0.6402  -0.6004
 -0.5683  -0.5558  -0.5381  -0.4973  -0.4922  -0.4838  -0.4749  -0.4577
 -0.4573  -0.4470  -0.4430  -0.4356  -0.4283  -0.4177  -0.4118  -0.4016
 -0.4009  -0.3829  -0.3792  -0.3751  -0.3690  -0.3664  -0.3598  -0.3573
 -0.2852  -0.2782  -0.2748  -0.2724  -0.2668  -0.2582

          Ground-State Mulliken Net Atomic Charges

     Atom                 Charge (a.u.)
  ----------------------------------------
      1 C                    -0.364678
      2 C                     0.964174
      3 C                    -0.513413
      4 C                    -0.513224
      5 C                     0.964249
      6 C                    -0.364919
      7 C                     0.336906
      8 C                    -1.037629
      9 O                    -0.258812
     10 C                     0.128580
     11 C                     0.115837
     12 C                    -0.511407
     13 C                    -0.511486
     14 C                     0.115580
     15 C                     0.129215
     16 C                    -1.037814
     17 O                    -0.258809
     18 C                     0.337069
     19 H                     0.182093
     20 H                     0.181809
     21 H                     0.170252
     22 H                     0.176748
     23 H                     0.176863
     24 H                     0.182153
     25 H                     0.181768
     26 H                     0.170163
     27 H                     0.205700
     28 H                     0.223624
     29 H                     0.223672
     30 H                     0.205737
  ----------------------------------------
  Sum of atomic charges =     0.000000

                    Cartesian Multipole Moments
 -----------------------------------------------------------------
    Charge (ESU x 10^10)
                 0.0000
    Dipole Moment (Debye)
         X      -0.8148      Y       0.0002      Z       0.0047
       Tot       0.8148
    Quadrupole Moments (Debye-Ang)
        XX     -73.6621     XY       0.0017     YY    -114.7620
        XZ       0.0021     YZ      -0.0044     ZZ    -107.2696

 Total job time:  93.18s(wall), 533.57s(cpu)
        *  Thank you very much for using Q-Chem.  Have a nice day.  *
