 Q-Chem 5.4, Q-Chem, Inc., Pleasanton, CA (2021)
 Q-Chem 5.4.0 for Intel X86 EM64T Linux

User input:
--------------------------------------------------------------
$molecule
-1 2
C                  5.7353010000     -5.3557230000      1.3223510000
C                  6.6989460000     -5.1908220000      0.3394520000
C                  6.6085500000     -4.1739070000     -0.6159450000
C                  4.6260050000     -4.4566880000      1.3489400000
C                  4.5329070000     -3.4079090000      0.3638860000
C                  5.5506730000     -3.2780230000     -0.6295000000
C                  3.5756920000     -4.6030790000      2.3858740000
C                  2.4943150000     -3.6607920000      2.3444990000
C                  2.4060200000     -2.6647680000      1.4092460000
C                  3.3863070000     -2.4672260000      0.3801670000
O                  3.6076030000     -5.5032700000      3.2721220000
O                  3.2554620000     -1.5308320000     -0.4581970000
C                  5.9326770000     -6.4895860000      2.3059380000
H                  7.5462570000     -5.8710470000      0.3125350000
H                  1.5731080000     -1.9672090000      1.4062740000
C                  5.5527040000     -2.2164700000     -1.7089060000
H                  7.3871350000     -4.0816560000     -1.3687090000
H                  6.8594160000     -7.0218830000      2.0621360000
H                  5.0989190000     -7.1934850000      2.2880470000
H                  5.9847250000     -6.1308240000      3.3352590000
H                  1.7340510000     -3.7826870000      3.1109740000
H                  5.5478000000     -1.2092060000     -1.2889770000
H                  4.6609030000     -2.2716540000     -2.3354620000
H                  6.4427740000     -2.3413230000     -2.3364630000
$end

$rem
BASIS  =  6-311++G(d,p)
GUI  =  2
JOB_TYPE  =  SP
METHOD  =  B3LYP
SCF_CONVERGENCE  = 8
SOLVENT_METHOD = sm12
$end

$smx
solvent dimethylformamide
charges CM5
$end

--------------------------------------------------------------

             Standard Nuclear Orientation (Angstroms)
    I     Atom           X                Y                Z
 ----------------------------------------------------------------
    1      C       5.7353010000    -5.3557230000     1.3223510000
    2      C       6.6989460000    -5.1908220000     0.3394520000
    3      C       6.6085500000    -4.1739070000    -0.6159450000
    4      C       4.6260050000    -4.4566880000     1.3489400000
    5      C       4.5329070000    -3.4079090000     0.3638860000
    6      C       5.5506730000    -3.2780230000    -0.6295000000
    7      C       3.5756920000    -4.6030790000     2.3858740000
    8      C       2.4943150000    -3.6607920000     2.3444990000
    9      C       2.4060200000    -2.6647680000     1.4092460000
   10      C       3.3863070000    -2.4672260000     0.3801670000
   11      O       3.6076030000    -5.5032700000     3.2721220000
   12      O       3.2554620000    -1.5308320000    -0.4581970000
   13      C       5.9326770000    -6.4895860000     2.3059380000
   14      H       7.5462570000    -5.8710470000     0.3125350000
   15      H       1.5731080000    -1.9672090000     1.4062740000
   16      C       5.5527040000    -2.2164700000    -1.7089060000
   17      H       7.3871350000    -4.0816560000    -1.3687090000
   18      H       6.8594160000    -7.0218830000     2.0621360000
   19      H       5.0989190000    -7.1934850000     2.2880470000
   20      H       5.9847250000    -6.1308240000     3.3352590000
   21      H       1.7340510000    -3.7826870000     3.1109740000
   22      H       5.5478000000    -1.2092060000    -1.2889770000
   23      H       4.6609030000    -2.2716540000    -2.3354620000
   24      H       6.4427740000    -2.3413230000    -2.3364630000
 ----------------------------------------------------------------

   16    -613.9712441902      3.45e-09  Convergence criterion met
 Total energy in the final basis set =     -614.0561230138

                    Orbital Energies (a.u.)
 --------------------------------------------------------------

 Alpha MOs
 -- Occupied --
-19.0730 -19.0729 -10.2233 -10.2233 -10.1898 -10.1898 -10.1852 -10.1848
-10.1765 -10.1760 -10.1665 -10.1658 -10.1640 -10.1639  -0.9987  -0.9965
 -0.8659  -0.8095  -0.7918  -0.7454  -0.7183  -0.6869  -0.6503  -0.6210
 -0.6093  -0.5364  -0.5089  -0.4974  -0.4788  -0.4620  -0.4343  -0.4255
 -0.4253  -0.4151  -0.3983  -0.3958  -0.3945  -0.3938  -0.3873  -0.3695
 -0.3641  -0.3523  -0.3458  -0.3452  -0.2778  -0.2594  -0.2499  -0.2366
 -0.2331  -0.1529

 Beta MOs
 -- Occupied --
-19.0661 -19.0661 -10.2222 -10.2222 -10.1898 -10.1897 -10.1847 -10.1843
-10.1761 -10.1755 -10.1649 -10.1643 -10.1640 -10.1639  -0.9870  -0.9844
 -0.8642  -0.8038  -0.7908  -0.7433  -0.7180  -0.6794  -0.6474  -0.6177
 -0.6071  -0.5338  -0.5063  -0.4963  -0.4766  -0.4599  -0.4292  -0.4234
 -0.4225  -0.4131  -0.3981  -0.3920  -0.3903  -0.3863  -0.3823  -0.3622
 -0.3506  -0.3446  -0.3438  -0.3386  -0.2539  -0.2460  -0.2432  -0.2303
 -0.2270

          Ground-State Mulliken Net Atomic Charges

     Atom                 Charge (a.u.)    Spin (a.u.)
  --------------------------------------------------------
      1 C                     0.896455       0.031486
      2 C                    -0.048712       0.025772
      3 C                    -0.054089       0.025719
      4 C                    -0.823246       0.040488
      5 C                    -0.826165       0.040452
      6 C                     0.895717       0.031516
      7 C                    -1.850300       0.046557
      8 C                    -0.149451       0.111633
      9 C                    -0.147807       0.111696
     10 C                    -1.852785       0.046618
     11 O                    -0.300235       0.249173
     12 O                    -0.301074       0.249159
     13 C                     0.768788       0.008461
     14 H                     0.279325      -0.002910
     15 H                     0.222267      -0.010376
     16 C                     0.765204       0.008407
     17 H                     0.279018      -0.002907
     18 H                     0.246428      -0.000484
     19 H                     0.133312       0.000101
     20 H                     0.133224       0.000101
     21 H                     0.222452      -0.010381
     22 H                     0.132900       0.000100
     23 H                     0.132817       0.000104
     24 H                     0.245954      -0.000486
  --------------------------------------------------------
  Sum of atomic charges =    -1.000000

                    Cartesian Multipole Moments
 -----------------------------------------------------------------
    Charge (ESU x 10^10)
                -4.8032
    Dipole Moment (Debye)
         X     -17.3599      Y      17.2076      Z      -6.3348
       Tot      25.2507
    Quadrupole Moments (Debye-Ang)
        XX    -151.7823     XY      63.7113     YY    -166.7767
        XZ     -24.1615     YZ      38.0303     ZZ    -111.5704

 Total job time:  419.78s(wall), 3233.39s(cpu)
        *  Thank you very much for using Q-Chem.  Have a nice day.  *
