 Gaussian 16, Revision A.03,
 Gaussian 16:  ES64L-G16RevA.03 25-Dec-2016

 ----------------------------------------------------------------
 #P UB3LYP/6-311++G(d,p) SCRF=(PCM,Solvent=n,n-DiMethylFormamide)
 ----------------------------------------------------------------

 ------------------
 Radical PCM in DMF
 ------------------
 Symbolic Z-matrix:
 Charge = -1 Multiplicity = 2

                         Standard orientation:
 ---------------------------------------------------------------------
 Center     Atomic      Atomic             Coordinates (Angstroms)
 Number     Number       Type             X           Y           Z
 ---------------------------------------------------------------------
      1          6           0        2.015543   -1.846284   -0.078134
      2          6           0        3.373328   -1.602583    0.028844
      3          6           0        3.842199   -0.279023    0.138722
      4          6           0        1.086796   -0.786920   -0.076928
      5          6           0        1.557935    0.543297    0.031052
      6          6           0        2.944002    0.773251    0.137673
      7          6           0       -0.350568   -1.084945   -0.208735
      8          6           0       -1.240838    0.060089   -0.157835
      9          6           0       -0.788721    1.376510   -0.049282
     10          6           0        0.627426    1.681637    0.033282
     11          8           0       -0.749398   -2.268469   -0.352793
     12          8           0        1.056176    2.865309    0.118924
     13          1           0        1.624954   -2.853331   -0.167943
     14          1           0        4.077155   -2.429897    0.027876
     15          1           0        4.907853   -0.085776    0.221883
     16          1           0        3.274706    1.802344    0.218010
     17         16           0       -2.999830   -0.240656   -0.368396
     18          6           0       -3.359667   -1.508143    0.906157
     19          6           0       -1.725837    2.556878   -0.020735
     20          1           0       -4.426179   -1.729450    0.820343
     21          1           0       -3.151944   -1.115827    1.903522
     22          1           0       -2.762588   -2.396237    0.711792
     23          1           0       -2.115941    2.786189   -1.020865
     24          1           0       -1.182591    3.434515    0.330336
     25          1           0       -2.591953    2.360654    0.615856
 ---------------------------------------------------------------------

 SCF Done:  E(UB3LYP) =  -1012.27437312     A.U. after   23 cycles

 The electronic state is 2-A.
 Alpha  occ. eigenvalues --  -88.83739 -19.07524 -19.07518 -10.22547 -10.22025
 Alpha  occ. eigenvalues --  -10.18979 -10.18097 -10.17609 -10.17337 -10.17300
 Alpha  occ. eigenvalues --  -10.17287 -10.17228 -10.16989 -10.16956 -10.15202
 Alpha  occ. eigenvalues --   -7.92331  -5.88723  -5.88348  -5.87730  -1.00302
 Alpha  occ. eigenvalues --   -0.99927  -0.85847  -0.82328  -0.77147  -0.75025
 Alpha  occ. eigenvalues --   -0.74919  -0.69949  -0.66101  -0.63996  -0.59771
 Alpha  occ. eigenvalues --   -0.58293  -0.55212  -0.51277  -0.48942  -0.46538
 Alpha  occ. eigenvalues --   -0.44871  -0.43150  -0.42665  -0.42375  -0.42009
 Alpha  occ. eigenvalues --   -0.41227  -0.40789  -0.39583  -0.38542  -0.38180
 Alpha  occ. eigenvalues --   -0.37156  -0.36632  -0.35307  -0.34788  -0.33763
 Alpha  occ. eigenvalues --   -0.31801  -0.27234  -0.25651  -0.25451  -0.24625
 Alpha  occ. eigenvalues --   -0.23564  -0.21912  -0.15199
 Alpha virt. eigenvalues --   -0.03454  -0.01952  -0.00395   0.00488   0.00792
 Alpha virt. eigenvalues --    0.01909   0.02595   0.02829   0.03724   0.04158
 Alpha virt. eigenvalues --    0.04614   0.04791   0.05229   0.05635   0.06082

  Beta  occ. eigenvalues --  -88.83736 -19.06958 -19.06885 -10.22389 -10.21861
  Beta  occ. eigenvalues --  -10.18852 -10.18088 -10.17421 -10.17308 -10.17255
  Beta  occ. eigenvalues --  -10.17250 -10.17185 -10.16986 -10.16947 -10.15216
  Beta  occ. eigenvalues --   -7.92329  -5.88726  -5.88348  -5.87715  -0.99309
  Beta  occ. eigenvalues --   -0.98808  -0.85641  -0.81936  -0.76951  -0.74813
  Beta  occ. eigenvalues --   -0.74758  -0.69621  -0.65585  -0.63739  -0.59656
  Beta  occ. eigenvalues --   -0.57981  -0.54939  -0.51048  -0.48708  -0.46291
  Beta  occ. eigenvalues --   -0.44752  -0.42666  -0.42494  -0.41940  -0.41750
  Beta  occ. eigenvalues --   -0.40956  -0.40331  -0.38958  -0.38210  -0.37981
  Beta  occ. eigenvalues --   -0.36569  -0.35336  -0.34834  -0.33813  -0.33556
  Beta  occ. eigenvalues --   -0.31497  -0.25371  -0.24962  -0.24680  -0.24038
  Beta  occ. eigenvalues --   -0.23035  -0.21331
  Beta virt. eigenvalues --   -0.08693  -0.02715  -0.00994  -0.00327   0.00535
  Beta virt. eigenvalues --    0.00882   0.01935   0.02611   0.02846   0.03781
  Beta virt. eigenvalues --    0.04372   0.04731   0.05050   0.05341   0.05839

 Mulliken charges and spin densities:
               1          2
     1  C    0.021458   0.028983
     2  C   -0.389879   0.028868
     3  C   -0.455758   0.018922
     4  C    0.951716   0.042789
     5  C    0.519323   0.017680
     6  C    0.060566   0.033030
     7  C   -1.574790   0.093548
     8  C    1.124715   0.060373
     9  C    0.669206   0.130297
    10  C   -1.408557   0.090885
    11  O   -0.440431   0.206933
    12  O   -0.455769   0.235915
    13  H    0.169279  -0.002126
    14  H    0.183969  -0.002114
    15  H    0.183072  -0.001811
    16  H    0.164568  -0.002595
    17  S   -0.593960   0.012221
    18  C   -0.601924   0.003948
    19  C   -0.159140  -0.008238
    20  H    0.165606   0.001553
    21  H    0.172922   0.000160
    22  H    0.195079  -0.001062
    23  H    0.178444   0.008862
    24  H    0.177971  -0.001071
    25  H    0.142315   0.004047
 Sum of Mulliken charges =  -1.00000   1.00000

 Dipole moment (field-independent basis, Debye):
    X=              0.3573    Y=             -2.0360    Z=              1.9517  Tot=              2.8429
 Quadrupole moment (field-independent basis, Debye-Ang):
   XX=           -103.7233   YY=           -127.8945   ZZ=           -101.8737
   XY=             -9.6013   XZ=             -5.3202   YZ=             -4.6488

 Normal termination of Gaussian 16 at Sun Jan 21 08:36:57 2024.
