 Gaussian 16, Revision A.03,
 Gaussian 16:  ES64L-G16RevA.03 25-Dec-2016

 ----------------------------------------------------------------
 #P UB3LYP/6-311++G(d,p) SCRF=(PCM,Solvent=n,n-DiMethylFormamide)
 ----------------------------------------------------------------

 ------------------
 Radical PCM in DMF
 ------------------
 Symbolic Z-matrix:
 Charge = -1 Multiplicity = 2

                         Standard orientation:
 ---------------------------------------------------------------------
 Center     Atomic      Atomic             Coordinates (Angstroms)
 Number     Number       Type             X           Y           Z
 ---------------------------------------------------------------------
      1          6           0       -4.974522   -1.640452    0.000066
      2          6           0       -3.672417   -0.875994    0.000071
      3          6           0       -3.683661    0.533702    0.000254
      4          6           0       -2.504931    1.270951    0.000248
      5          8           0       -2.588843    2.639932    0.000619
      6          6           0       -1.233163    0.631990   -0.000125
      7          6           0        0.030795    1.401681   -0.000496
      8          8           0        0.043976    2.641957   -0.001157
      9          6           0        1.279169    0.606899   -0.000144
     10          6           0        2.564224    1.219217    0.000079
     11          8           0        2.676872    2.583733    0.000177
     12          6           0        3.732329    0.462913    0.000234
     13          6           0        3.662621   -0.936114    0.000234
     14          8           0        4.865148   -1.620763    0.000344
     15          6           0        2.445884   -1.573789    0.000087
     16          6           0        1.250553   -0.820878   -0.000104
     17          6           0       -0.001305   -1.568946   -0.000221
     18          8           0       -0.006395   -2.833542   -0.000219
     19          6           0       -1.236291   -0.797258   -0.000206
     20          6           0       -2.453519   -1.518000   -0.000146
     21          1           0       -5.581047   -1.400410    0.881844
     22          1           0       -4.794581   -2.717868   -0.000122
     23          1           0       -5.581231   -1.400142   -0.881513
     24          1           0       -4.634004    1.066810    0.000340
     25          1           0       -3.526204    2.863149    0.001939
     26          1           0        3.617826    2.790824    0.000163
     27          1           0        4.704080    0.948188    0.000387
     28          1           0        4.663262   -2.562169   -0.000064
     29          1           0        2.354540   -2.655223    0.000144
     30          1           0       -2.383291   -2.599233   -0.000207
 ---------------------------------------------------------------------

 SCF Done:  E(UB3LYP) =  -954.157675499     A.U. after   20 cycles

 The electronic state is 2-A.
 Alpha  occ. eigenvalues --  -19.15766 -19.15367 -19.15034 -19.06824 -19.06719
 Alpha  occ. eigenvalues --  -10.24455 -10.23806 -10.23802 -10.23146 -10.21360
 Alpha  occ. eigenvalues --  -10.18142 -10.17571 -10.17243 -10.17228 -10.17074
 Alpha  occ. eigenvalues --  -10.16888 -10.16452 -10.16383 -10.15979 -10.15555
 Alpha  occ. eigenvalues --   -1.06757  -1.06391  -1.06313  -1.00330  -0.99231
 Alpha  occ. eigenvalues --   -0.85810  -0.84849  -0.79060  -0.75643  -0.74445
 Alpha  occ. eigenvalues --   -0.73948  -0.69708  -0.66532  -0.64332  -0.62048
 Alpha  occ. eigenvalues --   -0.60362  -0.57888  -0.56281  -0.54236  -0.50382
 Alpha  occ. eigenvalues --   -0.50207  -0.49842  -0.47681  -0.46400  -0.44938
 Alpha  occ. eigenvalues --   -0.43709  -0.43563  -0.42355  -0.41668  -0.41231
 Alpha  occ. eigenvalues --   -0.40847  -0.40697  -0.40008  -0.39624  -0.38920
 Alpha  occ. eigenvalues --   -0.37952  -0.37549  -0.37037  -0.36655  -0.35844
 Alpha  occ. eigenvalues --   -0.34776  -0.34461  -0.32404  -0.30843  -0.25598
 Alpha  occ. eigenvalues --   -0.24153  -0.23874  -0.23210  -0.22693  -0.22469
 Alpha  occ. eigenvalues --   -0.13504
 Alpha virt. eigenvalues --   -0.03872  -0.01945  -0.00593  -0.00081   0.00602
 Alpha virt. eigenvalues --    0.01117   0.01198   0.02029   0.03127   0.03636
 Alpha virt. eigenvalues --    0.03788   0.04000   0.04978   0.05229   0.05862

  Beta  occ. eigenvalues --  -19.15758 -19.15374 -19.15040 -19.06382 -19.06118
  Beta  occ. eigenvalues --  -10.24495 -10.23850 -10.23794 -10.23064 -10.21103
  Beta  occ. eigenvalues --  -10.18132 -10.17506 -10.17176 -10.17136 -10.17023
  Beta  occ. eigenvalues --  -10.16799 -10.16385 -10.16340 -10.15900 -10.15494
  Beta  occ. eigenvalues --   -1.06764  -1.06375  -1.06323  -0.99582  -0.98146
  Beta  occ. eigenvalues --   -0.85561  -0.84725  -0.78741  -0.75471  -0.74231
  Beta  occ. eigenvalues --   -0.73716  -0.69542  -0.65936  -0.64150  -0.61841
  Beta  occ. eigenvalues --   -0.60264  -0.57774  -0.56078  -0.54116  -0.50275
  Beta  occ. eigenvalues --   -0.50065  -0.49753  -0.47384  -0.46331  -0.44821
  Beta  occ. eigenvalues --   -0.43382  -0.43223  -0.42235  -0.41554  -0.41104
  Beta  occ. eigenvalues --   -0.40651  -0.40358  -0.39745  -0.39531  -0.37886
  Beta  occ. eigenvalues --   -0.37570  -0.37490  -0.36966  -0.35688  -0.34928
  Beta  occ. eigenvalues --   -0.34618  -0.34340  -0.32037  -0.29687  -0.23945
  Beta  occ. eigenvalues --   -0.23524  -0.23337  -0.22260  -0.22212  -0.22046
  Beta virt. eigenvalues --   -0.07723  -0.02972  -0.00934  -0.00585  -0.00083
  Beta virt. eigenvalues --    0.00604   0.01192   0.01309   0.02047   0.03252
  Beta virt. eigenvalues --    0.03651   0.03797   0.04005   0.05058   0.05232

 Mulliken charges and spin densities:
               1          2
     1  C   -0.309458   0.002550
     2  C    0.328468   0.005397
     3  C   -0.236203   0.098510
     4  C    0.042780  -0.011795
     5  O   -0.223958  -0.001363
     6  C    0.003517   0.042533
     7  C   -0.315367   0.026264
     8  O   -0.440728   0.166639
     9  C   -0.237321   0.026898
    10  C    0.064741  -0.007814
    11  O   -0.218914  -0.001877
    12  C   -0.026162   0.071772
    13  C   -0.813792   0.001155
    14  O   -0.294306   0.002634
    15  C    0.104580   0.096569
    16  C    0.785424   0.034678
    17  C   -0.686566   0.147836
    18  O   -0.466934   0.227930
    19  C    0.314442   0.022184
    20  C   -0.360865   0.072583
    21  H    0.163764   0.001459
    22  H    0.166706   0.000055
    23  H    0.163771   0.001458
    24  H    0.145723  -0.007590
    25  H    0.290099  -0.000348
    26  H    0.295420  -0.000388
    27  H    0.182822  -0.005993
    28  H    0.304113  -0.000219
    29  H    0.151427  -0.006379
    30  H    0.122776  -0.005338
 Sum of Mulliken charges =  -1.00000   1.00000

 Dipole moment (field-independent basis, Debye):
    X=             -1.6961    Y=             -0.4109    Z=              0.0046  Tot=              1.7452
 Quadrupole moment (field-independent basis, Debye-Ang):
   XX=           -100.9763   YY=           -148.8785   ZZ=           -122.2248
   XY=             -3.1682   XZ=             -0.0136   YZ=              0.0154

 Normal termination of Gaussian 16 at Tue Jan 16 05:54:44 2024.
