 Q-Chem 5.4, Q-Chem, Inc., Pleasanton, CA (2021)
 Q-Chem 5.4.0 for Intel X86 EM64T Linux

User input:
--------------------------------------------------------------
$molecule
0 1
C                 -0.3479110000      0.7320900000      0.4395880000
C                 -1.4425130000     -0.1387450000     -0.0445970000
C                 -1.2403400000     -1.2984660000     -0.6941600000
C                  0.1670630000     -1.7380070000     -0.9451000000
C                  1.2692740000     -0.8713540000     -0.4605270000
C                  1.0593410000      0.2778410000      0.2048730000
O                 -0.6068250000      1.7923630000      0.9877190000
O                  0.4115540000     -2.7791890000     -1.5311040000
C                  2.2700440000      1.0643680000      0.6829820000
C                  2.1591760000      1.9149630000      1.9220480000
O                  3.3120410000      0.9512410000      0.0719900000
H                 -2.4401970000      0.2384390000      0.1558740000
H                  1.5310120000      2.7849890000      1.7193370000
H                  3.1582160000      2.2283900000      2.2222470000
H                  1.6708560000      1.3665380000      2.7324080000
C                 -2.3364890000     -2.1857610000     -1.1955340000
H                  2.2761340000     -1.2174440000     -0.6676410000
H                 -3.3168990000     -1.7720030000     -0.9579470000
H                 -2.2520660000     -3.1839620000     -0.7570210000
H                 -2.2561690000     -2.3195700000     -2.2778740000
$end

$rem
BASIS  =  6-311++G(d,p)
GUI  =  2
JOB_TYPE  =  SP
METHOD  =  B3LYP
SCF_CONVERGENCE  = 8
SOLVENT_METHOD = sm12
$end

$smx
solvent dimethylformamide
charges CM5
$end

--------------------------------------------------------------

             Standard Nuclear Orientation (Angstroms)
    I     Atom           X                Y                Z
 ----------------------------------------------------------------
    1      C      -0.3479110000     0.7320900000     0.4395880000
    2      C      -1.4425130000    -0.1387450000    -0.0445970000
    3      C      -1.2403400000    -1.2984660000    -0.6941600000
    4      C       0.1670630000    -1.7380070000    -0.9451000000
    5      C       1.2692740000    -0.8713540000    -0.4605270000
    6      C       1.0593410000     0.2778410000     0.2048730000
    7      O      -0.6068250000     1.7923630000     0.9877190000
    8      O       0.4115540000    -2.7791890000    -1.5311040000
    9      C       2.2700440000     1.0643680000     0.6829820000
   10      C       2.1591760000     1.9149630000     1.9220480000
   11      O       3.3120410000     0.9512410000     0.0719900000
   12      H      -2.4401970000     0.2384390000     0.1558740000
   13      H       1.5310120000     2.7849890000     1.7193370000
   14      H       3.1582160000     2.2283900000     2.2222470000
   15      H       1.6708560000     1.3665380000     2.7324080000
   16      C      -2.3364890000    -2.1857610000    -1.1955340000
   17      H       2.2761340000    -1.2174440000    -0.6676410000
   18      H      -3.3168990000    -1.7720030000    -0.9579470000
   19      H      -2.2520660000    -3.1839620000    -0.7570210000
   20      H      -2.2561690000    -2.3195700000    -2.2778740000
 ----------------------------------------------------------------

   15    -573.5774990039      5.89e-09  Convergence criterion met
 Total energy in the final basis set =     -573.5942345616

                    Orbital Energies (a.u.)
 --------------------------------------------------------------

 Alpha MOs
 -- Occupied --
-19.1458 -19.1423 -19.1311 -10.2912 -10.2891 -10.2846 -10.2249 -10.2216
-10.2216 -10.2057 -10.1747 -10.1733  -1.0765  -1.0741  -1.0665  -0.8727
 -0.8193  -0.7573  -0.7315  -0.7004  -0.6341  -0.6175  -0.5551  -0.5350
 -0.5007  -0.4847  -0.4700  -0.4685  -0.4500  -0.4493  -0.4484  -0.4278
 -0.4233  -0.4089  -0.4084  -0.3977  -0.3901  -0.3769  -0.3161  -0.2952
 -0.2933  -0.2894  -0.2694

          Ground-State Mulliken Net Atomic Charges

     Atom                 Charge (a.u.)
  ----------------------------------------
      1 C                    -1.746708
      2 C                     0.167540
      3 C                     1.342489
      4 C                    -1.445335
      5 C                     0.161861
      6 C                     1.203323
      7 O                    -0.278284
      8 O                    -0.282604
      9 C                    -0.331196
     10 C                    -0.384438
     11 O                    -0.326562
     12 H                     0.278952
     13 H                     0.200352
     14 H                     0.187375
     15 H                     0.207987
     16 C                     0.180073
     17 H                     0.245646
     18 H                     0.241904
     19 H                     0.189077
     20 H                     0.188547
  ----------------------------------------
  Sum of atomic charges =     0.000000

                    Cartesian Multipole Moments
 -----------------------------------------------------------------
    Charge (ESU x 10^10)
                -0.0000
    Dipole Moment (Debye)
         X      -3.4633      Y      -0.5598      Z       1.2329
       Tot       3.7185
    Quadrupole Moments (Debye-Ang)
        XX     -74.3622     XY       4.8533     YY     -77.6653
        XZ       7.3815     YZ      -3.2823     ZZ     -69.0303

 Total job time:  236.06s(wall), 1637.93s(cpu)
        *  Thank you very much for using Q-Chem.  Have a nice day.  *
