 Q-Chem 5.4, Q-Chem, Inc., Pleasanton, CA (2021)
 Q-Chem 5.4.0 for Intel X86 EM64T Linux

User input:
--------------------------------------------------------------
$molecule
-2 1
N                  3.0912990000     -1.2629260000      1.3279160000
C                  2.6444560000     -0.5391410000      0.2008040000
C                  3.5717450000     -0.0839310000     -0.7145480000
C                  3.1624520000      0.7073670000     -1.8217580000
C                  1.8514560000      1.0691950000     -1.9905910000
O                  1.5133760000      1.8596810000     -3.0895760000
C                  0.8281650000      0.6368640000     -1.0708140000
C                 -0.5288320000      0.9939520000     -1.2026850000
O                 -0.9248330000      1.8285070000     -2.2009210000
C                 -1.5101110000      0.4926340000     -0.2991660000
C                 -2.9071980000      0.9196180000     -0.4714140000
O                 -3.2511140000      1.7466950000     -1.4280710000
C                 -3.8451390000      0.3980320000      0.4262860000
C                 -3.4734040000     -0.5064420000      1.4396440000
C                 -2.1681740000     -0.9106950000      1.6383420000
N                 -1.8933260000     -1.8216910000      2.7194770000
C                 -1.1355410000     -0.4174700000      0.7582210000
C                  0.2546560000     -0.7994920000      0.9251590000
O                  0.5984430000     -1.6524130000      1.8619220000
C                  1.2364640000     -0.2335980000      0.0381630000
H                  3.8403540000     -1.9027450000      1.0968930000
H                  2.2720150000     -1.7058000000      1.7779050000
H                  4.6267120000     -0.2987290000     -0.5592240000
H                  3.9040960000      1.0416000000     -2.5490110000
H                  2.3522640000      2.1111640000     -3.4890480000
H                 -1.9398020000      1.9295890000     -2.0494910000
H                 -4.8825610000      0.6991740000      0.3020300000
H                 -4.2382940000     -0.9176530000      2.0988340000
H                 -0.8773840000     -1.9786380000      2.7233380000
H                 -2.1722390000     -1.4027080000      3.6013830000
$end

$rem
BASIS  =  6-311++G(d,p)
GUI  =  2
JOB_TYPE  =  SP
METHOD  =  B3LYP
SCF_CONVERGENCE  = 8
SOLVENT_METHOD = sm12
$end

$smx
solvent dimethylformamide
charges CM5
$end

--------------------------------------------------------------

             Standard Nuclear Orientation (Angstroms)
    I     Atom           X                Y                Z
 ----------------------------------------------------------------
    1      N       3.0912990000    -1.2629260000     1.3279160000
    2      C       2.6444560000    -0.5391410000     0.2008040000
    3      C       3.5717450000    -0.0839310000    -0.7145480000
    4      C       3.1624520000     0.7073670000    -1.8217580000
    5      C       1.8514560000     1.0691950000    -1.9905910000
    6      O       1.5133760000     1.8596810000    -3.0895760000
    7      C       0.8281650000     0.6368640000    -1.0708140000
    8      C      -0.5288320000     0.9939520000    -1.2026850000
    9      O      -0.9248330000     1.8285070000    -2.2009210000
   10      C      -1.5101110000     0.4926340000    -0.2991660000
   11      C      -2.9071980000     0.9196180000    -0.4714140000
   12      O      -3.2511140000     1.7466950000    -1.4280710000
   13      C      -3.8451390000     0.3980320000     0.4262860000
   14      C      -3.4734040000    -0.5064420000     1.4396440000
   15      C      -2.1681740000    -0.9106950000     1.6383420000
   16      N      -1.8933260000    -1.8216910000     2.7194770000
   17      C      -1.1355410000    -0.4174700000     0.7582210000
   18      C       0.2546560000    -0.7994920000     0.9251590000
   19      O       0.5984430000    -1.6524130000     1.8619220000
   20      C       1.2364640000    -0.2335980000     0.0381630000
   21      H       3.8403540000    -1.9027450000     1.0968930000
   22      H       2.2720150000    -1.7058000000     1.7779050000
   23      H       4.6267120000    -0.2987290000    -0.5592240000
   24      H       3.9040960000     1.0416000000    -2.5490110000
   25      H       2.3522640000     2.1111640000    -3.4890480000
   26      H      -1.9398020000     1.9295890000    -2.0494910000
   27      H      -4.8825610000     0.6991740000     0.3020300000
   28      H      -4.2382940000    -0.9176530000     2.0988340000
   29      H      -0.8773840000    -1.9786380000     2.7233380000
   30      H      -2.1722390000    -1.4027080000     3.6013830000
 ----------------------------------------------------------------

   16    -950.1858384199      9.60e-09  Convergence criterion met
 Total energy in the final basis set =     -950.4647566492

                    Orbital Energies (a.u.)
 --------------------------------------------------------------

 Alpha MOs
 -- Occupied --
-19.1393 -19.0897 -19.0523 -19.0492 -14.2922 -14.2882 -10.2238 -10.2095
-10.2069 -10.2056 -10.2038 -10.1870 -10.1714 -10.1667 -10.1662 -10.1646
-10.1625 -10.1584 -10.1572 -10.1440  -1.0462  -1.0147  -0.9699  -0.9580
 -0.8971  -0.8838  -0.8328  -0.8082  -0.7720  -0.7299  -0.7210  -0.6964
 -0.6597  -0.6285  -0.6226  -0.5727  -0.5566  -0.5478  -0.5202  -0.5005
 -0.4942  -0.4825  -0.4762  -0.4565  -0.4487  -0.4375  -0.4352  -0.4165
 -0.4159  -0.4009  -0.3968  -0.3867  -0.3782  -0.3724  -0.3690  -0.3632
 -0.3569  -0.3471  -0.3463  -0.3349  -0.3201  -0.3107  -0.2827  -0.2633
 -0.2501  -0.2377  -0.2284  -0.2173  -0.2023  -0.1793  -0.1271

          Ground-State Mulliken Net Atomic Charges

     Atom                 Charge (a.u.)
  ----------------------------------------
      1 N                    -0.305296
      2 C                     0.245420
      3 C                     3.263587
      4 C                     2.727285
      5 C                     1.112839
      6 O                    -0.128240
      7 C                    -0.708600
      8 C                    -1.729430
      9 O                    -0.347335
     10 C                    -1.278652
     11 C                    -1.111609
     12 O                    -0.423853
     13 C                     0.443627
     14 C                     0.953349
     15 C                    -0.992533
     16 N                    -0.244021
     17 C                    -1.824211
     18 C                    -2.532948
     19 O                    -0.267654
     20 C                    -2.188206
     21 H                     0.380430
     22 H                     0.279299
     23 H                     0.296620
     24 H                     0.376301
     25 H                     0.408298
     26 H                     0.486725
     27 H                     0.203026
     28 H                     0.259355
     29 H                     0.305619
     30 H                     0.340809
  ----------------------------------------
  Sum of atomic charges =    -2.000000

                    Cartesian Multipole Moments
 -----------------------------------------------------------------
    Charge (ESU x 10^10)
                -9.6064
    Dipole Moment (Debye)
         X       9.7203      Y      -1.3228      Z       0.1244
       Tot       9.8106
    Quadrupole Moments (Debye-Ang)
        XX    -182.6848     XY       9.8902     YY    -150.2033
        XZ     -11.2345     YZ      21.2973     ZZ    -151.3407

 Total job time:  843.26s(wall), 6548.80s(cpu)
        *  Thank you very much for using Q-Chem.  Have a nice day.  *
