 Q-Chem 5.4, Q-Chem, Inc., Pleasanton, CA (2021)
 Q-Chem 5.4.0 for Intel X86 EM64T Linux

User input:
--------------------------------------------------------------
$molecule
0 1
C                  0.3048080000      3.8785510000      0.4773610000
C                 -0.8695240000      3.4721340000      1.1023070000
C                 -1.2671200000      2.1341250000      1.0454840000
C                  1.0913670000      2.9447880000     -0.2025500000
C                  0.6930740000      1.6036330000     -0.2590230000
C                 -0.4899380000      1.2021070000      0.3650060000
C                  2.3361680000      3.3965960000     -0.8869230000
C                  3.2144880000      2.3483800000     -1.5005940000
C                  2.8178160000      1.0438030000     -1.5786020000
C                  1.5275200000      0.6018840000     -0.9805460000
O                  2.6131240000      4.5819600000     -0.9520070000
O                  1.1713690000     -0.5657810000     -1.0566910000
H                  0.6271060000      4.9119890000      0.5022250000
H                 -1.4779900000      4.1965060000      1.6316680000
H                 -2.1843940000      1.8207310000      1.5309410000
H                 -0.7804720000      0.1606610000      0.3049470000
S                  4.7207820000      2.8155200000     -2.3070460000
C                  3.6341020000     -0.0177000000     -2.2557390000
H                  3.5868820000      0.0885390000     -3.3455520000
H                  3.2551870000     -1.0049700000     -1.9984390000
H                  4.6871290000      0.0683320000     -1.9749770000
C                  5.4100730000      4.2794360000     -1.4073920000
C                  6.8823300000      4.4080510000     -1.7899370000
H                  5.2929670000      4.1085550000     -0.3376910000
H                  4.8396470000      5.1614310000     -1.6821920000
H                  7.4595530000      3.5320720000     -1.4853180000
H                  7.3081010000      5.2860000000     -1.2960270000
H                  7.0074640000      4.5422360000     -2.8677050000
$end
$rem
MAX_SCF_CYCLES=200
BASIS  =  6-311++G(d,p)
GUI  =  2
JOB_TYPE  =  SP
METHOD  =  B3LYP
SOLVENT_METHOD = COSMO
$end
$solvent
dielectric 37.219
opticaldielectric 1.43
$end

--------------------------------------------------------------

             Standard Nuclear Orientation (Angstroms)
    I     Atom           X                Y                Z
 ----------------------------------------------------------------
    1      C       2.0851601174    -2.0454713698    -0.0620372024
    2      C       3.4665992414    -2.0041013248     0.0951327472
    3      C       4.1205307478    -0.7769046723     0.2290785490
    4      C       1.3499897042    -0.8571509234    -0.0789590438
    5      C       2.0054202420     0.3727954862     0.0558218420
    6      C       3.3931912468     0.4089374692     0.2072751646
    7      C      -0.1272818481    -0.9133146377    -0.2701155233
    8      C      -0.8940008446     0.3700549105    -0.1610307654
    9      C      -0.2565065549     1.5731636812    -0.0538608573
   10      C       1.2280451107     1.6439574146     0.0405941520
   11      O      -0.6807336142    -1.9701650860    -0.5206881436
   12      O       1.7973363046     2.7227983661     0.1305546204
   13      H       1.5594647110    -2.9852712411    -0.1756543699
   14      H       4.0360660862    -2.9264004447     0.1106434477
   15      H       5.1976391411    -0.7474882381     0.3484438353
   16      H       3.8793636462     1.3715243523     0.3057116934
   17      S      -2.6549039473     0.3692974346    -0.3526708225
   18      C      -0.9872566320     2.8833719949    -0.0224846073
   19      H      -1.3659833659     3.1437115273    -1.0174711486
   20      H      -0.3188883547     3.6792245663     0.3006012179
   21      H      -1.8544108256     2.8251019264     0.6406465050
   22      C      -3.2950658336    -1.2257698856     0.3354443282
   23      C      -4.7911728863    -1.0554672088     0.5866093227
   24      H      -2.7602950449    -1.4370268230     1.2609523350
   25      H      -3.0894624995    -2.0220617876    -0.3734015770
   26      H      -4.9934836068    -0.2740405440     1.3226535301
   27      H      -5.2028442375    -1.9954206093     0.9648113621
   28      H      -5.3274348805    -0.8062834841    -0.3329441227
 ----------------------------------------------------------------

    9   -1051.4518103559      8.26e-06  Convergence criterion met
 Total energy in the final basis set =    -1051.4518103559
    5   -1051.4644215842      2.40e-06  Convergence criterion met
 Total energy in the final basis set =    -1051.4644215842

                    Orbital Energies (a.u.)
 --------------------------------------------------------------

 Alpha MOs
 -- Occupied --
-88.8659 -19.1369 -19.1321 -10.2910 -10.2818 -10.2373 -10.2155 -10.2072
-10.2060 -10.2035 -10.1964 -10.1958 -10.1952 -10.1949 -10.1704 -10.1674
 -7.9520  -5.9157  -5.9116  -5.9066  -1.0734  -1.0659  -0.8906  -0.8603
 -0.8068  -0.7836  -0.7770  -0.7419  -0.7030  -0.6798  -0.6397  -0.6204
 -0.6021  -0.5837  -0.5494  -0.5202  -0.5005  -0.4751  -0.4673  -0.4646
 -0.4614  -0.4540  -0.4496  -0.4445  -0.4275  -0.4140  -0.4116  -0.3967
 -0.3916  -0.3826  -0.3776  -0.3726  -0.3667  -0.3639  -0.3367  -0.3087
 -0.2906  -0.2827  -0.2780  -0.2756  -0.2384

          Ground-State Mulliken Net Atomic Charges

     Atom                 Charge (a.u.)
  ----------------------------------------
      1 C                     0.090730
      2 C                    -0.482832
      3 C                    -0.449519
      4 C                     0.165116
      5 C                     0.692918
      6 C                     0.117998
      7 C                    -0.913285
      8 C                     0.974291
      9 C                     0.944029
     10 C                    -1.088809
     11 O                    -0.250332
     12 O                    -0.299451
     13 H                     0.214138
     14 H                     0.224369
     15 H                     0.227659
     16 H                     0.201999
     17 S                    -0.772321
     18 C                    -0.172456
     19 H                     0.219553
     20 H                     0.189934
     21 H                     0.171263
     22 C                    -0.232567
     23 C                    -0.744738
     24 H                     0.240390
     25 H                     0.235841
     26 H                     0.165915
     27 H                     0.162691
     28 H                     0.167474
  ----------------------------------------
  Sum of atomic charges =     0.000000

                    Cartesian Multipole Moments
 -----------------------------------------------------------------
    Charge (ESU x 10^10)
                -0.0000
    Dipole Moment (Debye)
         X       0.1956      Y      -2.7534      Z       1.4735
       Tot       3.1290
    Quadrupole Moments (Debye-Ang)
        XX     -81.9870     XY      -9.4422     YY    -107.1019
        XZ      -2.7112     YZ      -3.2597     ZZ    -103.3447

 Total job time:  54.70s(wall), 410.69s(cpu)
        *  Thank you very much for using Q-Chem.  Have a nice day.  *
