 Gaussian 16, Revision A.03,
 Gaussian 16:  ES64L-G16RevA.03 25-Dec-2016

 ----------------------------------------------------------------------
 #P UB3LYP/6-311++G(d,p) nosym opt freq SCRF=(PCM,Solvent=n,n-DiMethylF
 ormamide)
 ----------------------------------------------------------------------

 -------
 Reduced
 -------
 Symbolic Z-matrix:
 Charge = -2 Multiplicity = 1

 SCF Done:  E(UB3LYP) =  -764.463823921     A.U. after   16 cycles
 SCF Done:  E(UB3LYP) =  -764.464288529     A.U. after   12 cycles
 SCF Done:  E(UB3LYP) =  -764.464232873     A.U. after   12 cycles
 SCF Done:  E(UB3LYP) =  -764.464428655     A.U. after   12 cycles
 SCF Done:  E(UB3LYP) =  -764.464409817     A.U. after   11 cycles
 SCF Done:  E(UB3LYP) =  -764.464431436     A.U. after   10 cycles
 SCF Done:  E(UB3LYP) =  -764.464435136     A.U. after   10 cycles
 Optimization completed.
    -- Stationary point found.
 Normal termination of Gaussian 16 at Sat Feb 10 19:05:13 2024.

 ----------------------------------------------------------------------
 #P Geom=AllCheck Guess=TCheck SCRF=Check GenChk UB3LYP/6-311++G(d,p) F
 req
 ----------------------------------------------------------------------

 Structure from the checkpoint file:  "177-an.chk"
 -------
 Reduced
 -------
 Charge = -2 Multiplicity = 1

                          Input orientation:
 ---------------------------------------------------------------------
 Center     Atomic      Atomic             Coordinates (Angstroms)
 Number     Number       Type             X           Y           Z
 ---------------------------------------------------------------------
      1          8           0        2.540792    2.524536   -0.209118
      2          6           0        2.495515    1.231008    0.017847
      3          6           0        3.644043    0.469498    0.262517
      4          6           0        3.570036   -0.923364    0.502929
      5          6           0        2.362526   -1.585793    0.510038
      6          6           0        1.145841   -0.880818    0.272099
      7          6           0       -0.112308   -1.595037    0.288829
      8          8           0       -0.174334   -2.863304    0.524862
      9          6           0       -1.295779   -0.811740    0.026646
     10          6           0       -2.573901   -1.432238    0.010328
     11          6           0       -3.730783   -0.727228   -0.232562
     12          6           0       -3.662392    0.674260   -0.475856
     13          6           0       -2.449384    1.317671   -0.471664
     14          6           0       -1.228204    0.612768   -0.225856
     15          6           0        0.014389    1.264104   -0.224643
     16          8           0        0.062641    2.622403   -0.466573
     17          6           0        1.200754    0.538839    0.019769
     18          1           0        1.058805    2.826433   -0.406103
     19          1           0        4.604510    0.977313    0.262299
     20          1           0        4.489447   -1.474563    0.685685
     21          1           0        2.307250   -2.651544    0.693378
     22          1           0       -2.607169   -2.499594    0.197437
     23          1           0       -4.691766   -1.231560   -0.239680
     24          1           0       -4.573307    1.233638   -0.665826
     25          1           0       -2.397222    2.384314   -0.656778
 ---------------------------------------------------------------------

 SCF Done:  E(UB3LYP) =  -764.464435136     A.U. after    1 cycles

 Alpha  occ. eigenvalues --  -19.09297 -19.04712 -19.02696 -10.19642 -10.18671
 Alpha  occ. eigenvalues --  -10.18498 -10.15564 -10.15402 -10.15206 -10.15116
 Alpha  occ. eigenvalues --  -10.15083 -10.14686 -10.14482 -10.14274 -10.13961
 Alpha  occ. eigenvalues --  -10.12998 -10.12636  -1.00867  -0.95111  -0.94203
 Alpha  occ. eigenvalues --   -0.83586  -0.81007  -0.76265  -0.73247  -0.70998
 Alpha  occ. eigenvalues --   -0.69802  -0.64881  -0.60985  -0.59634  -0.55451
 Alpha  occ. eigenvalues --   -0.54247  -0.50719  -0.49351  -0.47958  -0.44576
 Alpha  occ. eigenvalues --   -0.43772  -0.43280  -0.41754  -0.40349  -0.39629
 Alpha  occ. eigenvalues --   -0.38625  -0.38391  -0.36844  -0.35794  -0.35533
 Alpha  occ. eigenvalues --   -0.35137  -0.34294  -0.32445  -0.31954  -0.31845
 Alpha  occ. eigenvalues --   -0.30534  -0.28388  -0.25125  -0.23473  -0.22394
 Alpha  occ. eigenvalues --   -0.21955  -0.20130  -0.18308  -0.12210
 Alpha virt. eigenvalues --   -0.02625   0.00101   0.00107   0.00845   0.01533
 Alpha virt. eigenvalues --    0.02404   0.02721   0.02971   0.04647   0.04793
 Alpha virt. eigenvalues --    0.04913   0.05123   0.06678   0.06895   0.07086

  Beta  occ. eigenvalues --  -19.09297 -19.04712 -19.02696 -10.19642 -10.18671
  Beta  occ. eigenvalues --  -10.18498 -10.15564 -10.15402 -10.15206 -10.15116
  Beta  occ. eigenvalues --  -10.15083 -10.14686 -10.14482 -10.14274 -10.13961
  Beta  occ. eigenvalues --  -10.12998 -10.12636  -1.00867  -0.95111  -0.94203
  Beta  occ. eigenvalues --   -0.83586  -0.81007  -0.76265  -0.73247  -0.70998
  Beta  occ. eigenvalues --   -0.69802  -0.64881  -0.60985  -0.59634  -0.55451
  Beta  occ. eigenvalues --   -0.54247  -0.50719  -0.49351  -0.47958  -0.44576
  Beta  occ. eigenvalues --   -0.43772  -0.43280  -0.41754  -0.40349  -0.39629
  Beta  occ. eigenvalues --   -0.38625  -0.38391  -0.36844  -0.35794  -0.35533
  Beta  occ. eigenvalues --   -0.35137  -0.34294  -0.32445  -0.31954  -0.31845
  Beta  occ. eigenvalues --   -0.30534  -0.28388  -0.25125  -0.23473  -0.22394
  Beta  occ. eigenvalues --   -0.21955  -0.20130  -0.18308  -0.12210
  Beta virt. eigenvalues --   -0.02625   0.00101   0.00107   0.00845   0.01533
  Beta virt. eigenvalues --    0.02404   0.02721   0.02971   0.04647   0.04793
  Beta virt. eigenvalues --    0.04913   0.05123   0.06678   0.06895   0.07086

 Mulliken charges and spin densities:
               1          2
     1  O   -0.655727   0.000000
     2  C   -0.404992   0.000000
     3  C   -0.273330   0.000000
     4  C   -0.370318   0.000000
     5  C   -0.237608   0.000000
     6  C    0.504126   0.000000
     7  C   -0.382884  -0.000000
     8  O   -0.637849   0.000000
     9  C   -0.050457  -0.000000
    10  C   -0.059045   0.000000
    11  C   -0.490874  -0.000000
    12  C   -0.443552  -0.000000
    13  C   -0.150807  -0.000000
    14  C    0.197240  -0.000000
    15  C   -0.016937   0.000000
    16  O   -0.528832   0.000000
    17  C    0.543475   0.000000
    18  H    0.408431  -0.000000
    19  H    0.140287   0.000000
    20  H    0.154760   0.000000
    21  H    0.132957  -0.000000
    22  H    0.148722  -0.000000
    23  H    0.161068  -0.000000
    24  H    0.161941   0.000000
    25  H    0.150205  -0.000000
 Sum of Mulliken charges =  -2.00000   0.00000

 Dipole moment (field-independent basis, Debye):
    X=             -6.6325    Y=              0.2852    Z=             -0.7738  Tot=              6.6836
 Quadrupole moment (field-independent basis, Debye-Ang):
   XX=           -140.2899   YY=           -159.8695   ZZ=           -112.3720
   XY=            -15.9580   XZ=              0.0781   YZ=              7.5601

  Exact polarizability: 513.610   4.099 351.184  34.163 -36.239 159.687
 Approx polarizability: 556.647   2.439 428.923  37.107 -47.771 177.820

                      1                      2                      3
                      A                      A                      A
 Frequencies --     69.7865                94.1551               142.7966
 Red. masses --      6.3167                 6.9560                 4.8974
 Frc consts  --      0.0181                 0.0363                 0.0588
 IR Inten    --      6.8482                 5.4461                 1.2093

                      4                      5                      6
                      A                      A                      A
 Frequencies --    168.3886               213.6018               227.7145
 Red. masses --      8.1916                 4.7764                 5.6005
 Frc consts  --      0.1368                 0.1284                 0.1711
 IR Inten    --      2.5348                 0.1383                19.5561

                      7                      8                      9
                      A                      A                      A
 Frequencies --    278.8093               324.8940               361.8341
 Red. masses --      5.2505                 7.7543                 7.8441
 Frc consts  --      0.2405                 0.4823                 0.6051
 IR Inten    --      0.4007                37.1176                 6.7428

                     10                     11                     12
                      A                      A                      A
 Frequencies --    385.4619               386.6174               401.9637
 Red. masses --      6.9828                 7.1276                 8.0565
 Frc consts  --      0.6113                 0.6277                 0.7670
 IR Inten    --     39.8320                 3.5636                 4.1208

                     13                     14                     15
                      A                      A                      A
 Frequencies --    444.3007               491.2284               498.9847
 Red. masses --      3.2491                10.9883                 4.1130
 Frc consts  --      0.3779                 1.5622                 0.6034
 IR Inten    --      3.8608                 7.5184                 3.0482

                     16                     17                     18
                      A                      A                      A
 Frequencies --    512.8573               568.2540               580.4246
 Red. masses --      8.7657                 8.0584                 4.1941
 Frc consts  --      1.3584                 1.5332                 0.8325
 IR Inten    --     10.7846                21.3825                22.7619

                     19                     20                     21
                      A                      A                      A
 Frequencies --    599.3099               613.7754               659.7860
 Red. masses --      6.0450                 3.9789                 6.5535
 Frc consts  --      1.2792                 0.8831                 1.6808
 IR Inten    --     53.0157                12.5659                11.8640

                     22                     23                     24
                      A                      A                      A
 Frequencies --    680.7452               704.7830               731.3293
 Red. masses --      6.3322                 2.5292                 1.7767
 Frc consts  --      1.7289                 0.7402                 0.5599
 IR Inten    --      8.0801                99.7657                 4.8831

                     25                     26                     27
                      A                      A                      A
 Frequencies --    755.0693               770.3710               789.5185
 Red. masses --      2.1925                 1.9279                 6.5226
 Frc consts  --      0.7365                 0.6741                 2.3955
 IR Inten    --    123.6164                12.2862                 6.6843

                     28                     29                     30
                      A                      A                      A
 Frequencies --    804.9516               832.5349               846.6251
 Red. masses --      4.2381                 1.6930                 1.6058
 Frc consts  --      1.6179                 0.6914                 0.6782
 IR Inten    --     26.9133                 2.1677                 0.8507

                     31                     32                     33
                      A                      A                      A
 Frequencies --    866.3586               926.9789               944.6708
 Red. masses --      7.0625                 6.2903                 1.2322
 Frc consts  --      3.1232                 3.1846                 0.6479
 IR Inten    --     71.9321                30.2651                 0.6534

                     34                     35                     36
                      A                      A                      A
 Frequencies --    947.4440               971.1277               982.7648
 Red. masses --      1.0565                 1.3276                 1.2694
 Frc consts  --      0.5588                 0.7377                 0.7223
 IR Inten    --    136.1709                 0.1621                 1.2141

                     37                     38                     39
                      A                      A                      A
 Frequencies --   1015.6659              1028.3016              1059.5390
 Red. masses --      3.1336                 3.1892                 2.1770
 Frc consts  --      1.9046                 1.9869                 1.4399
 IR Inten    --    144.8498               365.1187               152.1585

                     40                     41                     42
                      A                      A                      A
 Frequencies --   1078.6037              1125.7240              1141.3657
 Red. masses --      2.9716                 1.9618                 1.3617
 Frc consts  --      2.0368                 1.4648                 1.0451
 IR Inten    --    209.9236                65.6986               138.9621

                     43                     44                     45
                      A                      A                      A
 Frequencies --   1165.3078              1193.4491              1229.0053
 Red. masses --      1.2175                 1.7777                 3.3278
 Frc consts  --      0.9741                 1.4918                 2.9615
 IR Inten    --     15.8493                39.8545               328.8923

                     46                     47                     48
                      A                      A                      A
 Frequencies --   1252.8114              1283.3883              1315.6401
 Red. masses --      2.2144                 3.4183                 5.7568
 Frc consts  --      2.0478                 3.3172                 5.8709
 IR Inten    --     89.0713               523.5555                65.9435

                     49                     50                     51
                      A                      A                      A
 Frequencies --   1337.7259              1360.5911              1385.3449
 Red. masses --      4.3472                 5.4951                 4.3720
 Frc consts  --      4.5835                 5.9936                 4.9436
 IR Inten    --     60.0351               570.8275               605.1014

                     52                     53                     54
                      A                      A                      A
 Frequencies --   1406.0811              1439.2207              1445.2739
 Red. masses --      2.6998                 2.4218                 4.3025
 Frc consts  --      3.1449                 2.9556                 5.2951
 IR Inten    --   1172.2886               729.0706               128.5327

                     55                     56                     57
                      A                      A                      A
 Frequencies --   1478.1509              1500.3919              1527.5860
 Red. masses --      2.8187                 2.5380                 5.2114
 Frc consts  --      3.6286                 3.3663                 7.1650
 IR Inten    --     56.6313                64.2759               249.2542

                     58                     59                     60
                      A                      A                      A
 Frequencies --   1573.7537              1590.1520              1619.6375
 Red. masses --      6.9369                 5.5501                 4.5704
 Frc consts  --     10.1225                 8.2686                 7.0638
 IR Inten    --     17.0328                52.2168                55.9713

                     61                     62                     63
                      A                      A                      A
 Frequencies --   1639.5790              2724.2054              3123.8481
 Red. masses --      2.0579                 1.0782                 1.0854
 Frc consts  --      3.2594                 4.7145                 6.2405
 IR Inten    --     44.2893              1542.7910                55.3181

                     64                     65                     66
                      A                      A                      A
 Frequencies --   3144.3339              3146.1493              3159.5138
 Red. masses --      1.0851                 1.0916                 1.0893
 Frc consts  --      6.3209                 6.3659                 6.4070
 IR Inten    --     21.5990                98.7377                31.2133

                     67                     68                     69
                      A                      A                      A
 Frequencies --   3179.1870              3182.7933              3186.1212
 Red. masses --      1.0913                 1.0937                 1.0907
 Frc consts  --      6.4989                 6.5276                 6.5237
 IR Inten    --     34.2705                76.0057                32.4674

 - Thermochemistry -
 -------------------
 Temperature   298.150 Kelvin.  Pressure   1.00000 Atm.
 Atom     1 has atomic number  8 and mass  15.99491

 Molecular mass:   224.04734 amu.
 Principal axes and moments of inertia in atomic units:
                           1         2         3
     Eigenvalues --  2061.506534383.616346445.04877
           X            0.98956  -0.10928  -0.09400
           Y            0.12474   0.97600   0.17852
           Z            0.07224  -0.18839   0.97943
 This molecule is an asymmetric top.
 Rotational symmetry number  1.
 Warning -- assumption of classical behavior for rotation
           may cause significant error
 Rotational temperatures (Kelvin)      0.04201     0.01976     0.01344
 Rotational constants (GHZ):           0.87545     0.41170     0.28002
 Zero-point vibrational energy     470244.0 (Joules/Mol)
                                  112.39102 (Kcal/Mol)
 Warning -- explicit consideration of  20 degrees of freedom as
           vibrations may cause significant error
 Vibrational temperatures:    100.41   135.47   205.45   242.27   307.33
          (Kelvin)            327.63   401.14   467.45   520.60   554.59
                              556.26   578.34   639.25   706.77   717.93
                              737.89   817.59   835.10   862.27   883.09
                              949.28   979.44  1014.03  1052.22  1086.38
                             1108.39  1135.94  1158.15  1197.83  1218.10
                             1246.50  1333.72  1359.17  1363.16  1397.24
                             1413.98  1461.32  1479.50  1524.44  1551.87
                             1619.67  1642.17  1676.62  1717.11  1768.26
                             1802.52  1846.51  1892.91  1924.69  1957.59
                             1993.20  2023.04  2070.72  2079.43  2126.73
                             2158.73  2197.86  2264.28  2287.87  2330.30
                             2358.99  3919.52  4494.52  4524.00  4526.61
                             4545.84  4574.14  4579.33  4584.12

 Zero-point correction=                           0.179106 (Hartree/Particle)
 Thermal correction to Energy=                    0.191091
 Thermal correction to Enthalpy=                  0.192036
 Thermal correction to Gibbs Free Energy=         0.141177
 Sum of electronic and zero-point Energies=           -764.285329
 Sum of electronic and thermal Energies=              -764.273344
 Sum of electronic and thermal Enthalpies=            -764.272400
 Sum of electronic and thermal Free Energies=         -764.323258

                     E (Thermal)             CV                S
                      KCal/Mol        Cal/Mol-Kelvin    Cal/Mol-Kelvin
 Total                  119.912             49.958            107.041
 Electronic               0.000              0.000              0.000
 Translational            0.889              2.981             42.123
 Rotational               0.889              2.981             32.432
 Vibrational            118.134             43.996             32.486
 Vibration     1          0.598              1.969              4.159
 Vibration     2          0.603              1.953              3.572
 Vibration     3          0.616              1.910              2.766
 Vibration     4          0.625              1.881              2.453
 Vibration     5          0.644              1.820              2.013
 Vibration     6          0.651              1.799              1.897
 Vibration     7          0.679              1.713              1.541
 Vibration     8          0.709              1.626              1.285
 Vibration     9          0.736              1.551              1.114
 Vibration    10          0.754              1.501              1.018
 Vibration    11          0.755              1.499              1.013
 Vibration    12          0.768              1.466              0.955
 Vibration    13          0.804              1.373              0.813
 Vibration    14          0.847              1.269              0.680
 Vibration    15          0.854              1.252              0.661
 Vibration    16          0.868              1.222              0.627
 Vibration    17          0.924              1.100              0.508
 Vibration    18          0.937              1.074              0.485
 Vibration    19          0.957              1.033              0.451
 Vibration    20          0.973              1.003              0.427

 Optimization completed.
    -- Stationary point found.
 Normal termination of Gaussian 16 at Sat Feb 10 19:56:09 2024.
