 Gaussian 16, Revision A.03,
 Gaussian 16:  ES64L-G16RevA.03 25-Dec-2016

 ----------------------------------------------------------------------
 #P UB3LYP/6-311++G(d,p) nosym opt freq SCRF=(PCM,Solvent=n,n-DiMethylF
 ormamide)
 ----------------------------------------------------------------------

 -------
 Reduced
 -------
 Symbolic Z-matrix:
 Charge = -2 Multiplicity = 1

 SCF Done:  E(UB3LYP) =  -610.934987208     A.U. after   16 cycles
 SCF Done:  E(UB3LYP) =  -610.935885376     A.U. after   14 cycles
 SCF Done:  E(UB3LYP) =  -610.936610936     A.U. after   13 cycles
 SCF Done:  E(UB3LYP) =  -610.936733252     A.U. after   12 cycles
 SCF Done:  E(UB3LYP) =  -610.936755797     A.U. after   12 cycles
 SCF Done:  E(UB3LYP) =  -610.936769484     A.U. after   12 cycles
 SCF Done:  E(UB3LYP) =  -610.936771389     A.U. after   11 cycles
 SCF Done:  E(UB3LYP) =  -610.936771688     A.U. after   10 cycles
 Optimization completed.
    -- Stationary point found.
 Normal termination of Gaussian 16 at Sat Feb 10 12:32:01 2024.

 ----------------------------------------------------------------------
 #P Geom=AllCheck Guess=TCheck SCRF=Check GenChk UB3LYP/6-311++G(d,p) F
 req
 ----------------------------------------------------------------------

 Structure from the checkpoint file:  "086-an.chk"
 -------
 Reduced
 -------
 Charge = -2 Multiplicity = 1

                          Input orientation:
 ---------------------------------------------------------------------
 Center     Atomic      Atomic             Coordinates (Angstroms)
 Number     Number       Type             X           Y           Z
 ---------------------------------------------------------------------
      1          6           0        2.699543    1.382504   -0.249036
      2          8           0        2.466721    0.256163    0.597377
      3          6           0        1.218328   -0.352317    0.398926
      4          6           0        1.230789   -1.660500   -0.094310
      5          6           0        0.042850   -2.419869   -0.286696
      6          8           0        0.045983   -3.652780   -0.745823
      7          6           0       -1.150348   -1.720347    0.047802
      8          6           0       -1.146894   -0.413016    0.543875
      9          8           0       -2.392971    0.122148    0.903453
     10          6           0       -2.787021    1.255372    0.129034
     11          6           0        0.036001    0.349964    0.784022
     12          8           0        0.039295    1.548422    1.322574
     13          1           0        3.659833    1.811938    0.045126
     14          1           0        2.755280    1.070056   -1.300189
     15          1           0        1.908589    2.125974   -0.125267
     16          1           0        2.191044   -2.109651   -0.337948
     17          1           0       -2.108249   -2.219693   -0.080439
     18          1           0       -2.922138    0.974925   -0.923986
     19          1           0       -3.743305    1.598994    0.529601
     20          1           0       -2.043328    2.051712    0.207804
 ---------------------------------------------------------------------

 SCF Done:  E(UB3LYP) =  -610.936771688     A.U. after    2 cycles

 Alpha  occ. eigenvalues --  -19.11140 -19.11120 -19.01072 -19.00959 -10.19229
 Alpha  occ. eigenvalues --  -10.19195 -10.17459 -10.17439 -10.16772 -10.16389
 Alpha  occ. eigenvalues --  -10.11605 -10.11598  -1.01968  -1.01674  -0.91467
 Alpha  occ. eigenvalues --   -0.91065  -0.77734  -0.71346  -0.67690  -0.64487
 Alpha  occ. eigenvalues --   -0.63794  -0.55317  -0.53333  -0.47020  -0.46392
 Alpha  occ. eigenvalues --   -0.43710  -0.43684  -0.43001  -0.42462  -0.41924
 Alpha  occ. eigenvalues --   -0.39558  -0.35462  -0.34990  -0.34087  -0.32847
 Alpha  occ. eigenvalues --   -0.32294  -0.32288  -0.30302  -0.26121  -0.25443
 Alpha  occ. eigenvalues --   -0.21559  -0.19879  -0.19209  -0.18698  -0.11739
 Alpha virt. eigenvalues --    0.00185   0.01229   0.01645   0.02987   0.03044
 Alpha virt. eigenvalues --    0.03489   0.04111   0.04627   0.04660   0.06411
 Alpha virt. eigenvalues --    0.06583   0.06891   0.08045   0.08215   0.08338

  Beta  occ. eigenvalues --  -19.11140 -19.11120 -19.01072 -19.00959 -10.19229
  Beta  occ. eigenvalues --  -10.19195 -10.17459 -10.17439 -10.16772 -10.16389
  Beta  occ. eigenvalues --  -10.11605 -10.11598  -1.01968  -1.01674  -0.91467
  Beta  occ. eigenvalues --   -0.91065  -0.77734  -0.71346  -0.67690  -0.64487
  Beta  occ. eigenvalues --   -0.63794  -0.55317  -0.53333  -0.47020  -0.46392
  Beta  occ. eigenvalues --   -0.43710  -0.43684  -0.43001  -0.42462  -0.41924
  Beta  occ. eigenvalues --   -0.39558  -0.35462  -0.34990  -0.34087  -0.32847
  Beta  occ. eigenvalues --   -0.32294  -0.32288  -0.30302  -0.26121  -0.25443
  Beta  occ. eigenvalues --   -0.21559  -0.19879  -0.19209  -0.18698  -0.11739
  Beta virt. eigenvalues --    0.00185   0.01229   0.01645   0.02987   0.03044
  Beta virt. eigenvalues --    0.03489   0.04111   0.04627   0.04660   0.06411
  Beta virt. eigenvalues --    0.06583   0.06891   0.08045   0.08215   0.08338

 Mulliken charges and spin densities:
               1          2
     1  C   -0.281601  -0.000000
     2  O   -0.240726  -0.000000
     3  C   -0.772457   0.000000
     4  C    0.769231  -0.000000
     5  C   -0.820368   0.000000
     6  O   -0.755932   0.000000
     7  C    0.761760  -0.000000
     8  C   -0.749749  -0.000000
     9  O   -0.243918   0.000000
    10  C   -0.277581   0.000000
    11  C    0.212485   0.000000
    12  O   -0.750361  -0.000000
    13  H    0.134682   0.000000
    14  H    0.120799   0.000000
    15  H    0.167026   0.000000
    16  H    0.152937   0.000000
    17  H    0.152559   0.000000
    18  H    0.119753  -0.000000
    19  H    0.134050   0.000000
    20  H    0.167413  -0.000000
 Sum of Mulliken charges =  -2.00000  -0.00000

 Dipole moment (field-independent basis, Debye):
    X=             -0.5845    Y=             11.9929    Z=             -4.8338  Tot=             12.9436
 Quadrupole moment (field-independent basis, Debye-Ang):
   XX=            -87.5193   YY=           -141.6804   ZZ=            -92.0725
   XY=              0.0529   XZ=              0.1431   YZ=            -19.5506

  Exact polarizability: 206.037   1.461 223.108  -5.298  33.356 136.260
 Approx polarizability: 219.944   1.723 239.519  -5.550  39.144 146.719

                      1                      2                      3
                      A                      A                      A
 Frequencies --     32.0521                75.9009                97.0350
 Red. masses --      2.8405                 3.0618                 4.0729
 Frc consts  --      0.0017                 0.0104                 0.0226
 IR Inten    --     14.2323                 8.3785                12.9426

                      4                      5                      6
                      A                      A                      A
 Frequencies --    161.1190               169.5387               179.6210
 Red. masses --      5.6794                 1.1429                 1.7245
 Frc consts  --      0.0869                 0.0194                 0.0328
 IR Inten    --     16.6275                 1.5521                 6.7537

                      7                      8                      9
                      A                      A                      A
 Frequencies --    193.4940               282.1292               310.1833
 Red. masses --      1.6046                 5.7217                 4.7328
 Frc consts  --      0.0354                 0.2683                 0.2683
 IR Inten    --      9.0838                 4.4225                11.6263

                     10                     11                     12
                      A                      A                      A
 Frequencies --    332.5910               347.5685               366.5950
 Red. masses --      9.2930                 7.0492                 7.0362
 Frc consts  --      0.6057                 0.5017                 0.5571
 IR Inten    --      1.7172                 2.5379                 0.8106

                     13                     14                     15
                      A                      A                      A
 Frequencies --    411.6165               473.0086               504.7733
 Red. masses --      6.9007                 8.7207                 6.2578
 Frc consts  --      0.6889                 1.1496                 0.9394
 IR Inten    --      5.3444                 3.7559                 7.6418

                     16                     17                     18
                      A                      A                      A
 Frequencies --    575.5459               632.0219               640.6726
 Red. masses --      6.4377                 4.0062                 2.0817
 Frc consts  --      1.2564                 0.9429                 0.5034
 IR Inten    --      4.7389                 0.8756                28.9526

                     19                     20                     21
                      A                      A                      A
 Frequencies --    681.8481               764.3058               809.9022
 Red. masses --      4.4829                 7.5460                 3.1919
 Frc consts  --      1.2279                 2.5972                 1.2336
 IR Inten    --      9.5958                17.0846               174.4799

                     22                     23                     24
                      A                      A                      A
 Frequencies --    812.6170               819.2156               921.4628
 Red. masses --      1.8853                 2.1968                 5.9263
 Frc consts  --      0.7335                 0.8686                 2.9648
 IR Inten    --     71.8852                74.9671                97.5911

                     25                     26                     27
                      A                      A                      A
 Frequencies --    963.5312              1039.0150              1061.8671
 Red. masses --      4.4974                 3.1278                 7.8261
 Frc consts  --      2.4600                 1.9894                 5.1992
 IR Inten    --     47.2043                86.3386               235.9770

                     28                     29                     30
                      A                      A                      A
 Frequencies --   1139.8214              1159.2919              1160.6755
 Red. masses --      3.3845                 1.2773                 1.2795
 Frc consts  --      2.5907                 1.0114                 1.0155
 IR Inten    --    595.6953                 6.3156                 6.6626

                     31                     32                     33
                      A                      A                      A
 Frequencies --   1180.0504              1194.9605              1207.3891
 Red. masses --      2.5641                 2.1264                 1.4548
 Frc consts  --      2.1037                 1.7889                 1.2496
 IR Inten    --    221.1974                76.0390                96.2061

                     34                     35                     36
                      A                      A                      A
 Frequencies --   1216.0616              1257.4518              1341.2137
 Red. masses --      1.6714                 3.8235                10.3479
 Frc consts  --      1.4563                 3.5620                10.9672
 IR Inten    --    114.6622               533.9857                26.8295

                     37                     38                     39
                      A                      A                      A
 Frequencies --   1406.6536              1431.3851              1440.9190
 Red. masses --      4.1587                 3.3946                 1.3436
 Frc consts  --      4.8482                 4.0978                 1.6436
 IR Inten    --     11.0985              1398.8574                38.0569

                     40                     41                     42
                      A                      A                      A
 Frequencies --   1448.5017              1470.9436              1473.9123
 Red. masses --      1.2207                 1.1074                 1.0901
 Frc consts  --      1.5091                 1.4117                 1.3953
 IR Inten    --    146.4366                 0.4592                 8.4407

                     43                     44                     45
                      A                      A                      A
 Frequencies --   1498.2184              1501.3132              1501.9739
 Red. masses --      2.6422                 1.0729                 1.1879
 Frc consts  --      3.4943                 1.4248                 1.5789
 IR Inten    --     76.9052                30.7545                51.2409

                     46                     47                     48
                      A                      A                      A
 Frequencies --   1610.0000              2980.8261              2981.8805
 Red. masses --      7.8507                 1.0410                 1.0408
 Frc consts  --     11.9897                 5.4498                 5.4528
 IR Inten    --     91.5123               105.8456               192.3283

                     49                     50                     51
                      A                      A                      A
 Frequencies --   3058.2436              3058.6216              3096.1331
 Red. masses --      1.0905                 1.0908                 1.1055
 Frc consts  --      6.0090                 6.0125                 6.2437
 IR Inten    --     39.3259               108.0353                77.8165

                     52                     53                     54
                      A                      A                      A
 Frequencies --   3096.3035              3128.2068              3131.1393
 Red. masses --      1.1055                 1.0891                 1.0878
 Frc consts  --      6.2446                 6.2794                 6.2833
 IR Inten    --     18.7071                88.8562                51.2450

 - Thermochemistry -
 -------------------
 Temperature   298.150 Kelvin.  Pressure   1.00000 Atm.
 Atom     1 has atomic number  6 and mass  12.00000

 Molecular mass:   168.04226 amu.
 Principal axes and moments of inertia in atomic units:
                           1         2         3
     Eigenvalues --  1778.888161900.707783453.46412
           X            0.99736   0.02108   0.06954
           Y           -0.00319   0.96875  -0.24803
           Z           -0.07259   0.24716   0.96625
 This molecule is an asymmetric top.
 Rotational symmetry number  1.
 Warning -- assumption of classical behavior for rotation
           may cause significant error
 Rotational temperatures (Kelvin)      0.04869     0.04557     0.02508
 Rotational constants (GHZ):           1.01453     0.94951     0.52259
 Zero-point vibrational energy     381796.1 (Joules/Mol)
                                   91.25146 (Kcal/Mol)
 Warning -- explicit consideration of  16 degrees of freedom as
           vibrations may cause significant error
 Vibrational temperatures:     46.12   109.20   139.61   231.81   243.93
          (Kelvin)            258.43   278.39   405.92   446.28   478.52
                              500.07   527.45   592.22   680.55   726.26
                              828.08   909.34   921.78   981.03  1099.67
                             1165.27  1169.17  1178.67  1325.78  1386.31
                             1494.91  1527.79  1639.95  1667.96  1669.95
                             1697.83  1719.28  1737.16  1749.64  1809.19
                             1929.71  2023.86  2059.44  2073.16  2084.07
                             2116.36  2120.63  2155.60  2160.05  2161.01
                             2316.43  4288.74  4290.26  4400.13  4400.67
                             4454.65  4454.89  4500.79  4505.01

 Zero-point correction=                           0.145418 (Hartree/Particle)
 Thermal correction to Energy=                    0.156995
 Thermal correction to Enthalpy=                  0.157939
 Thermal correction to Gibbs Free Energy=         0.107180
 Sum of electronic and zero-point Energies=           -610.791353
 Sum of electronic and thermal Energies=              -610.779777
 Sum of electronic and thermal Enthalpies=            -610.778833
 Sum of electronic and thermal Free Energies=         -610.829592

                     E (Thermal)             CV                S
                      KCal/Mol        Cal/Mol-Kelvin    Cal/Mol-Kelvin
 Total                   98.516             42.086            106.832
 Electronic               0.000              0.000              0.000
 Translational            0.889              2.981             41.265
 Rotational               0.889              2.981             30.835
 Vibrational             96.738             36.124             34.731
 Vibration     1          0.594              1.983              5.698
 Vibration     2          0.599              1.965              3.994
 Vibration     3          0.603              1.951              3.513
 Vibration     4          0.622              1.890              2.537
 Vibration     5          0.625              1.880              2.441
 Vibration     6          0.629              1.867              2.332
 Vibration     7          0.635              1.849              2.194
 Vibration     8          0.681              1.707              1.521
 Vibration     9          0.699              1.654              1.361
 Vibration    10          0.715              1.610              1.247
 Vibration    11          0.725              1.580              1.177
 Vibration    12          0.740              1.541              1.094
 Vibration    13          0.776              1.445              0.921
 Vibration    14          0.830              1.310              0.729
 Vibration    15          0.860              1.239              0.646
 Vibration    16          0.932              1.084              0.494

                           ! Non-Optimized Parameters !
 Normal termination of Gaussian 16 at Sat Feb 10 12:53:02 2024.
