 Gaussian 16, Revision A.03,
 Gaussian 16:  ES64L-G16RevA.03 25-Dec-2016

 --------------------------------------
 #P UB3LYP/6-311++G(d,p) nosym opt freq
 --------------------------------------

 -------
 Reduced
 -------
 Symbolic Z-matrix:
 Charge = -2 Multiplicity = 1

 SCF Done:  E(UB3LYP) =  -988.813635973     A.U. after   78 cycles
 SCF Done:  E(UB3LYP) =  -988.834383715     A.U. after   32 cycles
 SCF Done:  E(UB3LYP) =  -988.839624391     A.U. after   28 cycles
 SCF Done:  E(UB3LYP) =  -988.839919373     A.U. after   23 cycles
 SCF Done:  E(UB3LYP) =  -988.840271472     A.U. after   22 cycles
 SCF Done:  E(UB3LYP) =  -988.840521330     A.U. after   22 cycles
 SCF Done:  E(UB3LYP) =  -988.840487219     A.U. after   22 cycles
 SCF Done:  E(UB3LYP) =  -988.840595550     A.U. after   20 cycles
 SCF Done:  E(UB3LYP) =  -988.840625523     A.U. after   20 cycles
 SCF Done:  E(UB3LYP) =  -988.840630026     A.U. after   19 cycles
 SCF Done:  E(UB3LYP) =  -988.840630543     A.U. after   19 cycles
 Optimization completed.
    -- Stationary point found.
 Normal termination of Gaussian 16 at Tue Dec 26 21:35:06 2023.

 ----------------------------------------------------------------------
 #P Geom=AllCheck Guess=TCheck SCRF=Check GenChk UB3LYP/6-311++G(d,p) F
 req
 ----------------------------------------------------------------------

 Structure from the checkpoint file:  "270-an.chk"
 -------
 Reduced
 -------
 Charge = -2 Multiplicity = 1

                          Input orientation:
 ---------------------------------------------------------------------
 Center     Atomic      Atomic             Coordinates (Angstroms)
 Number     Number       Type             X           Y           Z
 ---------------------------------------------------------------------
      1          6           0       -0.943897    3.987855   -0.132055
      2          6           0       -2.193843    3.405810   -0.219474
      3          6           0       -2.314208    1.988326   -0.222623
      4          6           0        0.246410    3.218753   -0.043060
      5          6           0        0.122798    1.769878   -0.055914
      6          6           0       -1.171553    1.210020   -0.144949
      7          6           0        1.524963    3.870577    0.025031
      8          6           0        2.640712    2.992541    0.105754
      9          6           0        2.511685    1.586923    0.134703
     10          6           0        1.279350    0.890206    0.019086
     11          8           0        1.698293    5.169136   -0.004133
     12          8           0        1.199166   -0.397486   -0.012282
     13          7           0        3.915131    3.641150    0.187511
     14         16           0        3.966299    0.517877    0.288087
     15          1           0       -0.823544    5.067431   -0.128321
     16          1           0       -3.085160    4.029576   -0.283784
     17          1           0       -3.295862    1.521062   -0.289728
     18          1           0       -1.226622    0.124982   -0.150775
     19          1           0        3.681296    4.635087    0.085717
     20          1           0        4.519259    3.361173   -0.584259
     21          1           0        4.774478    1.496285    0.759048
 ---------------------------------------------------------------------

 SCF Done:  E(UB3LYP) =  -988.840630543     A.U. after    2 cycles

 Alpha  occ. eigenvalues --  -88.59140 -18.76264 -18.76155 -14.04877  -9.92407
 Alpha  occ. eigenvalues --   -9.91545  -9.91504  -9.91490  -9.91251  -9.90916
 Alpha  occ. eigenvalues --   -9.90558  -9.90524  -9.88971  -9.88920  -7.67716
 Alpha  occ. eigenvalues --   -5.64064  -5.63715  -5.63187  -0.68171  -0.67529
 Alpha  occ. eigenvalues --   -0.62679  -0.58042  -0.52587  -0.48957  -0.47985
 Alpha  occ. eigenvalues --   -0.43047  -0.38849  -0.33738  -0.32719  -0.28195
 Alpha  occ. eigenvalues --   -0.26092  -0.23725  -0.21104  -0.18872  -0.17145
 Alpha  occ. eigenvalues --   -0.16280  -0.15480  -0.13175  -0.12696  -0.11328
 Alpha  occ. eigenvalues --   -0.10174  -0.09335  -0.08055  -0.07590  -0.06737
 Alpha  occ. eigenvalues --   -0.05333  -0.02929  -0.01226   0.01708   0.03040
 Alpha  occ. eigenvalues --    0.05268   0.05953   0.06381   0.14242
 Alpha virt. eigenvalues --    0.16813   0.18236   0.18495   0.20757   0.21234
 Alpha virt. eigenvalues --    0.22169   0.22961   0.23732   0.24608   0.25095
 Alpha virt. eigenvalues --    0.25631   0.26423   0.26712   0.28003   0.28447

  Beta  occ. eigenvalues --  -88.59140 -18.76264 -18.76155 -14.04877  -9.92407
  Beta  occ. eigenvalues --   -9.91545  -9.91504  -9.91490  -9.91251  -9.90916
  Beta  occ. eigenvalues --   -9.90558  -9.90524  -9.88971  -9.88920  -7.67716
  Beta  occ. eigenvalues --   -5.64064  -5.63715  -5.63187  -0.68171  -0.67529
  Beta  occ. eigenvalues --   -0.62679  -0.58042  -0.52587  -0.48957  -0.47985
  Beta  occ. eigenvalues --   -0.43047  -0.38849  -0.33738  -0.32719  -0.28195
  Beta  occ. eigenvalues --   -0.26092  -0.23725  -0.21104  -0.18872  -0.17145
  Beta  occ. eigenvalues --   -0.16280  -0.15480  -0.13175  -0.12696  -0.11328
  Beta  occ. eigenvalues --   -0.10174  -0.09335  -0.08055  -0.07590  -0.06737
  Beta  occ. eigenvalues --   -0.05333  -0.02929  -0.01226   0.01708   0.03040
  Beta  occ. eigenvalues --    0.05268   0.05953   0.06381   0.14242
  Beta virt. eigenvalues --    0.16813   0.18236   0.18495   0.20757   0.21234
  Beta virt. eigenvalues --    0.22169   0.22961   0.23732   0.24608   0.25095
  Beta virt. eigenvalues --    0.25631   0.26423   0.26712   0.28003   0.28447

 Mulliken charges and spin densities:
               1          2
     1  C    0.008293  -0.000000
     2  C   -0.285749   0.000000
     3  C   -0.309126   0.000000
     4  C    0.053829   0.000000
     5  C    0.944449   0.000000
     6  C    0.095189   0.000000
     7  C   -1.381071  -0.000000
     8  C   -0.052152   0.000000
     9  C    1.916339   0.000000
    10  C   -1.585646  -0.000000
    11  O   -0.590114   0.000000
    12  O   -0.492937   0.000000
    13  N   -0.405763  -0.000000
    14  S   -0.745299  -0.000000
    15  H    0.125859   0.000000
    16  H    0.062360   0.000000
    17  H    0.067999   0.000000
    18  H    0.115689   0.000000
    19  H    0.252673   0.000000
    20  H    0.170066  -0.000000
    21  H    0.035113   0.000000
 Sum of Mulliken charges =  -2.00000   0.00000

 Dipole moment (field-independent basis, Debye):
    X=            -11.7644    Y=            -21.2544    Z=             -0.8499  Tot=             24.3079
 Quadrupole moment (field-independent basis, Debye-Ang):
   XX=           -148.5948   YY=           -202.6397   ZZ=           -103.1403
   XY=            -20.6243   XZ=             -5.9556   YZ=             -2.2071

  Exact polarizability: 337.016 -12.958 222.424   4.973  -7.458 133.349
 Approx polarizability: 526.475 -11.295 375.537  17.231  -4.563 184.789

                      1                      2                      3
                      A                      A                      A
 Frequencies --     78.1962               112.6197               151.2751
 Red. masses --      7.8239                 4.9698                 5.6038
 Frc consts  --      0.0282                 0.0371                 0.0756
 IR Inten    --      6.2767                 2.7862                 1.1162

                      4                      5                      6
                      A                      A                      A
 Frequencies --    171.8792               173.9292               252.7702
 Red. masses --      7.9293                 6.3507                 3.4504
 Frc consts  --      0.1380                 0.1132                 0.1299
 IR Inten    --      3.7585                 4.0007                14.8687

                      7                      8                      9
                      A                      A                      A
 Frequencies --    284.7653               297.4253               310.5449
 Red. masses --      2.6019                 1.7935                 6.7357
 Frc consts  --      0.1243                 0.0935                 0.3827
 IR Inten    --     13.5388                21.7330                 6.7445

                     10                     11                     12
                      A                      A                      A
 Frequencies --    341.1838               350.8759               367.7666
 Red. masses --      8.0877                 7.6960                 6.2948
 Frc consts  --      0.5547                 0.5582                 0.5016
 IR Inten    --      4.7455                 1.3698                 1.1729

                     13                     14                     15
                      A                      A                      A
 Frequencies --    428.5747               443.7151               456.1925
 Red. masses --      3.5704                 1.4689                 2.7581
 Frc consts  --      0.3864                 0.1704                 0.3382
 IR Inten    --     13.3606                29.0676                13.2369

                     16                     17                     18
                      A                      A                      A
 Frequencies --    500.2619               504.4941               572.1677
 Red. masses --      9.7350                 5.1035                 7.3222
 Frc consts  --      1.4354                 0.7653                 1.4123
 IR Inten    --      1.1267                16.9433                 5.4237

                     19                     20                     21
                      A                      A                      A
 Frequencies --    644.5832               655.2476               674.3713
 Red. masses --      7.1835                 6.5278                 1.7701
 Frc consts  --      1.7585                 1.6513                 0.4743
 IR Inten    --      4.2304                 8.6415                66.5824

                     22                     23                     24
                      A                      A                      A
 Frequencies --    694.4586               720.6940               739.9833
 Red. masses --      5.0615                 2.5388                 2.8238
 Frc consts  --      1.4382                 0.7769                 0.9110
 IR Inten    --      6.1155                 1.8445                14.8107

                     25                     26                     27
                      A                      A                      A
 Frequencies --    779.9433               804.4993               844.8950
 Red. masses --      1.9638                 6.7604                 2.5965
 Frc consts  --      0.7038                 2.5779                 1.0921
 IR Inten    --      3.3323                81.8676                23.9410

                     28                     29                     30
                      A                      A                      A
 Frequencies --    927.7917               936.2039               943.6995
 Red. masses --      1.8102                 1.2011                 1.3696
 Frc consts  --      0.9181                 0.6202                 0.7186
 IR Inten    --      6.9724                 0.8865                 9.9423

                     31                     32                     33
                      A                      A                      A
 Frequencies --    952.0503              1006.2088              1024.8181
 Red. masses --      1.6113                 2.6882                 2.3081
 Frc consts  --      0.8605                 1.6036                 1.4282
 IR Inten    --    212.2993                28.3238                55.6531

                     34                     35                     36
                      A                      A                      A
 Frequencies --   1084.5896              1115.4137              1145.6426
 Red. masses --      2.5565                 1.5272                 1.6457
 Frc consts  --      1.7719                 1.1195                 1.2727
 IR Inten    --     34.4037                69.7285                22.1641

                     37                     38                     39
                      A                      A                      A
 Frequencies --   1167.2353              1206.3231              1230.8896
 Red. masses --      3.7171                 1.7900                 2.9944
 Frc consts  --      2.9838                 1.5347                 2.6730
 IR Inten    --      0.9264                91.3327               247.2745

                     40                     41                     42
                      A                      A                      A
 Frequencies --   1279.2415              1329.7342              1399.6997
 Red. masses --      1.9834                 5.9621                 6.9175
 Frc consts  --      1.9123                 6.2112                 7.9849
 IR Inten    --     12.5364               200.3269               664.4327

                     43                     44                     45
                      A                      A                      A
 Frequencies --   1417.7371              1423.7623              1445.5538
 Red. masses --      2.5720                 6.6001                 3.7314
 Frc consts  --      3.0459                 7.8827                 4.5940
 IR Inten    --    221.3741                11.0496                 7.2135

                     46                     47                     48
                      A                      A                      A
 Frequencies --   1495.0220              1502.2383              1569.0311
 Red. masses --      4.0516                 5.1198                 5.8661
 Frc consts  --      5.3354                 6.8074                 8.5087
 IR Inten    --    162.9964               116.1406                 3.7345

                     49                     50                     51
                      A                      A                      A
 Frequencies --   1584.7183              1605.6271              2607.0999
 Red. masses --      5.6609                 1.1708                 1.0373
 Frc consts  --      8.3761                 1.7783                 4.1539
 IR Inten    --     11.1375                11.4205                31.1336

                     52                     53                     54
                      A                      A                      A
 Frequencies --   3079.9158              3105.4081              3148.6488
 Red. masses --      1.0821                 1.0901                 1.0901
 Frc consts  --      6.0479                 6.1935                 6.3672
 IR Inten    --     41.7273               129.2248                36.9806

                     55                     56                     57
                      A                      A                      A
 Frequencies --   3151.7369              3345.5796              3448.7178
 Red. masses --      1.0911                 1.0502                 1.0898
 Frc consts  --      6.3861                 6.9258                 7.6367
 IR Inten    --     51.3277               155.8983               157.2954

 - Thermochemistry -
 -------------------
 Temperature   298.150 Kelvin.  Pressure   1.00000 Atm.
 Atom     1 has atomic number  6 and mass  12.00000

 Molecular mass:   205.01975 amu.
 Principal axes and moments of inertia in atomic units:
                           1         2         3
     Eigenvalues --  1801.949353411.168865205.29815
           X            0.95463   0.28892  -0.07220
           Y           -0.28864   0.95733   0.01451
           Z            0.07331   0.00699   0.99728
 This molecule is an asymmetric top.
 Rotational symmetry number  1.
 Warning -- assumption of classical behavior for rotation
           may cause significant error
 Rotational temperatures (Kelvin)      0.04807     0.02539     0.01664
 Rotational constants (GHZ):           1.00155     0.52907     0.34671
 Zero-point vibrational energy     377048.9 (Joules/Mol)
                                   90.11685 (Kcal/Mol)
 Warning -- explicit consideration of  18 degrees of freedom as
           vibrations may cause significant error
 Vibrational temperatures:    112.51   162.03   217.65   247.30   250.25
          (Kelvin)            363.68   409.71   427.93   446.80   490.89
                              504.83   529.13   616.62   638.41   656.36
                              719.77   725.85   823.22   927.41   942.76
                              970.27   999.17  1036.92  1064.67  1122.16
                             1157.50  1215.62  1334.89  1346.99  1357.77
                             1369.79  1447.71  1474.48  1560.48  1604.83
                             1648.32  1679.39  1735.63  1770.98  1840.54
                             1913.19  2013.86  2039.81  2048.48  2079.83
                             2151.00  2161.39  2257.49  2280.06  2310.14
                             3751.04  4431.31  4467.99  4530.20  4534.65
                             4813.54  4961.94

 Zero-point correction=                           0.143610 (Hartree/Particle)
 Thermal correction to Energy=                    0.155421
 Thermal correction to Enthalpy=                  0.156365
 Thermal correction to Gibbs Free Energy=         0.106142
 Sum of electronic and zero-point Energies=           -988.697020
 Sum of electronic and thermal Energies=              -988.685209
 Sum of electronic and thermal Enthalpies=            -988.684265
 Sum of electronic and thermal Free Energies=         -988.734488

                     E (Thermal)             CV                S
                      KCal/Mol        Cal/Mol-Kelvin    Cal/Mol-Kelvin
 Total                   97.528             46.687            105.703
 Electronic               0.000              0.000              0.000
 Translational            0.889              2.981             41.858
 Rotational               0.889              2.981             31.837
 Vibrational             95.751             40.725             32.008
 Vibration     1          0.599              1.964              3.936
 Vibration     2          0.607              1.939              3.223
 Vibration     3          0.619              1.901              2.656
 Vibration     4          0.626              1.877              2.415
 Vibration     5          0.627              1.875              2.393
 Vibration     6          0.664              1.758              1.711
 Vibration     7          0.683              1.702              1.505
 Vibration     8          0.691              1.679              1.431
 Vibration     9          0.699              1.654              1.359
 Vibration    10          0.721              1.593              1.207
 Vibration    11          0.728              1.573              1.162
 Vibration    12          0.740              1.539              1.089
 Vibration    13          0.790              1.408              0.863
 Vibration    14          0.803              1.375              0.815
 Vibration    15          0.814              1.347              0.777
 Vibration    16          0.856              1.249              0.657
 Vibration    17          0.860              1.240              0.647
 Vibration    18          0.928              1.091              0.500

 Optimization completed.
    -- Stationary point found.
 Normal termination of Gaussian 16 at Tue Dec 26 21:57:22 2023.
