 Q-Chem 5.4, Q-Chem, Inc., Pleasanton, CA (2021)
 Q-Chem 5.4.0 for Intel X86 EM64T Linux

User input:
--------------------------------------------------------------
$molecule
-2 1
C                  0.0778990000      1.7571840000      0.0001870000
C                 -1.1243860000      0.9211170000     -0.0007070000
C                 -1.1124890000     -0.4549000000      0.0002200000
C                  0.1040730000     -1.2700490000      0.0018790000
C                  1.2955990000     -0.4703430000      0.0028020000
C                  1.2830750000      0.9782040000      0.0018770000
O                  0.0231990000      3.0199240000     -0.0014230000
O                  0.0712140000     -2.5335450000      0.0034730000
C                  2.5006280000      1.6997060000      0.0027580000
C                  2.5254350000     -1.1706940000      0.0045870000
N                  3.5048830000      2.2902190000      0.0034350000
N                  3.5397370000     -1.7437790000      0.0061210000
Cl                -2.6572820000      1.8154680000     -0.0029500000
Cl                -2.6296940000     -1.3756220000     -0.0007700000
$end

$rem
BASIS  =  6-311++G(d,p)
GUI  =  2
JOB_TYPE  =  SP
METHOD  =  B3LYP
SCF_CONVERGENCE  = 8
SOLVENT_METHOD = sm12
$end

$smx
solvent dimethylformamide
charges CM5
$end

--------------------------------------------------------------

             Standard Nuclear Orientation (Angstroms)
    I     Atom           X                Y                Z
 ----------------------------------------------------------------
    1      C       0.0778990000     1.7571840000     0.0001870000
    2      C      -1.1243860000     0.9211170000    -0.0007070000
    3      C      -1.1124890000    -0.4549000000     0.0002200000
    4      C       0.1040730000    -1.2700490000     0.0018790000
    5      C       1.2955990000    -0.4703430000     0.0028020000
    6      C       1.2830750000     0.9782040000     0.0018770000
    7      O       0.0231990000     3.0199240000    -0.0014230000
    8      O       0.0712140000    -2.5335450000     0.0034730000
    9      C       2.5006280000     1.6997060000     0.0027580000
   10      C       2.5254350000    -1.1706940000     0.0045870000
   11      N       3.5048830000     2.2902190000     0.0034350000
   12      N       3.5397370000    -1.7437790000     0.0061210000
   13      Cl     -2.6572820000     1.8154680000    -0.0029500000
   14      Cl     -2.6296940000    -1.3756220000    -0.0007700000
 ----------------------------------------------------------------

   16   -1485.4020466905      2.31e-09  Convergence criterion met
 Total energy in the final basis set =    -1485.6605622509

                    Orbital Energies (a.u.)
 --------------------------------------------------------------

 Alpha MOs
 -- Occupied --
********-101.5535 -19.0585 -19.0585 -14.3134 -14.3134 -10.2391 -10.2384
-10.2349 -10.2349 -10.2200 -10.2199 -10.1923 -10.1919  -9.4665  -9.4665
 -7.2312  -7.2312  -7.2220  -7.2220  -7.2207  -7.2207  -0.9894  -0.9849
 -0.9160  -0.9109  -0.8904  -0.8417  -0.8249  -0.7457  -0.7193  -0.6372
 -0.6070  -0.5122  -0.5101  -0.5045  -0.4479  -0.4320  -0.4102  -0.3980
 -0.3952  -0.3853  -0.3846  -0.3830  -0.3815  -0.3530  -0.3445  -0.3428
 -0.3340  -0.3207  -0.3202  -0.2969  -0.2622  -0.2469  -0.2357  -0.2329
 -0.1657

          Ground-State Mulliken Net Atomic Charges

     Atom                 Charge (a.u.)
  ----------------------------------------
      1 C                    -1.768023
      2 C                     2.216282
      3 C                     2.216446
      4 C                    -1.767466
      5 C                     1.197818
      6 C                     1.197340
      7 O                    -0.381755
      8 O                    -0.381677
      9 C                    -2.922470
     10 C                    -2.922922
     11 N                    -0.381287
     12 N                    -0.381187
     13 Cl                    1.039424
     14 Cl                    1.039479
  ----------------------------------------
  Sum of atomic charges =    -2.000000

                    Cartesian Multipole Moments
 -----------------------------------------------------------------
    Charge (ESU x 10^10)
                -9.6064
    Dipole Moment (Debye)
         X     -12.4735      Y      -2.4403      Z      -0.0228
       Tot      12.7100
    Quadrupole Moments (Debye-Ang)
        XX    -168.3742     XY      -3.0710     YY    -164.0058
        XZ      -0.0882     YZ       0.0452     ZZ     -98.4071

 Total job time:  200.87s(wall), 1266.64s(cpu)
        *  Thank you very much for using Q-Chem.  Have a nice day.  *
