 Q-Chem 5.4, Q-Chem, Inc., Pleasanton, CA (2021)
 Q-Chem 5.4.0 for Intel X86 EM64T Linux

User input:
--------------------------------------------------------------
$molecule
-1 2
C                 -2.7921580000     -0.8831600000     -0.9658580000
C                 -1.4455880000     -0.4094010000     -0.4688130000
C                 -0.2969290000     -1.1223250000     -0.7740360000
C                  0.9789480000     -0.7228050000     -0.3353340000
C                  2.1655820000     -1.5245180000     -0.6931570000
O                  2.0759460000     -2.5728030000     -1.3899550000
C                  3.4161230000     -1.0239550000     -0.1919170000
C                  3.5235360000      0.1207010000      0.5702780000
C                  2.3959860000      0.9308210000      0.9417930000
O                  2.5029050000      1.9768590000      1.6395210000
C                  1.0893450000      0.4536270000      0.4480410000
C                 -0.0816590000      1.1715730000      0.7534230000
C                 -1.3347810000      0.7712300000      0.3172750000
C                 -2.5609630000      1.5799070000      0.6740210000
H                 -2.6859230000     -1.8009680000     -1.5485470000
H                 -3.4852470000     -1.0895400000     -0.1407360000
H                 -3.2801370000     -0.1364260000     -1.6046740000
H                 -0.3506360000     -2.0267540000     -1.3718370000
H                  4.3001980000     -1.6026650000     -0.4463380000
H                  4.4935810000      0.4580490000      0.9258380000
H                  0.0336100000      2.0679400000      1.3546700000
H                 -3.2896380000      0.9910030000      1.2450100000
H                 -2.2870760000      2.4472500000      1.2788830000
H                 -3.0850270000      1.9463590000     -0.2175500000
$end
$rem
MAX_SCF_CYCLES=200
BASIS  =  6-311++G(d,p)
GUI  =  2
JOB_TYPE  =  SP
METHOD  =  B3LYP
SOLVENT_METHOD = PCM
$end
$pcm
theory = CPCM
$end
$solvent
dielectric 37.219
opticaldielectric 1.43
$end

--------------------------------------------------------------

             Standard Nuclear Orientation (Angstroms)
    I     Atom           X                Y                Z
 ----------------------------------------------------------------
    1      C      -2.7921580000    -0.8831600000    -0.9658580000
    2      C      -1.4455880000    -0.4094010000    -0.4688130000
    3      C      -0.2969290000    -1.1223250000    -0.7740360000
    4      C       0.9789480000    -0.7228050000    -0.3353340000
    5      C       2.1655820000    -1.5245180000    -0.6931570000
    6      O       2.0759460000    -2.5728030000    -1.3899550000
    7      C       3.4161230000    -1.0239550000    -0.1919170000
    8      C       3.5235360000     0.1207010000     0.5702780000
    9      C       2.3959860000     0.9308210000     0.9417930000
   10      O       2.5029050000     1.9768590000     1.6395210000
   11      C       1.0893450000     0.4536270000     0.4480410000
   12      C      -0.0816590000     1.1715730000     0.7534230000
   13      C      -1.3347810000     0.7712300000     0.3172750000
   14      C      -2.5609630000     1.5799070000     0.6740210000
   15      H      -2.6859230000    -1.8009680000    -1.5485470000
   16      H      -3.4852470000    -1.0895400000    -0.1407360000
   17      H      -3.2801370000    -0.1364260000    -1.6046740000
   18      H      -0.3506360000    -2.0267540000    -1.3718370000
   19      H       4.3001980000    -1.6026650000    -0.4463380000
   20      H       4.4935810000     0.4580490000     0.9258380000
   21      H       0.0336100000     2.0679400000     1.3546700000
   22      H      -3.2896380000     0.9910030000     1.2450100000
   23      H      -2.2870760000     2.4472500000     1.2788830000
   24      H      -3.0850270000     1.9463590000    -0.2175500000
 ----------------------------------------------------------------

    8    -614.0704954110      7.33e-06  Convergence criterion met
 Total energy in the final basis set =     -614.0704954110

                    Orbital Energies (a.u.)
 --------------------------------------------------------------

 Alpha MOs
 -- Occupied --
-19.0771 -19.0771 -10.2215 -10.2215 -10.1781 -10.1776 -10.1691 -10.1686
-10.1636 -10.1636 -10.1611 -10.1605 -10.1596 -10.1596  -1.0007  -0.9983
 -0.8605  -0.8089  -0.7619  -0.7599  -0.7039  -0.6764  -0.6636  -0.6000
 -0.5882  -0.5567  -0.4917  -0.4847  -0.4759  -0.4365  -0.4308  -0.4250
 -0.4240  -0.4122  -0.4098  -0.3939  -0.3855  -0.3825  -0.3781  -0.3773
 -0.3717  -0.3395  -0.3350  -0.3302  -0.2768  -0.2497  -0.2456  -0.2383
 -0.2381  -0.1540

 Beta MOs
 -- Occupied --
-19.0712 -19.0712 -10.2198 -10.2198 -10.1778 -10.1774 -10.1688 -10.1683
-10.1634 -10.1634 -10.1596 -10.1596 -10.1594 -10.1588  -0.9901  -0.9876
 -0.8590  -0.8038  -0.7607  -0.7576  -0.7011  -0.6751  -0.6549  -0.5991
 -0.5853  -0.5535  -0.4903  -0.4821  -0.4722  -0.4353  -0.4291  -0.4232
 -0.4228  -0.4066  -0.3946  -0.3934  -0.3839  -0.3810  -0.3772  -0.3703
 -0.3511  -0.3382  -0.3294  -0.3268  -0.2486  -0.2434  -0.2400  -0.2330
 -0.2330

          Ground-State Mulliken Net Atomic Charges

     Atom                 Charge (a.u.)    Spin (a.u.)
  --------------------------------------------------------
      1 C                    -0.543891      -0.000950
      2 C                     0.580305       0.016944
      3 C                    -0.299324       0.041646
      4 C                     0.018696       0.007908
      5 C                    -0.605011       0.088174
      6 O                    -0.513311       0.218765
      7 C                     0.043494       0.139610
      8 C                     0.039571       0.139578
      9 C                    -0.600753       0.088250
     10 O                    -0.513695       0.218691
     11 C                     0.007618       0.007793
     12 C                    -0.302783       0.041733
     13 C                     0.566733       0.016998
     14 C                    -0.543089      -0.000919
     15 H                     0.175111       0.000049
     16 H                     0.166394       0.001130
     17 H                     0.166565       0.001134
     18 H                     0.133605      -0.002934
     19 H                     0.191403      -0.011489
     20 H                     0.191266      -0.011477
     21 H                     0.133934      -0.002939
     22 H                     0.166182       0.001126
     23 H                     0.174769       0.000050
     24 H                     0.166213       0.001129
  --------------------------------------------------------
  Sum of atomic charges =    -1.000000

                    Cartesian Multipole Moments
 -----------------------------------------------------------------
    Charge (ESU x 10^10)
                -4.8032
    Dipole Moment (Debye)
         X     -12.4084      Y       1.6143      Z      -0.6789
       Tot      12.5314
    Quadrupole Moments (Debye-Ang)
        XX    -104.1865     XY      -0.2850     YY    -113.5747
        XZ      -2.4705     YZ     -16.8447     ZZ     -99.1803

 Total job time:  69.34s(wall), 265.54s(cpu)
        *  Thank you very much for using Q-Chem.  Have a nice day.  *
