 Gaussian 16, Revision A.03,
 Gaussian 16:  ES64L-G16RevA.03 25-Dec-2016

 --------------------------------------
 #P UB3LYP/6-311++G(d,p) nosym opt freq
 --------------------------------------

 -------
 Radical
 -------
 Symbolic Z-matrix:
 Charge = -1 Multiplicity = 2

 SCF Done:  E(UB3LYP) =  -613.985026366     A.U. after   19 cycles
 Optimization completed.
    -- Stationary point found.
 Normal termination of Gaussian 16 at Sun Jan  7 20:17:19 2024.

 ----------------------------------------------------------------------
 #P Geom=AllCheck Guess=TCheck SCRF=Check GenChk UB3LYP/6-311++G(d,p) F
 req
 ----------------------------------------------------------------------

 Structure from the checkpoint file:  "246-rad.chk"
 -------
 Radical
 -------
 Charge = -1 Multiplicity = 2

                          Input orientation:
 ---------------------------------------------------------------------
 Center     Atomic      Atomic             Coordinates (Angstroms)
 Number     Number       Type             X           Y           Z
 ---------------------------------------------------------------------
      1          6           0       -2.792158   -0.883160   -0.965858
      2          6           0       -1.445588   -0.409401   -0.468813
      3          6           0       -0.296929   -1.122325   -0.774036
      4          6           0        0.978948   -0.722805   -0.335334
      5          6           0        2.165582   -1.524518   -0.693157
      6          8           0        2.075946   -2.572803   -1.389955
      7          6           0        3.416123   -1.023955   -0.191917
      8          6           0        3.523536    0.120701    0.570278
      9          6           0        2.395986    0.930821    0.941793
     10          8           0        2.502905    1.976859    1.639521
     11          6           0        1.089345    0.453627    0.448041
     12          6           0       -0.081659    1.171573    0.753423
     13          6           0       -1.334781    0.771230    0.317275
     14          6           0       -2.560963    1.579907    0.674021
     15          1           0       -2.685923   -1.800968   -1.548547
     16          1           0       -3.485247   -1.089540   -0.140736
     17          1           0       -3.280137   -0.136426   -1.604674
     18          1           0       -0.350636   -2.026754   -1.371837
     19          1           0        4.300198   -1.602665   -0.446338
     20          1           0        4.493581    0.458049    0.925838
     21          1           0        0.033610    2.067940    1.354670
     22          1           0       -3.289638    0.991003    1.245010
     23          1           0       -2.287076    2.447250    1.278883
     24          1           0       -3.085027    1.946359   -0.217550
 ---------------------------------------------------------------------

 SCF Done:  E(UB3LYP) =  -613.985026366     A.U. after    1 cycles

 Alpha  occ. eigenvalues --  -18.93447 -18.93446 -10.08187 -10.08185 -10.06791
 Alpha  occ. eigenvalues --  -10.06791 -10.06127 -10.06082 -10.04173 -10.04172
 Alpha  occ. eigenvalues --  -10.03989 -10.03943 -10.02820 -10.02760  -0.85748
 Alpha  occ. eigenvalues --   -0.85483  -0.73932  -0.68230  -0.64918  -0.63808
 Alpha  occ. eigenvalues --   -0.58997  -0.56477  -0.53266  -0.48153  -0.46484
 Alpha  occ. eigenvalues --   -0.42884  -0.36912  -0.36258  -0.34731  -0.33272
 Alpha  occ. eigenvalues --   -0.31567  -0.30718  -0.30219  -0.30145  -0.28145
 Alpha  occ. eigenvalues --   -0.27486  -0.27379  -0.26744  -0.25674  -0.24791
 Alpha  occ. eigenvalues --   -0.23416  -0.21705  -0.21086  -0.20741  -0.13763
 Alpha  occ. eigenvalues --   -0.12478  -0.11533  -0.10133  -0.09582  -0.01512
 Alpha virt. eigenvalues --    0.07115   0.09112   0.09387   0.10579   0.10998
 Alpha virt. eigenvalues --    0.11080   0.11401   0.12478   0.12539   0.13445
 Alpha virt. eigenvalues --    0.13491   0.15643   0.15951   0.17035   0.17508

  Beta  occ. eigenvalues --  -18.92766 -18.92765 -10.08072 -10.08071 -10.06794
  Beta  occ. eigenvalues --  -10.06794 -10.06095 -10.06050 -10.04177 -10.04176
  Beta  occ. eigenvalues --  -10.03931 -10.03885 -10.02657 -10.02596  -0.84587
  Beta  occ. eigenvalues --   -0.84286  -0.73808  -0.67784  -0.64844  -0.63514
  Beta  occ. eigenvalues --   -0.58823  -0.56337  -0.52341  -0.48077  -0.46186
  Beta  occ. eigenvalues --   -0.42598  -0.36838  -0.36021  -0.34419  -0.33214
  Beta  occ. eigenvalues --   -0.31380  -0.30680  -0.30183  -0.29941  -0.28136
  Beta  occ. eigenvalues --   -0.27000  -0.26674  -0.26118  -0.25170  -0.24511
  Beta  occ. eigenvalues --   -0.21529  -0.20771  -0.20548  -0.20165  -0.11877
  Beta  occ. eigenvalues --   -0.11009  -0.10510  -0.09492  -0.08955
  Beta virt. eigenvalues --    0.05307   0.07115   0.09109   0.09776   0.10588
  Beta virt. eigenvalues --    0.11197   0.11400   0.12097   0.12492   0.12541
  Beta virt. eigenvalues --    0.13498   0.13589   0.15660   0.15957   0.17449

 Mulliken charges and spin densities:
               1          2
     1  C   -0.531536  -0.001616
     2  C    0.699100   0.021912
     3  C   -0.342350   0.025061
     4  C    0.078959   0.033925
     5  C   -0.821097   0.045266
     6  O   -0.399227   0.248254
     7  C    0.151493   0.138316
     8  C    0.151506   0.138342
     9  C   -0.821141   0.045269
    10  O   -0.399225   0.248255
    11  C    0.078944   0.033903
    12  C   -0.342414   0.025061
    13  C    0.699172   0.021903
    14  C   -0.531509  -0.001615
    15  H    0.155525   0.000014
    16  H    0.125991   0.001387
    17  H    0.126155   0.001391
    18  H    0.115772  -0.002367
    19  H    0.141220  -0.011543
    20  H    0.141222  -0.011544
    21  H    0.115772  -0.002367
    22  H    0.126031   0.001388
    23  H    0.155532   0.000014
    24  H    0.126107   0.001389
 Sum of Mulliken charges =  -1.00000   1.00000

 Dipole moment (field-independent basis, Debye):
    X=             -9.5211    Y=              1.2392    Z=             -0.5189  Tot=              9.6154
 Quadrupole moment (field-independent basis, Debye-Ang):
   XX=           -111.2933   YY=           -111.7411   ZZ=            -98.5691
   XY=              0.8037   XZ=             -2.6870   YZ=            -15.2140

  Exact polarizability: 232.536 -11.460 167.612  12.588  49.914 123.039
 Approx polarizability: 328.221 -10.099 294.907  19.712  99.920 207.658

                      1                      2                      3
                      A                      A                      A
 Frequencies --     82.4414                97.4917               133.3608
 Red. masses --      3.9022                 4.3562                 4.7273
 Frc consts  --      0.0156                 0.0244                 0.0495
 IR Inten    --      0.0000                 7.0752                 2.7555

                      4                      5                      6
                      A                      A                      A
 Frequencies --    141.4223               179.5215               200.2462
 Red. masses --      1.0457                 1.1147                 5.2524
 Frc consts  --      0.0123                 0.0212                 0.1241
 IR Inten    --      0.0008                 0.1724                 1.5341

                      7                      8                      9
                      A                      A                      A
 Frequencies --    236.3489               291.0014               307.8380
 Red. masses --      3.5678                 2.6823                 3.8961
 Frc consts  --      0.1174                 0.1338                 0.2175
 IR Inten    --      0.0000                 2.9114                 2.9545

                     10                     11                     12
                      A                      A                      A
 Frequencies --    340.4613               341.0518               366.7025
 Red. masses --      7.3526                 4.8684                 4.6304
 Frc consts  --      0.5021                 0.3336                 0.3669
 IR Inten    --      5.9666                 0.0001                 3.3854

                     13                     14                     15
                      A                      A                      A
 Frequencies --    441.4940               458.1266               493.4755
 Red. masses --      3.0129                10.6979                 3.9144
 Frc consts  --      0.3460                 1.3229                 0.5616
 IR Inten    --      5.3195                 2.1248                 0.3561

                     16                     17                     18
                      A                      A                      A
 Frequencies --    520.1939               546.1201               603.9634
 Red. masses --      7.6888                 4.8846                 5.4092
 Frc consts  --      1.2259                 0.8583                 1.1625
 IR Inten    --      0.9196                 0.0000                 0.9526

                     19                     20                     21
                      A                      A                      A
 Frequencies --    631.1752               638.0148               683.1599
 Red. masses --      2.2552                 3.7628                 3.9354
 Frc consts  --      0.5294                 0.9025                 1.0821
 IR Inten    --      2.1004                 0.3568                 0.0000

                     22                     23                     24
                      A                      A                      A
 Frequencies --    732.2503               770.5859               787.7196
 Red. masses --      6.9921                 3.7510                 6.8714
 Frc consts  --      2.2089                 1.3123                 2.5121
 IR Inten    --      0.3642                 3.8823                35.7109

                     25                     26                     27
                      A                      A                      A
 Frequencies --    788.7259               824.8342               925.9943
 Red. masses --      5.3746                 1.9175                 1.3315
 Frc consts  --      1.9699                 0.7686                 0.6727
 IR Inten    --      0.0007                50.0639                 0.0019

                     28                     29                     30
                      A                      A                      A
 Frequencies --    928.5983               930.4268               998.5636
 Red. masses --      1.3841                 1.2995                 3.6275
 Frc consts  --      0.7032                 0.6628                 2.1311
 IR Inten    --     13.0267                 0.0037                 9.5200

                     31                     32                     33
                      A                      A                      A
 Frequencies --   1002.4105              1027.4882              1044.8545
 Red. masses --      1.4413                 1.6474                 1.4276
 Frc consts  --      0.8533                 1.0247                 0.9183
 IR Inten    --     19.0958                 0.5570                 4.1572

                     34                     35                     36
                      A                      A                      A
 Frequencies --   1061.3361              1067.8376              1146.5969
 Red. masses --      1.5631                 1.9051                 1.4942
 Frc consts  --      1.0374                 1.2799                 1.1574
 IR Inten    --      0.0000                 8.2208                 0.6892

                     37                     38                     39
                      A                      A                      A
 Frequencies --   1176.7989              1215.9714              1250.2094
 Red. masses --      4.2281                 2.3364                 1.8173
 Frc consts  --      3.4499                 2.0353                 1.6735
 IR Inten    --      1.4102                12.0795                31.2646

                     40                     41                     42
                      A                      A                      A
 Frequencies --   1251.8282              1270.6817              1351.4501
 Red. masses --      4.9914                 1.7874                 7.5056
 Frc consts  --      4.6085                 1.7004                 8.0767
 IR Inten    --     10.4735                 7.8239                 2.8333

                     43                     44                     45
                      A                      A                      A
 Frequencies --   1389.4048              1401.3241              1410.4942
 Red. masses --      1.9206                 1.5117                 1.2398
 Frc consts  --      2.1845                 1.7490                 1.4532
 IR Inten    --      2.5330                12.9556                 2.1079

                     46                     47                     48
                      A                      A                      A
 Frequencies --   1441.3913              1474.9248              1476.8510
 Red. masses --      5.4409                 4.5794                 1.0468
 Frc consts  --      6.6602                 5.8694                 1.3452
 IR Inten    --    125.7329                31.7949                 0.0013

                     49                     50                     51
                      A                      A                      A
 Frequencies --   1489.1875              1490.8399              1493.1425
 Red. masses --      1.1805                 1.0456                 1.2458
 Frc consts  --      1.5425                 1.3693                 1.6364
 IR Inten    --     16.6106                12.3705                11.5643

                     52                     53                     54
                      A                      A                      A
 Frequencies --   1499.0249              1537.6169              1538.1063
 Red. masses --      4.5649                 5.5244                 3.9648
 Frc consts  --      6.0437                 7.6954                 5.5265
 IR Inten    --     21.2143               538.5656                40.1988

                     55                     56                     57
                      A                      A                      A
 Frequencies --   1621.1973              1645.2825              2991.5109
 Red. masses --      7.7826                 6.6378                 1.0401
 Frc consts  --     12.0516                10.5866                 5.4841
 IR Inten    --      7.5240                 1.4441                11.5258

                     58                     59                     60
                      A                      A                      A
 Frequencies --   2994.7140              3025.9523              3027.0757
 Red. masses --      1.0388                 1.0991                 1.0993
 Frc consts  --      5.4892                 5.9292                 5.9347
 IR Inten    --    194.0105                 0.2903                75.8706

                     61                     62                     63
                      A                      A                      A
 Frequencies --   3085.9443              3087.5267              3130.3943
 Red. masses --      1.0963                 1.0965                 1.0849
 Frc consts  --      6.1511                 6.1585                 6.2638
 IR Inten    --     49.3441                 3.2217                24.4156

                     64                     65                     66
                      A                      A                      A
 Frequencies --   3152.3250              3161.3536              3163.4556
 Red. masses --      1.0934                 1.0889                 1.0893
 Frc consts  --      6.4015                 6.4118                 6.4226
 IR Inten    --     53.5298                12.2850                 8.3961

 - Thermochemistry -
 -------------------
 Temperature   298.150 Kelvin.  Pressure   1.00000 Atm.
 Atom     1 has atomic number  6 and mass  12.00000

 Molecular mass:   186.06808 amu.
 Principal axes and moments of inertia in atomic units:
                           1         2         3
     Eigenvalues --  1661.593003064.654304703.97928
           X            0.99019   0.07789  -0.11601
           Y           -0.12889   0.82983  -0.54293
           Z            0.05397   0.55255   0.83173
 This molecule is an asymmetric top.
 Rotational symmetry number  1.
 Warning -- assumption of classical behavior for rotation
           may cause significant error
 Rotational temperatures (Kelvin)      0.05213     0.02826     0.01841
 Rotational constants (GHZ):           1.08615     0.58889     0.38366
 Zero-point vibrational energy     484594.1 (Joules/Mol)
                                  115.82078 (Kcal/Mol)
 Warning -- explicit consideration of  18 degrees of freedom as
           vibrations may cause significant error
 Vibrational temperatures:    118.61   140.27   191.88   203.48   258.29
          (Kelvin)            288.11   340.05   418.69   442.91   489.85
                              490.70   527.60   635.21   659.14   710.00
                              748.44   785.75   868.97   908.12   917.96
                              982.91  1053.54  1108.70  1133.35  1134.80
                             1186.75  1332.30  1336.05  1338.68  1436.71
                             1442.25  1478.33  1503.31  1527.03  1536.38
                             1649.70  1693.15  1749.51  1798.77  1801.10
                             1828.23  1944.44  1999.04  2016.19  2029.39
                             2073.84  2122.09  2124.86  2142.61  2144.99
                             2148.30  2156.76  2212.29  2212.99  2332.54
                             2367.19  4304.12  4308.73  4353.67  4355.29
                             4439.99  4442.26  4503.94  4535.49  4548.48
                             4551.51

 Zero-point correction=                           0.184572 (Hartree/Particle)
 Thermal correction to Energy=                    0.196493
 Thermal correction to Enthalpy=                  0.197437
 Thermal correction to Gibbs Free Energy=         0.146327
 Sum of electronic and zero-point Energies=           -613.800454
 Sum of electronic and thermal Energies=              -613.788533
 Sum of electronic and thermal Enthalpies=            -613.787589
 Sum of electronic and thermal Free Energies=         -613.838700

                     E (Thermal)             CV                S
                      KCal/Mol        Cal/Mol-Kelvin    Cal/Mol-Kelvin
 Total                  123.301             46.682            107.572
 Electronic               0.000              0.000              1.377
 Translational            0.889              2.981             41.569
 Rotational               0.889              2.981             31.549
 Vibrational            121.524             40.720             33.076
 Vibration     1          0.600              1.961              3.832
 Vibration     2          0.603              1.951              3.504
 Vibration     3          0.613              1.920              2.897
 Vibration     4          0.615              1.912              2.785
 Vibration     5          0.629              1.867              2.333
 Vibration     6          0.638              1.840              2.131
 Vibration     7          0.655              1.785              1.830
 Vibration     8          0.687              1.690              1.468
 Vibration     9          0.698              1.659              1.374
 Vibration    10          0.720              1.595              1.210
 Vibration    11          0.721              1.593              1.207
 Vibration    12          0.740              1.541              1.094
 Vibration    13          0.801              1.380              0.822
 Vibration    14          0.816              1.343              0.772
 Vibration    15          0.849              1.264              0.675
 Vibration    16          0.875              1.205              0.610
 Vibration    17          0.901              1.148              0.552
 Vibration    18          0.962              1.023              0.443

 Optimization completed.
    -- Stationary point found.
 Normal termination of Gaussian 16 at Sun Jan  7 21:08:25 2024.
