 Q-Chem 5.4, Q-Chem, Inc., Pleasanton, CA (2021)
 Q-Chem 5.4.0 for Intel X86 EM64T Linux

User input:
--------------------------------------------------------------
$molecule
-1 2
C                  5.7339860000     -5.2857440000      1.3779640000
C                  6.6891020000     -5.1870600000      0.3840760000
C                  6.5751350000     -4.2124540000     -0.6341150000
C                  4.6209520000     -4.4230570000      1.4093280000
C                  4.4949490000     -3.4402430000      0.3927460000
C                  5.4830610000     -3.3605860000     -0.6095510000
C                  3.6182410000     -4.5542970000      2.4842890000
C                  2.5243830000     -3.6236080000      2.4194070000
C                  2.4014730000     -2.6688900000      1.4323690000
C                  3.3528770000     -2.5053050000      0.3673670000
O                  3.7238420000     -5.4251580000      3.3905680000
O                  3.2305230000     -1.6278090000     -0.5313080000
H                  5.8114290000     -6.0293470000      2.1635540000
H                  7.5396070000     -5.8652250000      0.3819380000
H                  1.7769100000     -3.7068450000      3.2039050000
H                  1.5550820000     -1.9871190000      1.4262930000
C                  7.6269600000     -4.1148490000     -1.7152350000
H                  5.3528590000     -2.5969100000     -1.3697260000
H                  7.7090130000     -5.0497950000     -2.2826890000
H                  8.6186250000     -3.9082160000     -1.2947570000
H                  7.3913110000     -3.3153850000     -2.4219750000
$end

$rem
BASIS  =  6-311++G(d,p)
GUI  =  2
JOB_TYPE  =  SP
METHOD  =  B3LYP
SCF_CONVERGENCE  = 8
SOLVENT_METHOD = sm12
$end

$smx
solvent dimethylformamide
charges CM5
$end

--------------------------------------------------------------

             Standard Nuclear Orientation (Angstroms)
    I     Atom           X                Y                Z
 ----------------------------------------------------------------
    1      C       5.7339860000    -5.2857440000     1.3779640000
    2      C       6.6891020000    -5.1870600000     0.3840760000
    3      C       6.5751350000    -4.2124540000    -0.6341150000
    4      C       4.6209520000    -4.4230570000     1.4093280000
    5      C       4.4949490000    -3.4402430000     0.3927460000
    6      C       5.4830610000    -3.3605860000    -0.6095510000
    7      C       3.6182410000    -4.5542970000     2.4842890000
    8      C       2.5243830000    -3.6236080000     2.4194070000
    9      C       2.4014730000    -2.6688900000     1.4323690000
   10      C       3.3528770000    -2.5053050000     0.3673670000
   11      O       3.7238420000    -5.4251580000     3.3905680000
   12      O       3.2305230000    -1.6278090000    -0.5313080000
   13      H       5.8114290000    -6.0293470000     2.1635540000
   14      H       7.5396070000    -5.8652250000     0.3819380000
   15      H       1.7769100000    -3.7068450000     3.2039050000
   16      H       1.5550820000    -1.9871190000     1.4262930000
   17      C       7.6269600000    -4.1148490000    -1.7152350000
   18      H       5.3528590000    -2.5969100000    -1.3697260000
   19      H       7.7090130000    -5.0497950000    -2.2826890000
   20      H       8.6186250000    -3.9082160000    -1.2947570000
   21      H       7.3913110000    -3.3153850000    -2.4219750000
 ----------------------------------------------------------------

   16    -574.6553561639      5.61e-09  Convergence criterion met
 Total energy in the final basis set =     -574.7449110356

                    Orbital Energies (a.u.)
 --------------------------------------------------------------

 Alpha MOs
 -- Occupied --
-19.0788 -19.0788 -10.2256 -10.2250 -10.1913 -10.1817 -10.1816 -10.1807
-10.1798 -10.1762 -10.1730 -10.1713 -10.1706  -1.0016  -0.9994  -0.8683
 -0.8148  -0.7722  -0.7543  -0.7013  -0.6745  -0.6254  -0.6028  -0.5674
 -0.5119  -0.4962  -0.4793  -0.4520  -0.4371  -0.4296  -0.4295  -0.4140
 -0.4137  -0.3981  -0.3909  -0.3826  -0.3786  -0.3539  -0.3492  -0.3439
 -0.2815  -0.2645  -0.2538  -0.2450  -0.2394  -0.1586

 Beta MOs
 -- Occupied --
-19.0721 -19.0719 -10.2245 -10.2238 -10.1910 -10.1814 -10.1812 -10.1807
-10.1794 -10.1762 -10.1731 -10.1697 -10.1689  -0.9900  -0.9874  -0.8667
 -0.8096  -0.7705  -0.7524  -0.6988  -0.6661  -0.6235  -0.6006  -0.5647
 -0.5097  -0.4943  -0.4757  -0.4510  -0.4363  -0.4276  -0.4265  -0.4092
 -0.4016  -0.3945  -0.3890  -0.3807  -0.3523  -0.3522  -0.3426  -0.3405
 -0.2582  -0.2519  -0.2462  -0.2386  -0.2332

          Ground-State Mulliken Net Atomic Charges

     Atom                 Charge (a.u.)    Spin (a.u.)
  --------------------------------------------------------
      1 C                    -0.218955       0.030716
      2 C                     1.245454       0.012937
      3 C                     1.951686       0.019179
      4 C                    -1.387733       0.014024
      5 C                    -1.487345       0.030518
      6 C                    -0.958390       0.030619
      7 C                    -1.528795       0.037263
      8 C                     0.019851       0.161623
      9 C                    -0.005003       0.119188
     10 C                    -1.396869       0.074738
     11 O                    -0.345262       0.244681
     12 O                    -0.348405       0.251823
     13 H                     0.171872      -0.002549
     14 H                     0.328964      -0.001656
     15 H                     0.218675      -0.011048
     16 H                     0.224898      -0.011348
     17 C                     1.660235      -0.000566
     18 H                     0.033469      -0.003172
     19 H                     0.250579       0.001499
     20 H                     0.250786       0.001499
     21 H                     0.320286       0.000031
  --------------------------------------------------------
  Sum of atomic charges =    -1.000000

                    Cartesian Multipole Moments
 -----------------------------------------------------------------
    Charge (ESU x 10^10)
                -4.8032
    Dipole Moment (Debye)
         X     -16.5597      Y      17.0398      Z      -7.1150
       Tot      24.8032
    Quadrupole Moments (Debye-Ang)
        XX    -134.5629     XY      59.5973     YY    -157.8708
        XZ     -29.6862     YZ      42.1970     ZZ    -107.3392

 Total job time:  314.70s(wall), 2387.62s(cpu)
        *  Thank you very much for using Q-Chem.  Have a nice day.  *
