 Q-Chem 5.4, Q-Chem, Inc., Pleasanton, CA (2021)
 Q-Chem 5.4.0 for Intel X86 EM64T Linux

User input:
--------------------------------------------------------------
$molecule
-1 2
C                 -0.4680850000      3.9067130000      0.3060420000
C                  0.5566780000      2.9926460000      0.3415090000
C                  0.3874450000      1.6660050000     -0.1652180000
C                 -0.8435470000      1.3099460000     -0.6941040000
C                  1.5202890000      0.7286230000     -0.1367650000
C                  1.5001010000     -0.7024040000      0.1079690000
C                  2.8446020000      1.0506430000     -0.3268330000
C                  2.8422210000     -1.1712610000      0.0482690000
C                  0.4846640000     -1.6236010000      0.4114750000
C                  0.8135460000     -2.9575850000      0.6157860000
C                  2.1473910000     -3.4011220000      0.5295290000
C                  3.1783830000     -2.5124350000      0.2504620000
N                  3.6435690000     -0.0807460000     -0.2044400000
H                 -0.9965820000      0.3264350000     -1.1271810000
H                  3.2856870000      2.0076840000     -0.5565800000
H                 -0.5430290000     -1.2903900000      0.4859250000
H                  0.0307580000     -3.6719050000      0.8473610000
H                  2.3747020000     -4.4500280000      0.6888250000
H                  4.2090500000     -2.8495130000      0.1969850000
H                  4.6343990000     -0.1104010000     -0.3697070000
C                 -1.7769980000      3.6065340000     -0.2330700000
C                 -1.9746280000      2.2035930000     -0.7693770000
O                 -2.6947750000      4.4545050000     -0.2525410000
O                 -3.0666070000      1.8423420000     -1.2640970000
H                 -0.3333160000      4.9076930000      0.7075040000
H                  1.5090150000      3.2647280000      0.7889760000
$end

$rem
BASIS  =  6-311++G(d,p)
GUI  =  2
JOB_TYPE  =  SP
METHOD  =  B3LYP
SCF_CONVERGENCE  = 8
SOLVENT_METHOD = sm12
$end

$smx
solvent dimethylformamide
charges CM5
$end

--------------------------------------------------------------

             Standard Nuclear Orientation (Angstroms)
    I     Atom           X                Y                Z
 ----------------------------------------------------------------
    1      C      -0.4680850000     3.9067130000     0.3060420000
    2      C       0.5566780000     2.9926460000     0.3415090000
    3      C       0.3874450000     1.6660050000    -0.1652180000
    4      C      -0.8435470000     1.3099460000    -0.6941040000
    5      C       1.5202890000     0.7286230000    -0.1367650000
    6      C       1.5001010000    -0.7024040000     0.1079690000
    7      C       2.8446020000     1.0506430000    -0.3268330000
    8      C       2.8422210000    -1.1712610000     0.0482690000
    9      C       0.4846640000    -1.6236010000     0.4114750000
   10      C       0.8135460000    -2.9575850000     0.6157860000
   11      C       2.1473910000    -3.4011220000     0.5295290000
   12      C       3.1783830000    -2.5124350000     0.2504620000
   13      N       3.6435690000    -0.0807460000    -0.2044400000
   14      H      -0.9965820000     0.3264350000    -1.1271810000
   15      H       3.2856870000     2.0076840000    -0.5565800000
   16      H      -0.5430290000    -1.2903900000     0.4859250000
   17      H       0.0307580000    -3.6719050000     0.8473610000
   18      H       2.3747020000    -4.4500280000     0.6888250000
   19      H       4.2090500000    -2.8495130000     0.1969850000
   20      H       4.6343990000    -0.1104010000    -0.3697070000
   21      C      -1.7769980000     3.6065340000    -0.2330700000
   22      C      -1.9746280000     2.2035930000    -0.7693770000
   23      O      -2.6947750000     4.4545050000    -0.2525410000
   24      O      -3.0666070000     1.8423420000    -1.2640970000
   25      H      -0.3333160000     4.9076930000     0.7075040000
   26      H       1.5090150000     3.2647280000     0.7889760000
 ----------------------------------------------------------------

   18    -744.3382916128      4.59e-09  Convergence criterion met
 Total energy in the final basis set =     -744.4481482988

                    Orbital Energies (a.u.)
 --------------------------------------------------------------

 Alpha MOs
 -- Occupied --
-19.0771 -19.0722 -14.3672 -10.2171 -10.2169 -10.2156 -10.2142 -10.1881
-10.1863 -10.1840 -10.1821 -10.1815 -10.1809 -10.1769 -10.1765 -10.1658
-10.1588  -1.0090  -0.9912  -0.9836  -0.8540  -0.8435  -0.7945  -0.7486
 -0.7397  -0.7291  -0.6925  -0.6355  -0.6111  -0.6038  -0.5874  -0.5569
 -0.5431  -0.4999  -0.4860  -0.4780  -0.4663  -0.4469  -0.4457  -0.4390
 -0.4334  -0.4137  -0.4127  -0.4066  -0.4022  -0.3790  -0.3744  -0.3635
 -0.3516  -0.3463  -0.3453  -0.3338  -0.2910  -0.2544  -0.2435  -0.2402
 -0.2182  -0.2144  -0.1638

 Beta MOs
 -- Occupied --
-19.0702 -19.0659 -14.3669 -10.2171 -10.2161 -10.2149 -10.2136 -10.1864
-10.1862 -10.1839 -10.1824 -10.1815 -10.1810 -10.1768 -10.1749 -10.1647
-10.1583  -0.9979  -0.9907  -0.9715  -0.8537  -0.8393  -0.7927  -0.7484
 -0.7381  -0.7263  -0.6847  -0.6351  -0.6092  -0.6015  -0.5842  -0.5555
 -0.5411  -0.4993  -0.4856  -0.4759  -0.4641  -0.4453  -0.4449  -0.4373
 -0.4320  -0.4118  -0.4077  -0.3971  -0.3908  -0.3757  -0.3730  -0.3616
 -0.3503  -0.3437  -0.3226  -0.3171  -0.2848  -0.2478  -0.2395  -0.2325
 -0.2119  -0.2049

          Ground-State Mulliken Net Atomic Charges

     Atom                 Charge (a.u.)    Spin (a.u.)
  --------------------------------------------------------
      1 C                     0.123497       0.103939
      2 C                    -0.622616       0.082843
      3 C                     2.095033       0.114021
      4 C                    -2.438364       0.009926
      5 C                    -1.371071       0.121272
      6 C                     0.174652      -0.084510
      7 C                     1.546013       0.030923
      8 C                     1.349843      -0.041953
      9 C                    -2.207138       0.027288
     10 C                    -0.289756       0.013452
     11 C                     0.631057      -0.007944
     12 C                     1.166342      -0.010692
     13 N                     0.150414       0.007693
     14 H                     0.029395      -0.004685
     15 H                     0.474304      -0.002555
     16 H                     0.106859      -0.001490
     17 H                     0.272857      -0.000148
     18 H                     0.333687      -0.000102
     19 H                     0.337740       0.000148
     20 H                     0.569285      -0.000369
     21 C                    -1.910654       0.077800
     22 C                    -1.140276       0.096258
     23 O                    -0.377179       0.254304
     24 O                    -0.423176       0.231112
     25 H                     0.219296      -0.006836
     26 H                     0.199958      -0.009694
  --------------------------------------------------------
  Sum of atomic charges =    -1.000000

                    Cartesian Multipole Moments
 -----------------------------------------------------------------
    Charge (ESU x 10^10)
                -4.8032
    Dipole Moment (Debye)
         X      15.1596      Y     -13.7054      Z       2.7633
       Tot      20.6225
    Quadrupole Moments (Debye-Ang)
        XX    -119.1929     XY      41.1680     YY    -153.8887
        XZ     -13.8805     YZ       6.4344     ZZ    -110.8290

 Total job time:  626.63s(wall), 4586.33s(cpu)
        *  Thank you very much for using Q-Chem.  Have a nice day.  *
