 Gaussian 16, Revision A.03,
 Gaussian 16:  ES64L-G16RevA.03 25-Dec-2016

 ----------------------------------------------------------------
 #P UB3LYP/6-311++G(d,p) SCRF=(PCM,Solvent=n,n-DiMethylFormamide)
 ----------------------------------------------------------------

 ------------------
 Quinone PCM in DMF
 ------------------
 Symbolic Z-matrix:
 Charge =  0 Multiplicity = 1

                         Standard orientation:
 ---------------------------------------------------------------------
 Center     Atomic      Atomic             Coordinates (Angstroms)
 Number     Number       Type             X           Y           Z
 ---------------------------------------------------------------------
      1          6           0       -3.650228    0.767365    0.199205
      2          6           0       -4.571778   -0.273697    0.278027
      3          6           0       -4.137531   -1.597933    0.207626
      4          6           0       -2.291922    0.481797    0.051998
      5          6           0       -1.855141   -0.848464   -0.017448
      6          6           0       -2.782091   -1.886621    0.057970
      7          6           0       -1.308283    1.586171   -0.034281
      8          6           0        0.151951    1.255447   -0.206152
      9          6           0        0.560485   -0.059929   -0.206294
     10          6           0       -0.406091   -1.159310   -0.174609
     11          8           0       -1.640540    2.759344    0.020963
     12          8           0       -0.021330   -2.324213   -0.292848
     13          7           0        0.936031    2.338097   -0.379326
     14          1           0       -3.964325    1.802583    0.248431
     15          1           0       -5.626761   -0.053685    0.393765
     16          1           0       -4.856365   -2.407078    0.269195
     17          1           0       -2.425581   -2.907326   -0.000366
     18          1           0        0.473208    3.226103   -0.233322
     19          1           0        1.924531    2.243755   -0.145348
     20          7           0        1.876081   -0.537238   -0.380611
     21          1           0        1.862686   -1.529409   -0.599462
     22          6           0        3.088308   -0.001324   -0.042142
     23          6           0        4.281636   -0.897012   -0.350096
     24          6           0        5.377762   -0.796205    0.713498
     25          8           0        3.235502    1.116520    0.444498
     26          1           0        4.674264   -0.566966   -1.319431
     27          1           0        3.960267   -1.934303   -0.482504
     28          1           0        5.682009    0.241755    0.852159
     29          1           0        6.251265   -1.380126    0.414834
     30          1           0        5.028502   -1.176233    1.676896
 ---------------------------------------------------------------------

 SCF Done:  E(UB3LYP) =  -838.074712467     A.U. after   15 cycles

 The electronic state is 1-A.
 Alpha  occ. eigenvalues --  -19.14497 -19.12955 -19.11613 -14.36850 -14.33994
 Alpha  occ. eigenvalues --  -10.29800 -10.29410 -10.28197 -10.25520 -10.23740
 Alpha  occ. eigenvalues --  -10.21150 -10.21086 -10.20145 -10.20052 -10.19902
 Alpha  occ. eigenvalues --  -10.19887 -10.18792 -10.16604  -1.08133  -1.07054
 Alpha  occ. eigenvalues --   -1.06193  -0.96333  -0.93957  -0.89279  -0.82338
 Alpha  occ. eigenvalues --   -0.79072  -0.78148  -0.76305  -0.70819  -0.67408
 Alpha  occ. eigenvalues --   -0.65208  -0.63538  -0.61362  -0.59499  -0.56851
 Alpha  occ. eigenvalues --   -0.54566  -0.54049  -0.51505  -0.51178  -0.48840
 Alpha  occ. eigenvalues --   -0.48062  -0.47329  -0.46335  -0.46177  -0.45495
 Alpha  occ. eigenvalues --   -0.45430  -0.44398  -0.43556  -0.42757  -0.41942
 Alpha  occ. eigenvalues --   -0.39242  -0.38755  -0.37917  -0.37476  -0.37276
 Alpha  occ. eigenvalues --   -0.36372  -0.35396  -0.32386  -0.30187  -0.28951
 Alpha  occ. eigenvalues --   -0.28761  -0.28578  -0.28112  -0.22669
 Alpha virt. eigenvalues --   -0.12332  -0.05827  -0.03196  -0.01180  -0.00290
 Alpha virt. eigenvalues --    0.00405   0.00781   0.01233   0.01956   0.02197
 Alpha virt. eigenvalues --    0.02663   0.03281   0.03473   0.04163   0.04413

  Beta  occ. eigenvalues --  -19.14497 -19.12955 -19.11613 -14.36850 -14.33994
  Beta  occ. eigenvalues --  -10.29800 -10.29410 -10.28197 -10.25520 -10.23740
  Beta  occ. eigenvalues --  -10.21150 -10.21086 -10.20145 -10.20052 -10.19902
  Beta  occ. eigenvalues --  -10.19887 -10.18792 -10.16604  -1.08133  -1.07054
  Beta  occ. eigenvalues --   -1.06193  -0.96333  -0.93957  -0.89279  -0.82338
  Beta  occ. eigenvalues --   -0.79072  -0.78148  -0.76305  -0.70819  -0.67408
  Beta  occ. eigenvalues --   -0.65208  -0.63538  -0.61362  -0.59499  -0.56851
  Beta  occ. eigenvalues --   -0.54566  -0.54049  -0.51505  -0.51178  -0.48840
  Beta  occ. eigenvalues --   -0.48062  -0.47329  -0.46335  -0.46177  -0.45495
  Beta  occ. eigenvalues --   -0.45430  -0.44398  -0.43556  -0.42757  -0.41942
  Beta  occ. eigenvalues --   -0.39242  -0.38755  -0.37917  -0.37476  -0.37276
  Beta  occ. eigenvalues --   -0.36372  -0.35396  -0.32386  -0.30187  -0.28951
  Beta  occ. eigenvalues --   -0.28761  -0.28578  -0.28112  -0.22669
  Beta virt. eigenvalues --   -0.12332  -0.05827  -0.03196  -0.01180  -0.00290
  Beta virt. eigenvalues --    0.00405   0.00781   0.01233   0.01956   0.02197
  Beta virt. eigenvalues --    0.02663   0.03281   0.03473   0.04163   0.04413

 Mulliken charges and spin densities:
               1          2
     1  C    0.223177  -0.000000
     2  C   -0.326096   0.000000
     3  C   -0.359540   0.000000
     4  C    0.453202   0.000000
     5  C   -0.040683   0.000000
     6  C    0.182366   0.000000
     7  C   -0.605556  -0.000000
     8  C    0.433119  -0.000000
     9  C    0.503396  -0.000000
    10  C   -0.965490   0.000000
    11  O   -0.282976   0.000000
    12  O   -0.309128  -0.000000
    13  N   -0.405952  -0.000000
    14  H    0.188528  -0.000000
    15  H    0.205162   0.000000
    16  H    0.209361  -0.000000
    17  H    0.186768  -0.000000
    18  H    0.314185   0.000000
    19  H    0.323460  -0.000000
    20  N   -0.032595   0.000000
    21  H    0.378632   0.000000
    22  C    0.171742   0.000000
    23  C   -0.287352  -0.000000
    24  C   -0.569499   0.000000
    25  O   -0.404211   0.000000
    26  H    0.198179  -0.000000
    27  H    0.136763   0.000000
    28  H    0.169212   0.000000
    29  H    0.158703  -0.000000
    30  H    0.153124  -0.000000
 Sum of Mulliken charges =  -0.00000   0.00000

 Dipole moment (field-independent basis, Debye):
    X=             -1.5132    Y=             -2.1011    Z=             -0.7275  Tot=              2.6896
 Quadrupole moment (field-independent basis, Debye-Ang):
   XX=            -82.2270   YY=           -111.4746   ZZ=           -107.7390
   XY=             -0.8282   XZ=             -6.2843   YZ=             -1.1832

 Normal termination of Gaussian 16 at Sun Jan 21 08:12:40 2024.
