 Gaussian 16, Revision A.03,
 Gaussian 16:  ES64L-G16RevA.03 25-Dec-2016

 ----------------------------------------------------------------------
 #P UB3LYP/6-311++G(d,p) nosym opt freq SCRF=(PCM,Solvent=n,n-DiMethylF
 ormamide)
 ----------------------------------------------------------------------

 -------
 Radical
 -------
 Symbolic Z-matrix:
 Charge = -1 Multiplicity = 2

 SCF Done:  E(UB3LYP) =  -996.444147080     A.U. after   19 cycles
 SCF Done:  E(UB3LYP) =  -996.444436300     A.U. after   16 cycles
 SCF Done:  E(UB3LYP) =  -996.444471811     A.U. after   15 cycles
 SCF Done:  E(UB3LYP) =  -996.444470321     A.U. after   14 cycles
 SCF Done:  E(UB3LYP) =  -996.444473575     A.U. after   14 cycles
 SCF Done:  E(UB3LYP) =  -996.444474036     A.U. after   10 cycles
 Optimization completed.
    -- Stationary point found.
 Normal termination of Gaussian 16 at Sat Feb 10 17:10:56 2024.

 ----------------------------------------------------------------------
 #P Geom=AllCheck Guess=TCheck SCRF=Check GenChk UB3LYP/6-311++G(d,p) F
 req
 ----------------------------------------------------------------------

 Structure from the checkpoint file:  "136-rad.chk"
 -------
 Radical
 -------
 Charge = -1 Multiplicity = 2

                          Input orientation:
 ---------------------------------------------------------------------
 Center     Atomic      Atomic             Coordinates (Angstroms)
 Number     Number       Type             X           Y           Z
 ---------------------------------------------------------------------
      1          8           0       -0.049967   -1.529358   -2.358182
      2          6           0       -0.027025   -0.828849   -1.308105
      3          6           0        1.230962   -0.455737   -0.660842
      4          6           0        2.438784   -0.884509   -1.212582
      5          6           0        3.678447   -0.559601   -0.643468
      6          6           0        4.917878   -0.994605   -1.204477
      7          6           0        6.111236   -0.656558   -0.621588
      8          6           0        6.137132    0.139069    0.561146
      9          6           0        4.969015    0.575336    1.129726
     10          6           0        3.704639    0.244932    0.553219
     11          6           0        2.489506    0.673099    1.106672
     12          6           0        1.257135    0.348429    0.538361
     13          6           0        0.027005    0.828445    1.168325
     14          8           0        0.049959    1.529274    2.218286
     15          6           0       -1.230945    0.455505    0.521020
     16          6           0       -2.438806    0.884400    1.072651
     17          6           0       -3.678437    0.559597    0.503440
     18          6           0       -4.917889    0.994720    1.064346
     19          6           0       -6.111224    0.656774    0.481362
     20          6           0       -6.137122   -0.138864   -0.701366
     21          6           0       -4.968994   -0.575242   -1.269845
     22          6           0       -3.704648   -0.244944   -0.693242
     23          6           0       -2.489496   -0.673224   -1.246594
     24          6           0       -1.257174   -0.348662   -0.678179
     25          1           0        2.404611   -1.488937   -2.111878
     26          1           0        4.897226   -1.600151   -2.104857
     27          1           0        7.045340   -0.992874   -1.057560
     28          1           0        7.090575    0.397074    1.008483
     29          1           0        4.987805    1.181039    2.030038
     30          1           0        2.494691    1.278058    2.006318
     31          1           0       -2.404653    1.488833    1.971943
     32          1           0       -4.897260    1.600274    1.964721
     33          1           0       -7.045330    0.993183    0.917260
     34          1           0       -7.090558   -0.396779   -1.148766
     35          1           0       -4.987761   -1.180954   -2.170153
     36          1           0       -2.494658   -1.278191   -2.146236
 ---------------------------------------------------------------------

 SCF Done:  E(UB3LYP) =  -996.444474036     A.U. after    1 cycles

 Alpha  occ. eigenvalues --  -19.07510 -19.07506 -10.22539 -10.22536 -10.18573
 Alpha  occ. eigenvalues --  -10.18572 -10.18533 -10.18533 -10.17867 -10.17867
 Alpha  occ. eigenvalues --  -10.17864 -10.17863 -10.17780 -10.17780 -10.17742
 Alpha  occ. eigenvalues --  -10.17742 -10.17576 -10.17575 -10.17538 -10.17538
 Alpha  occ. eigenvalues --  -10.17363 -10.17363 -10.17362 -10.17361  -1.00023
 Alpha  occ. eigenvalues --   -0.99760  -0.87915  -0.87687  -0.83704  -0.82165
 Alpha  occ. eigenvalues --   -0.77865  -0.77864  -0.77186  -0.73958  -0.73159
 Alpha  occ. eigenvalues --   -0.72569  -0.66502  -0.66221  -0.62323  -0.61952
 Alpha  occ. eigenvalues --   -0.59894  -0.59437  -0.56878  -0.55282  -0.52701
 Alpha  occ. eigenvalues --   -0.51892  -0.51388  -0.48076  -0.47286  -0.46610
 Alpha  occ. eigenvalues --   -0.45803  -0.44771  -0.43747  -0.43411  -0.42527
 Alpha  occ. eigenvalues --   -0.42151  -0.41835  -0.41740  -0.40915  -0.40513
 Alpha  occ. eigenvalues --   -0.40186  -0.39678  -0.38089  -0.37991  -0.37978
 Alpha  occ. eigenvalues --   -0.36123  -0.35954  -0.34297  -0.33409  -0.33040
 Alpha  occ. eigenvalues --   -0.32797  -0.31406  -0.29512  -0.29132  -0.26107
 Alpha  occ. eigenvalues --   -0.24627  -0.24624  -0.23865  -0.22773  -0.22505
 Alpha  occ. eigenvalues --   -0.13305
 Alpha virt. eigenvalues --   -0.08413  -0.04508  -0.02810  -0.00373  -0.00340
 Alpha virt. eigenvalues --    0.00034   0.00913   0.01112   0.01117   0.01555
 Alpha virt. eigenvalues --    0.01724   0.02727   0.03069   0.03982   0.04378

  Beta  occ. eigenvalues --  -19.07014 -19.07011 -10.22346 -10.22342 -10.18537
  Beta  occ. eigenvalues --  -10.18537 -10.18498 -10.18498 -10.17866 -10.17866
  Beta  occ. eigenvalues --  -10.17864 -10.17864 -10.17759 -10.17759 -10.17718
  Beta  occ. eigenvalues --  -10.17718 -10.17518 -10.17517 -10.17480 -10.17480
  Beta  occ. eigenvalues --  -10.17339 -10.17338 -10.17338 -10.17337  -0.99147
  Beta  occ. eigenvalues --   -0.98863  -0.87780  -0.87605  -0.83460  -0.82084
  Beta  occ. eigenvalues --   -0.77763  -0.77726  -0.76908  -0.73836  -0.72889
  Beta  occ. eigenvalues --   -0.72482  -0.66340  -0.65621  -0.62146  -0.61871
  Beta  occ. eigenvalues --   -0.59874  -0.59389  -0.56657  -0.55000  -0.52641
  Beta  occ. eigenvalues --   -0.51745  -0.51348  -0.47994  -0.47033  -0.46492
  Beta  occ. eigenvalues --   -0.45742  -0.44728  -0.43683  -0.43339  -0.42122
  Beta  occ. eigenvalues --   -0.41811  -0.41536  -0.41525  -0.40405  -0.40371
  Beta  occ. eigenvalues --   -0.40093  -0.39451  -0.37940  -0.37431  -0.35988
  Beta  occ. eigenvalues --   -0.35895  -0.35848  -0.34196  -0.33383  -0.32795
  Beta  occ. eigenvalues --   -0.32697  -0.30309  -0.29222  -0.28666  -0.24617
  Beta  occ. eigenvalues --   -0.24286  -0.24171  -0.23402  -0.22204  -0.21843
  Beta virt. eigenvalues --   -0.08037  -0.07517  -0.04277  -0.02047  -0.00364
  Beta virt. eigenvalues --   -0.00087   0.00033   0.00918   0.01130   0.01267
  Beta virt. eigenvalues --    0.01550   0.02357   0.02726   0.03080   0.03992

 Mulliken charges and spin densities:
               1          2
     1  O   -0.449025   0.186024
     2  C   -0.668780   0.107097
     3  C    0.275329   0.027149
     4  C    0.051000   0.033416
     5  C    0.089647   0.025562
     6  C   -0.239274   0.000196
     7  C   -0.358663   0.020802
     8  C   -0.358646   0.020725
     9  C   -0.239210   0.000276
    10  C    0.089966   0.025481
    11  C    0.050660   0.033574
    12  C    0.275338   0.027107
    13  C   -0.668555   0.107269
    14  O   -0.449204   0.186165
    15  C    0.275187   0.027086
    16  C    0.050934   0.033604
    17  C    0.089762   0.025460
    18  C   -0.239380   0.000292
    19  C   -0.358638   0.020706
    20  C   -0.358670   0.020823
    21  C   -0.239105   0.000180
    22  C    0.089845   0.025585
    23  C    0.050730   0.033386
    24  C    0.275486   0.027173
    25  H    0.142128  -0.002674
    26  H    0.159885   0.000599
    27  H    0.188508  -0.001706
    28  H    0.188523  -0.001701
    29  H    0.159871   0.000595
    30  H    0.142718  -0.002683
    31  H    0.142132  -0.002687
    32  H    0.159882   0.000594
    33  H    0.188508  -0.001699
    34  H    0.188522  -0.001707
    35  H    0.159873   0.000600
    36  H    0.142715  -0.002670
 Sum of Mulliken charges =  -1.00000   1.00000

 Dipole moment (field-independent basis, Debye):
    X=             -0.0000    Y=             -0.0014    Z=              0.3336  Tot=              0.3336
 Quadrupole moment (field-independent basis, Debye-Ang):
   XX=           -131.5403   YY=           -154.5571   ZZ=           -162.0182
   XY=             -0.8984   XZ=             -0.1803   YZ=             -8.7573

  Exact polarizability: 964.697 -29.200 305.520  10.945 179.395 451.865
 Approx polarizability: 933.500 -26.246 344.321  10.953 191.820 500.682

                      1                      2                      3
                      A                      A                      A
 Frequencies --     25.6526                62.4330                90.1835
 Red. masses --      7.3095                 3.9646                 5.7531
 Frc consts  --      0.0028                 0.0091                 0.0276
 IR Inten    --      9.1295                 0.0038                 0.0000

                      4                      5                      6
                      A                      A                      A
 Frequencies --     99.9191               108.4430               115.4675
 Red. masses --      5.8339                 8.4950                 5.8619
 Frc consts  --      0.0343                 0.0589                 0.0460
 IR Inten    --      0.0000                 7.3617                17.4041

                      7                      8                      9
                      A                      A                      A
 Frequencies --    202.6179               226.2426               239.2580
 Red. masses --      6.7341                 6.9457                 4.1165
 Frc consts  --      0.1629                 0.2095                 0.1388
 IR Inten    --      0.0000                 8.0753                 0.0206

                     10                     11                     12
                      A                      A                      A
 Frequencies --    242.6160               253.1552               297.0749
 Red. masses --      4.5305                 7.1657                 5.7055
 Frc consts  --      0.1571                 0.2706                 0.2967
 IR Inten    --      0.0000                 0.0000                 0.0000

                     13                     14                     15
                      A                      A                      A
 Frequencies --    337.1740               345.1718               348.8384
 Red. masses --      7.4453                11.0874                 5.2673
 Frc consts  --      0.4987                 0.7783                 0.3776
 IR Inten    --      0.0000                18.5822                 3.9820

                     16                     17                     18
                      A                      A                      A
 Frequencies --    401.8789               449.8106               463.3335
 Red. masses --      3.3893                 3.4534                 6.5103
 Frc consts  --      0.3225                 0.4117                 0.8234
 IR Inten    --      0.2041                 0.0000                 0.0001

                     19                     20                     21
                      A                      A                      A
 Frequencies --    476.8837               477.6970               478.7868
 Red. masses --     11.8290                 2.6574                 2.5692
 Frc consts  --      1.5850                 0.3573                 0.3470
 IR Inten    --      0.0000                 0.0000                64.1171

                     22                     23                     24
                      A                      A                      A
 Frequencies --    495.6110               529.2730               535.8259
 Red. masses --      5.9948                 3.9631                 7.7807
 Frc consts  --      0.8676                 0.6541                 1.3162
 IR Inten    --      0.0000                 0.0133                48.5014

                     25                     26                     27
                      A                      A                      A
 Frequencies --    578.1386               585.5837               591.8649
 Red. masses --      6.8860                 4.1071                 6.7809
 Frc consts  --      1.3561                 0.8298                 1.3995
 IR Inten    --     91.7232                 0.0000                 0.0000

                     28                     29                     30
                      A                      A                      A
 Frequencies --    618.4267               639.8454               679.4177
 Red. masses --      6.6679                 6.8194                 5.5330
 Frc consts  --      1.5025                 1.6449                 1.5048
 IR Inten    --      0.0000                 9.7257                 0.0103

                     31                     32                     33
                      A                      A                      A
 Frequencies --    696.5754               711.3456               715.5194
 Red. masses --      6.6981                 6.3628                 3.1827
 Frc consts  --      1.9149                 1.8970                 0.9600
 IR Inten    --      0.0000                84.9890                 1.0484

                     34                     35                     36
                      A                      A                      A
 Frequencies --    756.6519               760.3687               764.7504
 Red. masses --      1.2654                 4.2559                 1.5644
 Frc consts  --      0.4269                 1.4498                 0.5390
 IR Inten    --      0.0000                 0.0001               210.8954

                     37                     38                     39
                      A                      A                      A
 Frequencies --    768.0487               770.0513               778.3197
 Red. masses --      3.4009                 5.1840                 8.0528
 Frc consts  --      1.1820                 1.8112                 2.8742
 IR Inten    --      0.7080                38.9726                 0.0000

                     40                     41                     42
                      A                      A                      A
 Frequencies --    789.1819               810.3252               857.8208
 Red. masses --      4.1980                 3.6575                 1.3670
 Frc consts  --      1.5405                 1.4150                 0.5927
 IR Inten    --      0.0001                 0.0003                 0.0318

                     43                     44                     45
                      A                      A                      A
 Frequencies --    858.7305               913.0789               923.1632
 Red. masses --      1.4184                 5.8941                 1.5127
 Frc consts  --      0.6163                 2.8953                 0.7595
 IR Inten    --      0.0000                 2.6669                 0.0627

                     46                     47                     48
                      A                      A                      A
 Frequencies --    925.3362               931.0554               933.9446
 Red. masses --      1.4251                 1.6705                 1.5070
 Frc consts  --      0.7190                 0.8532                 0.7745
 IR Inten    --      0.0000                 0.0035                92.7948

                     49                     50                     51
                      A                      A                      A
 Frequencies --    945.9569               981.3487               981.7827
 Red. masses --      4.9798                 1.3758                 1.3867
 Frc consts  --      2.6254                 0.7806                 0.7875
 IR Inten    --      0.0000                 0.0000                20.3045

                     52                     53                     54
                      A                      A                      A
 Frequencies --    986.7041               995.3622               995.5169
 Red. masses --      3.1357                 1.2861                 1.2875
 Frc consts  --      1.7987                 0.7507                 0.7518
 IR Inten    --      7.7144                 0.0000                 0.0088

                     55                     56                     57
                      A                      A                      A
 Frequencies --   1021.3554              1022.9451              1046.7519
 Red. masses --      2.3120                 2.3756                 4.4714
 Frc consts  --      1.4210                 1.4646                 2.8866
 IR Inten    --    108.0802                 0.0003               950.6345

                     58                     59                     60
                      A                      A                      A
 Frequencies --   1142.9510              1147.3313              1150.4143
 Red. masses --      2.0023                 1.6125                 1.6681
 Frc consts  --      1.5411                 1.2506                 1.3007
 IR Inten    --     21.5191                 0.0144                 0.0000

                     61                     62                     63
                      A                      A                      A
 Frequencies --   1160.7555              1173.9353              1181.3100
 Red. masses --      1.4371                 1.1132                 1.2482
 Frc consts  --      1.1408                 0.9039                 1.0263
 IR Inten    --    544.8314                 0.0019                 4.6648

                     64                     65                     66
                      A                      A                      A
 Frequencies --   1198.7761              1212.6083              1232.7828
 Red. masses --      4.1502                 1.8556                 2.1749
 Frc consts  --      3.5139                 1.6076                 1.9475
 IR Inten    --   3872.3681                 0.0005                 0.0000

                     67                     68                     69
                      A                      A                      A
 Frequencies --   1253.8814              1279.1779              1279.4405
 Red. masses --      4.0475                 1.8144                 2.0529
 Frc consts  --      3.7493                 1.7492                 1.9800
 IR Inten    --      0.0001               851.3670              1653.1940

                     70                     71                     72
                      A                      A                      A
 Frequencies --   1282.0178              1285.8852              1362.3033
 Red. masses --      2.3210                 4.3769                 5.1927
 Frc consts  --      2.2476                 4.2640                 5.6779
 IR Inten    --      0.0001                61.7411                33.1141

                     73                     74                     75
                      A                      A                      A
 Frequencies --   1383.4186              1384.3927              1386.1646
 Red. masses --      2.6053                 2.1857                 5.6732
 Frc consts  --      2.9378                 2.4681                 6.4225
 IR Inten    --   1483.1402                 0.0010                 0.1358

                     76                     77                     78
                      A                      A                      A
 Frequencies --   1405.5999              1407.3562              1447.0859
 Red. masses --      4.1832                 5.2060                 3.0883
 Frc consts  --      4.8695                 6.0752                 3.8103
 IR Inten    --      7.4557                 0.0012               345.3983

                     79                     80                     81
                      A                      A                      A
 Frequencies --   1465.9424              1471.9570              1480.0851
 Red. masses --      3.3508                 3.1621                 3.7556
 Frc consts  --      4.2427                 4.0366                 4.8473
 IR Inten    --      0.0007               195.3443                 0.0002

                     82                     83                     84
                      A                      A                      A
 Frequencies --   1506.4612              1511.0694              1554.4071
 Red. masses --      3.2886                 3.0343                 5.9890
 Frc consts  --      4.3972                 4.0820                 8.5258
 IR Inten    --      0.0014               149.7667                 0.0003

                     85                     86                     87
                      A                      A                      A
 Frequencies --   1573.8169              1594.6398              1596.5396
 Red. masses --      6.3686                 9.1693                 5.8374
 Frc consts  --      9.2940                13.7376                 8.7666
 IR Inten    --     82.2742                 0.0000                 0.0019

                     88                     89                     90
                      A                      A                      A
 Frequencies --   1622.0430              1645.1008              1645.3580
 Red. masses --      6.6216                 5.5460                 5.8887
 Frc consts  --     10.2645                 8.8433                 9.3927
 IR Inten    --     58.5775                 0.0004                 0.5041

                     91                     92                     93
                      A                      A                      A
 Frequencies --   3157.1363              3157.2368              3161.2902
 Red. masses --      1.0857                 1.0858                 1.0880
 Frc consts  --      6.3762                 6.3771                 6.4061
 IR Inten    --      2.5095                 0.0001                 4.0468

                     94                     95                     96
                      A                      A                      A
 Frequencies --   3161.3779              3173.7431              3173.7952
 Red. masses --      1.0880                 1.0936                 1.0936
 Frc consts  --      6.4067                 6.4898                 6.4903
 IR Inten    --      0.0003               100.4996                 0.0036

                     97                     98                     99
                      A                      A                      A
 Frequencies --   3176.5111              3176.5366              3180.5345
 Red. masses --      1.0897                 1.0896                 1.0891
 Frc consts  --      6.4784                 6.4776                 6.4914
 IR Inten    --     28.7643                 0.6724                16.8616

                    100                    101                    102
                      A                      A                      A
 Frequencies --   3180.9274              3185.9347              3186.0720
 Red. masses --      1.0893                 1.0972                 1.0971
 Frc consts  --      6.4942                 6.5613                 6.5613
 IR Inten    --      0.0034               142.5936                 0.0001

 - Thermochemistry -
 -------------------
 Temperature   298.150 Kelvin.  Pressure   1.00000 Atm.
 Atom     1 has atomic number  8 and mass  15.99491

 Molecular mass:   308.08373 amu.
 Principal axes and moments of inertia in atomic units:
                           1         2         3
     Eigenvalues --  2195.67569********************
           X            0.99908   0.01812   0.03887
           Y           -0.04238   0.55673   0.82961
           Z            0.00661   0.83050  -0.55699
 This molecule is an asymmetric top.
 Rotational symmetry number  1.
 Warning -- assumption of classical behavior for rotation
           may cause significant error
 Rotational temperatures (Kelvin)      0.03945     0.00561     0.00491
 Rotational constants (GHZ):           0.82195     0.11685     0.10230
 Zero-point vibrational energy     706602.6 (Joules/Mol)
                                  168.88206 (Kcal/Mol)
 Warning -- explicit consideration of  28 degrees of freedom as
           vibrations may cause significant error
 Vibrational temperatures:     36.91    89.83   129.75   143.76   156.03
          (Kelvin)            166.13   291.52   325.51   344.24   349.07
                              364.23   427.42   485.12   496.63   501.90
                              578.21   647.18   666.63   686.13   687.30
                              688.87   713.07   761.51   770.93   831.81
                              842.52   851.56   889.78   920.59   977.53
                             1002.22  1023.47  1029.47  1088.65  1094.00
                             1100.31  1105.05  1107.93  1119.83  1135.46
                             1165.88  1234.21  1235.52  1313.72  1328.23
                             1331.35  1339.58  1343.74  1361.02  1411.94
                             1412.57  1419.65  1432.10  1432.33  1469.50
                             1471.79  1506.04  1644.45  1650.75  1655.19
                             1670.07  1689.03  1699.64  1724.77  1744.67
                             1773.70  1804.06  1840.45  1840.83  1844.54
                             1850.10  1960.05  1990.43  1991.83  1994.38
                             2022.34  2024.87  2082.03  2109.16  2117.82
                             2129.51  2167.46  2174.09  2236.45  2264.37
                             2294.33  2297.06  2333.76  2366.93  2367.30
                             4542.41  4542.56  4548.39  4548.52  4566.31
                             4566.38  4570.29  4570.33  4576.08  4576.65
                             4583.85  4584.05

 Zero-point correction=                           0.269131 (Hartree/Particle)
 Thermal correction to Energy=                    0.285807
 Thermal correction to Enthalpy=                  0.286751
 Thermal correction to Gibbs Free Energy=         0.224016
 Sum of electronic and zero-point Energies=           -996.175343
 Sum of electronic and thermal Energies=              -996.158668
 Sum of electronic and thermal Enthalpies=            -996.157723
 Sum of electronic and thermal Free Energies=         -996.220458

                     E (Thermal)             CV                S
                      KCal/Mol        Cal/Mol-Kelvin    Cal/Mol-Kelvin
 Total                  179.346             69.939            132.036
 Electronic               0.000              0.000              1.377
 Translational            0.889              2.981             43.072
 Rotational               0.889              2.981             34.747
 Vibrational            177.569             63.977             52.840
 Vibration     1          0.593              1.985              6.140
 Vibration     2          0.597              1.972              4.379
 Vibration     3          0.602              1.956              3.656
 Vibration     4          0.604              1.949              3.456
 Vibration     5          0.606              1.942              3.297
 Vibration     6          0.608              1.937              3.175
 Vibration     7          0.639              1.836              2.109
 Vibration     8          0.650              1.801              1.909
 Vibration     9          0.657              1.780              1.808
 Vibration    10          0.659              1.775              1.784
 Vibration    11          0.664              1.757              1.709
 Vibration    12          0.691              1.679              1.433
 Vibration    13          0.718              1.601              1.225
 Vibration    14          0.724              1.585              1.188
 Vibration    15          0.726              1.578              1.171
 Vibration    16          0.767              1.466              0.956
 Vibration    17          0.809              1.361              0.796
 Vibration    18          0.821              1.331              0.756
 Vibration    19          0.833              1.301              0.719
 Vibration    20          0.834              1.300              0.716
 Vibration    21          0.835              1.297              0.713
 Vibration    22          0.851              1.260              0.669
 Vibration    23          0.884              1.185              0.589
 Vibration    24          0.891              1.171              0.574
 Vibration    25          0.935              1.079              0.489
 Vibration    26          0.943              1.063              0.475
 Vibration    27          0.949              1.049              0.464
 Vibration    28          0.978              0.993              0.419

 Optimization completed.
    -- Stationary point found.
 Normal termination of Gaussian 16 at Sat Feb 10 20:28:46 2024.
