 Q-Chem 5.4, Q-Chem, Inc., Pleasanton, CA (2021)
 Q-Chem 5.4.0 for Intel X86 EM64T Linux

User input:
--------------------------------------------------------------
$molecule
-2 1
N                 -4.5338230000     -0.9670600000     -0.7652350000
C                 -3.2386010000     -0.6782160000     -0.2397240000
C                 -3.0436480000     -0.7364740000      1.1701450000
C                 -1.7904220000     -0.5066880000      1.6988710000
C                 -0.6617610000     -0.2312270000      0.8920010000
C                  0.6310620000     -0.0235670000      1.5219440000
O                  0.8011990000     -0.0857720000      2.7881300000
C                  1.7141830000      0.2689830000      0.6009420000
C                  3.0172090000      0.4885840000      1.1091790000
C                  4.0919560000      0.7696770000      0.2885390000
C                  3.8964060000      0.8419360000     -1.1196490000
C                  2.6385200000      0.6336770000     -1.6468460000
C                  1.5128300000      0.3460710000     -0.8320080000
C                  0.2219080000      0.1369680000     -1.4565550000
O                  0.0505780000      0.2032010000     -2.7262300000
C                 -0.8580150000     -0.1596230000     -0.5359370000
C                 -2.1639690000     -0.3807430000     -1.0505230000
H                 -5.2816890000     -0.5321040000     -0.2206830000
H                 -4.6250410000     -0.6604220000     -1.7293300000
H                 -3.8839200000     -0.9822730000      1.8158910000
H                 -1.6228890000     -0.5471120000      2.7706880000
H                  3.1316570000      0.4255410000      2.1871730000
H                  5.0809020000      0.9332060000      0.7130290000
H                  4.7366500000      1.0613920000     -1.7764430000
H                  2.4586320000      0.6830890000     -2.7164180000
H                 -2.2799170000     -0.3010440000     -2.1282800000
$end

$rem
BASIS  =  6-311++G(d,p)
GUI  =  2
JOB_TYPE  =  SP
METHOD  =  B3LYP
SCF_CONVERGENCE  = 8
SOLVENT_METHOD = sm12
$end

$smx
solvent dimethylformamide
charges CM5
$end

--------------------------------------------------------------

             Standard Nuclear Orientation (Angstroms)
    I     Atom           X                Y                Z
 ----------------------------------------------------------------
    1      N      -4.5338230000    -0.9670600000    -0.7652350000
    2      C      -3.2386010000    -0.6782160000    -0.2397240000
    3      C      -3.0436480000    -0.7364740000     1.1701450000
    4      C      -1.7904220000    -0.5066880000     1.6988710000
    5      C      -0.6617610000    -0.2312270000     0.8920010000
    6      C       0.6310620000    -0.0235670000     1.5219440000
    7      O       0.8011990000    -0.0857720000     2.7881300000
    8      C       1.7141830000     0.2689830000     0.6009420000
    9      C       3.0172090000     0.4885840000     1.1091790000
   10      C       4.0919560000     0.7696770000     0.2885390000
   11      C       3.8964060000     0.8419360000    -1.1196490000
   12      C       2.6385200000     0.6336770000    -1.6468460000
   13      C       1.5128300000     0.3460710000    -0.8320080000
   14      C       0.2219080000     0.1369680000    -1.4565550000
   15      O       0.0505780000     0.2032010000    -2.7262300000
   16      C      -0.8580150000    -0.1596230000    -0.5359370000
   17      C      -2.1639690000    -0.3807430000    -1.0505230000
   18      H      -5.2816890000    -0.5321040000    -0.2206830000
   19      H      -4.6250410000    -0.6604220000    -1.7293300000
   20      H      -3.8839200000    -0.9822730000     1.8158910000
   21      H      -1.6228890000    -0.5471120000     2.7706880000
   22      H       3.1316570000     0.4255410000     2.1871730000
   23      H       5.0809020000     0.9332060000     0.7130290000
   24      H       4.7366500000     1.0613920000    -1.7764430000
   25      H       2.4586320000     0.6830890000    -2.7164180000
   26      H      -2.2799170000    -0.3010440000    -2.1282800000
 ----------------------------------------------------------------

   18    -744.2832988109      4.08e-09  Convergence criterion met
 Total energy in the final basis set =     -744.5773300285

                    Orbital Energies (a.u.)
 --------------------------------------------------------------

 Alpha MOs
 -- Occupied --
-19.0335 -19.0256 -14.3210 -10.2071 -10.1913 -10.1834 -10.1737 -10.1723
-10.1719 -10.1713 -10.1698 -10.1683 -10.1583 -10.1540 -10.1523 -10.1520
-10.1516  -0.9528  -0.9440  -0.9135  -0.8434  -0.8300  -0.7653  -0.7427
 -0.7391  -0.7180  -0.6496  -0.6310  -0.6042  -0.5852  -0.5466  -0.5298
 -0.5196  -0.4936  -0.4705  -0.4580  -0.4474  -0.4344  -0.4223  -0.4195
 -0.4015  -0.3948  -0.3901  -0.3802  -0.3709  -0.3663  -0.3430  -0.3387
 -0.3362  -0.3310  -0.3160  -0.2908  -0.2528  -0.2411  -0.2354  -0.2125
 -0.2101  -0.2015  -0.1151

          Ground-State Mulliken Net Atomic Charges

     Atom                 Charge (a.u.)
  ----------------------------------------
      1 N                     0.043337
      2 C                     2.622199
      3 C                     2.464407
      4 C                     0.247934
      5 C                    -1.156026
      6 C                    -2.779887
      7 O                    -0.288005
      8 C                    -1.559888
      9 C                    -0.299999
     10 C                     1.564257
     11 C                     1.521366
     12 C                    -0.347674
     13 C                    -1.652380
     14 C                    -3.102294
     15 O                    -0.314040
     16 C                    -1.590753
     17 C                     0.088763
     18 H                     0.420960
     19 H                     0.425977
     20 H                     0.427409
     21 H                     0.137966
     22 H                     0.119643
     23 H                     0.401705
     24 H                     0.397281
     25 H                     0.106646
     26 H                     0.101097
  ----------------------------------------
  Sum of atomic charges =    -2.000000

                    Cartesian Multipole Moments
 -----------------------------------------------------------------
    Charge (ESU x 10^10)
                -9.6064
    Dipole Moment (Debye)
         X      -6.5610      Y       0.1568      Z      -0.0690
       Tot       6.5632
    Quadrupole Moments (Debye-Ang)
        XX    -135.3063     XY     -10.8826     YY    -118.4412
        XZ      -1.2519     YZ       2.2073     ZZ    -158.1331

 Total job time:  640.67s(wall), 4834.01s(cpu)
        *  Thank you very much for using Q-Chem.  Have a nice day.  *
