 Q-Chem 5.4, Q-Chem, Inc., Pleasanton, CA (2021)
 Q-Chem 5.4.0 for Intel X86 EM64T Linux

User input:
--------------------------------------------------------------
$molecule
-2 1
C                 -1.4231940000      2.3322840000     -3.9366750000
C                 -1.3981920000      0.9588470000     -4.0667020000
C                 -1.1222520000      0.1501060000     -2.9338650000
C                 -1.1801060000      2.9650580000     -2.6929870000
C                 -0.9002750000      2.1514740000     -1.5537360000
C                 -0.8812310000      0.7440550000     -1.7119780000
C                 -1.2286190000      4.4101450000     -2.6050920000
C                 -0.6296920000      2.7278930000     -0.2526330000
C                 -0.9850450000      5.0044190000     -1.3024290000
C                 -0.6485720000      4.1765920000     -0.1515850000
C                 -1.0731310000      6.4411840000     -1.1372530000
C                 -0.7773350000      6.9960110000      0.1017990000
C                 -0.4152910000      6.1995690000      1.2029740000
C                 -0.3321520000      4.8157190000      1.1096730000
O                 -1.4765950000      5.0936060000     -3.6693480000
O                 -0.3930560000      1.9433130000      0.7422010000
H                 -1.6313180000      2.9786010000     -4.7820620000
H                 -1.5901110000      0.4967670000     -5.0324910000
H                 -1.0999630000     -0.9331160000     -3.0299450000
H                 -0.6667810000      0.1550770000     -0.8271970000
H                 -0.1770910000      6.6942030000      2.1375480000
H                 -0.8441350000      8.0684280000      0.2443100000
N                 -1.5069260000      7.2298490000     -2.2035340000
N                  0.1031780000      4.0381820000      2.1832990000
H                 -1.5345210000      6.6761840000     -3.0720460000
H                 -0.0402960000      3.0374990000      1.9841750000
C                  0.0502980000      4.4758160000      3.5636670000
C                  0.8634140000      3.4972530000      4.4208550000
C                 -1.3887190000      4.6211120000      4.1039850000
C                 -1.2452580000      8.6514040000     -2.3071480000
C                  0.2477820000      8.9841560000     -2.5165400000
C                 -2.1015760000      9.2271430000     -3.4423660000
H                  0.5367110000      5.4575440000      3.6414400000
H                  0.8775980000      3.8011190000      5.4730780000
H                  1.8941590000      3.4395480000      4.0595850000
H                  0.4324100000      2.4912420000      4.3668180000
H                 -1.9690170000      5.2868570000      3.4598430000
H                 -1.3979120000      5.0253430000      5.1237310000
H                 -1.8843180000      3.6442320000      4.1160240000
H                 -1.5685990000      9.1384230000     -1.3772720000
H                  0.8505480000      8.5320850000     -1.7245880000
H                  0.4238680000     10.0669130000     -2.5153760000
H                  0.5901210000      8.5803190000     -3.4755820000
H                 -1.8337220000      8.7624000000     -4.3978770000
H                 -1.9604770000     10.3086690000     -3.5430390000
H                 -3.1613680000      9.0283460000     -3.2589970000
$end
$rem
MAX_SCF_CYCLES=200
BASIS  =  6-311++G(d,p)
GUI  =  2
JOB_TYPE  =  SP
METHOD  =  B3LYP
SOLVENT_METHOD = COSMO
$end
$solvent
dielectric 37.219
opticaldielectric 1.43
$end

--------------------------------------------------------------

             Standard Nuclear Orientation (Angstroms)
    I     Atom           X                Y                Z
 ----------------------------------------------------------------
    1      C       1.3962333741    -3.7421208248    -0.0557182211
    2      C       0.7142324885    -4.9412706776    -0.0278661767
    3      C      -0.7036141164    -4.9427701553     0.0289960585
    4      C       0.7158892897    -2.5000558855    -0.0300050846
    5      C      -0.7104970698    -2.5015704255     0.0294660376
    6      C      -1.3881839001    -3.7450603860     0.0560126767
    7      C       1.4763797933    -1.2678982478    -0.0723988290
    8      C      -1.4735591019    -1.2709836819     0.0711270712
    9      C       0.7264321274    -0.0242053207    -0.0573265535
   10      C      -0.7262215240    -0.0257765291     0.0555824114
   11      C       1.4259751456     1.2410603927    -0.1526059321
   12      C       0.6967487459     2.4212460751    -0.0753482772
   13      C      -0.7019110724     2.4197956687     0.0720651108
   14      C      -1.4285041000     1.2380228482     0.1503821929
   15      O       2.7631320582    -1.3281643054    -0.1158554705
   16      O      -2.7601934936    -1.3338963859     0.1143820627
   17      H       2.4790471215    -3.7060525225    -0.0996944602
   18      H       1.2597498902    -5.8820137467    -0.0505038418
   19      H      -1.2471243852    -5.8846565942     0.0523325343
   20      H      -2.4710713829    -3.7112741184     0.0999955456
   21      H      -1.2108715888     3.3738815614     0.1462937954
   22      H       1.2035511367     3.3763831590    -0.1509414943
   23      N       2.8031903220     1.2492923295    -0.3769635671
   24      N      -2.8055389908     1.2432064782     0.3750971740
   25      H       3.1925011598     0.3029345398    -0.2566992090
   26      H      -3.1931239694     0.2961266735     0.2550165746
   27      C      -3.6614508971     2.3752157932     0.0823424181
   28      C      -5.0371365913     2.1275066492     0.7145160434
   29      C      -3.7910968924     2.6688779821    -1.4278823433
   30      C       3.6566071292     2.3822896987    -0.0802796682
   31      C       3.7834309794     2.6725381794     1.4308155886
   32      C       5.0336470052     2.1386430955    -0.7110516820
   33      H      -3.2400168837     3.2693597220     0.5612329266
   34      H      -5.7149903652     2.9709091436     0.5445293760
   35      H      -4.9386129414     1.9697502502     1.7923319572
   36      H      -5.5001669088     1.2317853349     0.2855302282
   37      H      -2.8017786500     2.8006196988    -1.8737238233
   38      H      -4.3819002102     3.5743246607    -1.6135887489
   39      H      -4.2807974041     1.8284607479    -1.9318169839
   40      H       3.2342813873     3.2767664297    -0.5577298012
   41      H       2.7931963584     2.8015775951     1.8754134232
   42      H       4.3724503781     3.5785083706     1.6196131416
   43      H       4.2737604473     1.8316819397     1.9333886364
   44      H       5.4979689730     1.2430187448    -0.2832722702
   45      H       5.7095546893     2.9830974163    -0.5384591789
   46      H       4.9369204342     1.9828993772    -1.7893333638
 ----------------------------------------------------------------

   14   -1035.6240461204      2.47e-06  Convergence criterion met
 Total energy in the final basis set =    -1035.6240461204
    5   -1035.8807469992      9.95e-06  Convergence criterion met
 Total energy in the final basis set =    -1035.8807469992

                    Orbital Energies (a.u.)
 --------------------------------------------------------------

 Alpha MOs
 -- Occupied --
-19.0269 -19.0269 -14.2714 -14.2713 -10.1880 -10.1879 -10.1787 -10.1787
-10.1734 -10.1733 -10.1487 -10.1482 -10.1471 -10.1471 -10.1462 -10.1462
-10.1427 -10.1427 -10.1414 -10.1410 -10.1349 -10.1344 -10.1267 -10.1262
 -0.9550  -0.9518  -0.8974  -0.8932  -0.8279  -0.8053  -0.7623  -0.7524
 -0.7370  -0.7236  -0.7048  -0.6797  -0.6740  -0.6708  -0.6304  -0.6091
 -0.6024  -0.5779  -0.5651  -0.5476  -0.5342  -0.4997  -0.4968  -0.4768
 -0.4633  -0.4508  -0.4431  -0.4350  -0.4332  -0.4254  -0.4191  -0.4124
 -0.4046  -0.3971  -0.3967  -0.3842  -0.3787  -0.3768  -0.3744  -0.3738
 -0.3705  -0.3649  -0.3580  -0.3490  -0.3432  -0.3421  -0.3365  -0.3316
 -0.3288  -0.3247  -0.3195  -0.3157  -0.3066  -0.3062  -0.2810  -0.2339
 -0.2314  -0.2205  -0.2148  -0.2081  -0.1976  -0.1550  -0.1000

          Ground-State Mulliken Net Atomic Charges

     Atom                 Charge (a.u.)
  ----------------------------------------
      1 C                    -0.207029
      2 C                    -0.438388
      3 C                    -0.439157
      4 C                     0.316901
      5 C                     0.317407
      6 C                    -0.206727
      7 C                    -0.288516
      8 C                    -0.288790
      9 C                     0.025881
     10 C                     0.028717
     11 C                    -0.408456
     12 C                    -0.093463
     13 C                    -0.093875
     14 C                    -0.408557
     15 O                    -0.651572
     16 O                    -0.651741
     17 H                     0.149710
     18 H                     0.178611
     19 H                     0.178629
     20 H                     0.149835
     21 H                     0.178623
     22 H                     0.178624
     23 N                    -0.128655
     24 N                    -0.128834
     25 H                     0.399134
     26 H                     0.399278
     27 C                     0.077010
     28 C                    -0.561396
     29 C                    -0.560951
     30 C                     0.076585
     31 C                    -0.561503
     32 C                    -0.561270
     33 H                     0.113623
     34 H                     0.157226
     35 H                     0.154700
     36 H                     0.144274
     37 H                     0.144481
     38 H                     0.142859
     39 H                     0.154817
     40 H                     0.113591
     41 H                     0.144509
     42 H                     0.142871
     43 H                     0.154815
     44 H                     0.144300
     45 H                     0.157095
     46 H                     0.154776
  ----------------------------------------
  Sum of atomic charges =    -2.000001

                    Cartesian Multipole Moments
 -----------------------------------------------------------------
    Charge (ESU x 10^10)
                -9.6064
    Dipole Moment (Debye)
         X      -0.0183      Y      10.9602      Z       0.0113
       Tot      10.9603
    Quadrupole Moments (Debye-Ang)
        XX    -198.7408     XY      -0.0165     YY    -185.6325
        XZ       5.0810     YZ       0.0013     ZZ    -162.7204

 Total job time:  243.90s(wall), 1872.81s(cpu)
        *  Thank you very much for using Q-Chem.  Have a nice day.  *
