 Gaussian 16, Revision A.03,
 Gaussian 16:  ES64L-G16RevA.03 25-Dec-2016

 --------------------------------------
 #P UB3LYP/6-311++G(d,p) nosym opt freq
 --------------------------------------

 -------
 Reduced
 -------
 Symbolic Z-matrix:
 Charge = -2 Multiplicity = 1

 SCF Done:  E(UB3LYP) =  -925.117888005     A.U. after   38 cycles
 Optimization completed.
    -- Stationary point found.
 Normal termination of Gaussian 16 at Mon Jan  8 01:54:28 2024.

 ----------------------------------------------------------------------
 #P Geom=AllCheck Guess=TCheck SCRF=Check GenChk UB3LYP/6-311++G(d,p) F
 req
 ----------------------------------------------------------------------

 Structure from the checkpoint file:  "286-an.chk"
 -------
 Reduced
 -------
 Charge = -2 Multiplicity = 1

                          Input orientation:
 ---------------------------------------------------------------------
 Center     Atomic      Atomic             Coordinates (Angstroms)
 Number     Number       Type             X           Y           Z
 ---------------------------------------------------------------------
      1          6           0       -0.273973    3.829216   -0.115816
      2          6           0       -1.497312    3.237957   -0.363560
      3          6           0       -1.559426    1.881282   -0.768576
      4          6           0        0.939755    3.109041   -0.256237
      5          6           0        0.877801    1.728230   -0.670643
      6          6           0       -0.385360    1.157989   -0.914311
      7          6           0        2.202929    3.732434    0.006958
      8          6           0        3.356728    2.905220   -0.170269
      9          6           0        3.340484    1.571013   -0.563733
     10          6           0        2.088437    0.914547   -0.840817
     11          8           0        2.386420    4.960020    0.386903
     12          8           0        2.028510   -0.305339   -1.206806
     13          1           0       -0.202740    4.866612    0.195389
     14          1           0       -2.413791    3.813352   -0.248598
     15          1           0       -2.521069    1.412858   -0.964572
     16          1           0       -0.399027    0.117988   -1.224945
     17          8           0        4.533598    3.564572    0.100102
     18          6           0        4.618176    0.781936   -0.699941
     19          6           0        5.198015    0.764345   -2.129652
     20          6           0        6.485322   -0.061950   -2.247561
     21          6           0        7.099482   -0.082722   -3.654010
     22          6           0        8.389655   -0.907583   -3.756012
     23          1           0        4.177810    4.453366    0.346392
     24          1           0        4.407767   -0.253313   -0.407417
     25          1           0        5.375658    1.187904   -0.019124
     26          1           0        5.394932    1.795760   -2.447039
     27          1           0        4.435529    0.360322   -2.804434
     28          1           0        6.278510   -1.093692   -1.931322
     29          1           0        7.230225    0.328692   -1.539495
     30          1           0        7.304463    0.948104   -3.972784
     31          1           0        6.360669   -0.476847   -4.364262
     32          1           0        8.182653   -1.939287   -3.440655
     33          1           0        9.124199   -0.515546   -3.039288
     34          6           0        9.017742   -0.927169   -5.156119
     35          1           0        9.226314    0.102935   -5.474109
     36          1           0        8.288647   -1.322413   -5.875714
     37          6           0       10.309266   -1.750927   -5.245475
     38          6           0       10.941460   -1.766043   -6.640745
     39          1           0       10.100831   -2.781776   -4.930879
     40          1           0       11.036531   -1.358577   -4.522790
     41          1           0       10.259090   -2.191669   -7.385552
     42          1           0       11.860565   -2.361470   -6.666931
     43          1           0       11.202735   -0.754743   -6.973272
 ---------------------------------------------------------------------

 SCF Done:  E(UB3LYP) =  -925.117888005     A.U. after    4 cycles

 Alpha  occ. eigenvalues --  -18.91675 -18.83802 -18.82771 -10.01821 -10.01432
 Alpha  occ. eigenvalues --  -10.01036 -10.00927 -10.00104  -9.98902  -9.98800
 Alpha  occ. eigenvalues --   -9.98565  -9.97835  -9.96737  -9.96554  -9.96133
 Alpha  occ. eigenvalues --   -9.95741  -9.95597  -9.95475  -9.94740  -9.94427
 Alpha  occ. eigenvalues --   -9.93518  -0.83106  -0.74667  -0.73956  -0.65561
 Alpha  occ. eigenvalues --   -0.63543  -0.62177  -0.59078  -0.57005  -0.54038
 Alpha  occ. eigenvalues --   -0.53254  -0.50920  -0.47396  -0.44529  -0.43149
 Alpha  occ. eigenvalues --   -0.42239  -0.40113  -0.39080  -0.36786  -0.34397
 Alpha  occ. eigenvalues --   -0.33021  -0.31425  -0.29798  -0.28454  -0.27922
 Alpha  occ. eigenvalues --   -0.26586  -0.26128  -0.25367  -0.24242  -0.23586
 Alpha  occ. eigenvalues --   -0.22812  -0.22131  -0.21547  -0.20982  -0.19817
 Alpha  occ. eigenvalues --   -0.19320  -0.18712  -0.18502  -0.17726  -0.17615
 Alpha  occ. eigenvalues --   -0.17068  -0.16725  -0.15957  -0.15564  -0.15273
 Alpha  occ. eigenvalues --   -0.14548  -0.14471  -0.13087  -0.12060  -0.11526
 Alpha  occ. eigenvalues --   -0.10740  -0.10333  -0.03701  -0.02890  -0.01937
 Alpha  occ. eigenvalues --    0.00005   0.00250   0.09635
 Alpha virt. eigenvalues --    0.10437   0.13006   0.13415   0.13606   0.14243
 Alpha virt. eigenvalues --    0.15758   0.16009   0.16050   0.16143   0.16793
 Alpha virt. eigenvalues --    0.17870   0.18570   0.18659   0.18793   0.19206

  Beta  occ. eigenvalues --  -18.91675 -18.83802 -18.82771 -10.01821 -10.01432
  Beta  occ. eigenvalues --  -10.01036 -10.00927 -10.00104  -9.98902  -9.98800
  Beta  occ. eigenvalues --   -9.98565  -9.97835  -9.96737  -9.96554  -9.96133
  Beta  occ. eigenvalues --   -9.95741  -9.95597  -9.95475  -9.94740  -9.94427
  Beta  occ. eigenvalues --   -9.93518  -0.83106  -0.74667  -0.73956  -0.65561
  Beta  occ. eigenvalues --   -0.63543  -0.62177  -0.59078  -0.57005  -0.54038
  Beta  occ. eigenvalues --   -0.53254  -0.50920  -0.47396  -0.44529  -0.43149
  Beta  occ. eigenvalues --   -0.42239  -0.40113  -0.39080  -0.36786  -0.34397
  Beta  occ. eigenvalues --   -0.33021  -0.31425  -0.29798  -0.28454  -0.27922
  Beta  occ. eigenvalues --   -0.26586  -0.26128  -0.25367  -0.24242  -0.23586
  Beta  occ. eigenvalues --   -0.22812  -0.22131  -0.21547  -0.20982  -0.19817
  Beta  occ. eigenvalues --   -0.19320  -0.18712  -0.18502  -0.17726  -0.17615
  Beta  occ. eigenvalues --   -0.17068  -0.16725  -0.15957  -0.15564  -0.15273
  Beta  occ. eigenvalues --   -0.14548  -0.14471  -0.13087  -0.12060  -0.11526
  Beta  occ. eigenvalues --   -0.10740  -0.10333  -0.03701  -0.02890  -0.01937
  Beta  occ. eigenvalues --    0.00005   0.00250   0.09635
  Beta virt. eigenvalues --    0.10437   0.13006   0.13415   0.13606   0.14243
  Beta virt. eigenvalues --    0.15758   0.16009   0.16050   0.16143   0.16793
  Beta virt. eigenvalues --    0.17870   0.18570   0.18659   0.18793   0.19206

 Mulliken charges and spin densities:
               1          2
     1  C   -0.054121   0.000000
     2  C   -0.287925  -0.000000
     3  C   -0.403445  -0.000000
     4  C    0.697516   0.000000
     5  C    0.010862  -0.000000
     6  C    0.041756   0.000000
     7  C   -1.335847   0.000000
     8  C   -0.677223   0.000000
     9  C    2.348296   0.000000
    10  C   -0.959625   0.000000
    11  O   -0.541575   0.000000
    12  O   -0.439573   0.000000
    13  H    0.137618   0.000000
    14  H    0.090851  -0.000000
    15  H    0.088052   0.000000
    16  H    0.143248  -0.000000
    17  O   -0.283151   0.000000
    18  C   -0.449305  -0.000000
    19  C   -0.709248   0.000000
    20  C   -0.001481   0.000000
    21  C    0.020511   0.000000
    22  C   -0.189929  -0.000000
    23  H    0.253866  -0.000000
    24  H    0.191196   0.000000
    25  H    0.206015   0.000000
    26  H    0.144147   0.000000
    27  H    0.192564  -0.000000
    28  H    0.092301  -0.000000
    29  H    0.081170  -0.000000
    30  H    0.086799  -0.000000
    31  H    0.092104  -0.000000
    32  H    0.108431  -0.000000
    33  H    0.096665  -0.000000
    34  C    0.764403   0.000000
    35  H    0.142229  -0.000000
    36  H    0.130185   0.000000
    37  C   -2.190960  -0.000000
    38  C    2.129214   0.000000
    39  H    0.016396  -0.000000
    40  H   -0.009558  -0.000000
    41  H   -0.298801  -0.000000
    42  H   -1.164880  -0.000000
    43  H   -0.309748  -0.000000
 Sum of Mulliken charges =  -2.00000  -0.00000

 Dipole moment (field-independent basis, Debye):
    X=            -43.7508    Y=            -10.7741    Z=             20.7449  Tot=             49.6041
 Quadrupole moment (field-independent basis, Debye-Ang):
   XX=           -560.0994   YY=           -235.8185   ZZ=           -279.3447
   XY=             36.9733   XZ=            216.4091   YZ=            -43.2586

  Exact polarizability:2791.328-918.0661159.533******** 559.5511525.309
 Approx polarizability:****************8749.239************************

                      1                      2                      3
                      A                      A                      A
 Frequencies --     12.9035                25.9513                34.7016
 Red. masses --      5.3304                 5.1433                 1.6133
 Frc consts  --      0.0005                 0.0020                 0.0011
 IR Inten    --      0.7425                 1.2415                 0.6876

                      4                      5                      6
                      A                      A                      A
 Frequencies --     43.8821                65.6363                95.9885
 Red. masses --      3.4161                 4.6109                 2.0507
 Frc consts  --      0.0039                 0.0117                 0.0111
 IR Inten    --      8.0334                10.0585                 1.0119

                      7                      8                      9
                      A                      A                      A
 Frequencies --    100.8760               103.4431               123.3174
 Red. masses --      4.0094                 2.4603                 4.6892
 Frc consts  --      0.0240                 0.0155                 0.0420
 IR Inten    --      0.4740                 0.3061                 0.2517

                     10                     11                     12
                      A                      A                      A
 Frequencies --    147.6811               155.1687               160.8858
 Red. masses --      1.7814                 5.1221                 2.1433
 Frc consts  --      0.0229                 0.0727                 0.0327
 IR Inten    --      0.0976                 1.4564                 1.0290

                     13                     14                     15
                      A                      A                      A
 Frequencies --    166.7313               183.7631               251.3149
 Red. masses --      4.2733                 7.4587                 4.4978
 Frc consts  --      0.0700                 0.1484                 0.1674
 IR Inten    --      0.4025                 2.8022                 3.4242

                     16                     17                     18
                      A                      A                      A
 Frequencies --    259.4537               262.8288               295.1919
 Red. masses --      4.2741                 1.1151                 2.8407
 Frc consts  --      0.1695                 0.0454                 0.1458
 IR Inten    --      2.4701                 8.6268                 3.4764

                     19                     20                     21
                      A                      A                      A
 Frequencies --    311.2251               336.5790               356.3325
 Red. masses --      3.5927                 5.0500                 5.8643
 Frc consts  --      0.2050                 0.3371                 0.4387
 IR Inten    --      0.9443                 5.4221                13.1557

                     22                     23                     24
                      A                      A                      A
 Frequencies --    370.5698               396.6720               431.9665
 Red. masses --      8.6531                 6.0335                 7.8323
 Frc consts  --      0.7001                 0.5594                 0.8611
 IR Inten    --      2.3213                36.6971               200.1615

                     25                     26                     27
                      A                      A                      A
 Frequencies --    434.2827               458.3137               467.8375
 Red. masses --      3.9446                 3.2952                 4.2722
 Frc consts  --      0.4383                 0.4078                 0.5509
 IR Inten    --      3.1942                24.6896               296.3545

                     28                     29                     30
                      A                      A                      A
 Frequencies --    490.8500               526.8980               561.8693
 Red. masses --      4.4880                 6.1425                 5.6389
 Frc consts  --      0.6371                 1.0047                 1.0488
 IR Inten    --    267.9224               170.8337                 7.5632

                     31                     32                     33
                      A                      A                      A
 Frequencies --    641.6510               671.2442               695.2034
 Red. masses --      6.1714                 5.5302                 2.5003
 Frc consts  --      1.4970                 1.4681                 0.7120
 IR Inten    --      3.8642                 5.6524                38.4849

                     34                     35                     36
                      A                      A                      A
 Frequencies --    696.4636               704.5045               725.1361
 Red. masses --      2.7216                 4.2033                 1.0626
 Frc consts  --      0.7778                 1.2292                 0.3292
 IR Inten    --     22.7693                 8.9505                 6.9477

                     37                     38                     39
                      A                      A                      A
 Frequencies --    730.7105               742.7346               747.3729
 Red. masses --      1.1334                 2.6875                 1.2558
 Frc consts  --      0.3565                 0.8735                 0.4133
 IR Inten    --      7.7778                32.0473                 3.7227

                     40                     41                     42
                      A                      A                      A
 Frequencies --    771.3322               775.2336               787.2204
 Red. masses --      2.7594                 1.2969                 1.3386
 Frc consts  --      0.9673                 0.4592                 0.4888
 IR Inten    --     15.3370                39.9389                 2.1770

                     43                     44                     45
                      A                      A                      A
 Frequencies --    813.0607               845.6373               887.3342
 Red. masses --      1.4941                 1.6068                 1.9649
 Frc consts  --      0.5819                 0.6770                 0.9115
 IR Inten    --      0.0549                28.6039                18.8647

                     46                     47                     48
                      A                      A                      A
 Frequencies --    893.3692               940.0741               945.3873
 Red. masses --      1.9801                 5.0455                 1.2592
 Frc consts  --      0.9311                 2.6271                 0.6631
 IR Inten    --     17.0354                98.0137                 0.9791

                     49                     50                     51
                      A                      A                      A
 Frequencies --    952.4426               959.9126               982.8663
 Red. masses --      1.4726                 1.3199                 4.6123
 Frc consts  --      0.7871                 0.7166                 2.6252
 IR Inten    --     21.7605                 1.6399                 9.4671

                     52                     53                     54
                      A                      A                      A
 Frequencies --    999.0412              1019.4963              1022.4251
 Red. masses --      4.0572                 1.4218                 2.0530
 Frc consts  --      2.3858                 0.8707                 1.2645
 IR Inten    --     41.1681                89.1325               268.0509

                     55                     56                     57
                      A                      A                      A
 Frequencies --   1036.0030              1050.4702              1054.4560
 Red. masses --      2.8920                 2.8791                 2.2380
 Frc consts  --      1.8288                 1.8719                 1.4661
 IR Inten    --     19.0777                10.8065               108.2261

                     58                     59                     60
                      A                      A                      A
 Frequencies --   1057.5724              1062.9351              1098.0455
 Red. masses --      2.3742                 2.3447                 2.0644
 Frc consts  --      1.5645                 1.5608                 1.4665
 IR Inten    --      2.0747                44.3952                57.0289

                     61                     62                     63
                      A                      A                      A
 Frequencies --   1127.8833              1131.1978              1136.0422
 Red. masses --      2.1201                 2.4605                 1.3239
 Frc consts  --      1.5890                 1.8550                 1.0067
 IR Inten    --     47.3416                22.5136               141.9299

                     64                     65                     66
                      A                      A                      A
 Frequencies --   1184.3932              1191.5992              1208.2973
 Red. masses --      3.4623                 2.0032                 1.7451
 Frc consts  --      2.8616                 1.6759                 1.5012
 IR Inten    --    281.8827               234.3198                31.1641

                     67                     68                     69
                      A                      A                      A
 Frequencies --   1228.8656              1239.8156              1255.5365
 Red. masses --      1.2674                 2.4014                 1.5411
 Frc consts  --      1.1277                 2.1748                 1.4313
 IR Inten    --      5.9543                57.7359               118.6274

                     70                     71                     72
                      A                      A                      A
 Frequencies --   1275.0295              1283.8739              1297.6542
 Red. masses --      1.3656                 2.0028                 1.3701
 Frc consts  --      1.3080                 1.9451                 1.3594
 IR Inten    --      6.5448                 4.7065                59.6063

                     73                     74                     75
                      A                      A                      A
 Frequencies --   1317.9494              1321.0116              1323.8506
 Red. masses --      1.0345                 1.3559                 1.2097
 Frc consts  --      1.0587                 1.3941                 1.2491
 IR Inten    --     22.0367                 8.2489               173.3386

                     76                     77                     78
                      A                      A                      A
 Frequencies --   1328.9212              1333.0199              1339.7256
 Red. masses --      1.0772                 1.1887                 4.9688
 Frc consts  --      1.1209                 1.2445                 5.2545
 IR Inten    --     27.8661               289.0907               745.1954

                     79                     80                     81
                      A                      A                      A
 Frequencies --   1352.4574              1363.6887              1372.2250
 Red. masses --      1.5195                 1.7861                 1.5178
 Frc consts  --      1.6376                 1.9570                 1.6839
 IR Inten    --    397.6541               431.7801                 5.0455

                     82                     83                     84
                      A                      A                      A
 Frequencies --   1385.9483              1388.4485              1402.7301
 Red. masses --      1.5681                 1.5788                 1.2636
 Frc consts  --      1.7747                 1.7933                 1.4649
 IR Inten    --     46.3400               164.1897               524.5634

                     85                     86                     87
                      A                      A                      A
 Frequencies --   1425.7297              1439.6800              1446.9509
 Red. masses --      3.6876                 2.4199                 2.7344
 Frc consts  --      4.4164                 2.9551                 3.3730
 IR Inten    --   3000.6432              1222.1994                74.6005

                     88                     89                     90
                      A                      A                      A
 Frequencies --   1469.4541              1480.0060              1480.9558
 Red. masses --      1.5171                 1.0727                 1.0918
 Frc consts  --      1.9301                 1.3844                 1.4108
 IR Inten    --    760.1517                12.0429                64.6878

                     91                     92                     93
                      A                      A                      A
 Frequencies --   1483.4175              1484.8352              1488.4244
 Red. masses --      1.0822                 1.0409                 1.0986
 Frc consts  --      1.4031                 1.3521                 1.4340
 IR Inten    --     39.7571               460.4916                10.0528

                     94                     95                     96
                      A                      A                      A
 Frequencies --   1491.4942              1496.0526              1503.7579
 Red. masses --      3.1655                 1.0878                 1.0960
 Frc consts  --      4.1489                 1.4345                 1.4602
 IR Inten    --    918.7659                56.7421               105.8265

                     97                     98                     99
                      A                      A                      A
 Frequencies --   1511.0826              1514.5523              1547.7702
 Red. masses --      1.0994                 4.4979                 4.1970
 Frc consts  --      1.4791                 6.0790                 5.9238
 IR Inten    --     12.1359              1112.8217              1758.4583

                    100                    101                    102
                      A                      A                      A
 Frequencies --   1594.0106              1607.8797              2975.7202
 Red. masses --      5.0259                 5.0612                 1.0586
 Frc consts  --      7.5240                 7.7093                 5.5228
 IR Inten    --     35.1573              3666.1739                10.0818

                    103                    104                    105
                      A                      A                      A
 Frequencies --   2983.0605              2985.8202              2989.9491
 Red. masses --      1.0573                 1.0508                 1.0504
 Frc consts  --      5.5435                 5.5194                 5.5325
 IR Inten    --      0.6249                11.0432                20.4612

                    106                    107                    108
                      A                      A                      A
 Frequencies --   2990.7166              2995.7467              2997.7672
 Red. masses --      1.0544                 1.0910                 1.0598
 Frc consts  --      5.5568                 5.7689                 5.6116
 IR Inten    --      3.3403                11.6899                89.7298

                    109                    110                    111
                      A                      A                      A
 Frequencies --   2998.8683              3000.2645              3008.1497
 Red. masses --      1.0624                 1.0954                 1.0953
 Frc consts  --      5.6293                 5.8093                 5.8397
 IR Inten    --     47.3571                 9.8011                25.3339

                    112                    113                    114
                      A                      A                      A
 Frequencies --   3011.6449              3024.7881              3034.5930
 Red. masses --      1.0710                 1.1029                 1.1000
 Frc consts  --      5.7234                 5.9455                 5.9683
 IR Inten    --     71.8437                 2.5456                11.7290

                    115                    116                    117
                      A                      A                      A
 Frequencies --   3039.9303              3051.0769              3053.2226
 Red. masses --      1.1052                 1.1006                 1.1023
 Frc consts  --      6.0177                 6.0368                 6.0542
 IR Inten    --     28.1577                60.1475                 8.3292

                    118                    119                    120
                      A                      A                      A
 Frequencies --   3060.5657              3104.5255              3127.8800
 Red. masses --      1.1055                 1.0832                 1.0902
 Frc consts  --      6.1010                 6.1513                 6.2842
 IR Inten    --     54.0500                66.2428               283.6829

                    121                    122                    123
                      A                      A                      A
 Frequencies --   3161.7455              3164.4501              3377.9103
 Red. masses --      1.0906                 1.0920                 1.0636
 Frc consts  --      6.4236                 6.4430                 7.1503
 IR Inten    --     33.2114               274.4941                52.1240

 - Thermochemistry -
 -------------------
 Temperature   298.150 Kelvin.  Pressure   1.00000 Atm.
 Atom     1 has atomic number  6 and mass  12.00000

 Molecular mass:   286.15689 amu.
 Principal axes and moments of inertia in atomic units:
                           1         2         3
     Eigenvalues --  2458.19484********************
           X            0.82206   0.53923   0.18289
           Y           -0.37329   0.75291  -0.54201
           Z           -0.42997   0.37730   0.82023
 This molecule is an asymmetric top.
 Rotational symmetry number  1.
 Warning -- assumption of classical behavior for rotation
           may cause significant error
 Rotational temperatures (Kelvin)      0.03523     0.00428     0.00399
 Rotational constants (GHZ):           0.73417     0.08920     0.08304
 Zero-point vibrational energy     941084.6 (Joules/Mol)
                                  224.92463 (Kcal/Mol)
 Warning -- explicit consideration of  30 degrees of freedom as
           vibrations may cause significant error
 Vibrational temperatures:     18.57    37.34    49.93    63.14    94.44
          (Kelvin)            138.11   145.14   148.83   177.43   212.48
                              223.25   231.48   239.89   264.39   361.59
                              373.30   378.15   424.72   447.78   484.26
                              512.68   533.17   570.72   621.50   624.84
                              659.41   673.11   706.22   758.09   808.40
                              923.19   965.77  1000.24  1002.06  1013.62
                             1043.31  1051.33  1068.63  1075.30  1109.77
                             1115.39  1132.63  1169.81  1216.68  1276.68
                             1285.36  1352.56  1360.20  1370.35  1381.10
                             1414.13  1437.40  1466.83  1471.04  1490.58
                             1511.39  1517.13  1521.61  1529.33  1579.84
                             1622.77  1627.54  1634.51  1704.08  1714.45
                             1738.47  1768.06  1783.82  1806.44  1834.48
                             1847.21  1867.03  1896.24  1900.64  1904.73
                             1912.02  1917.92  1927.57  1945.88  1962.04
                             1974.33  1994.07  1997.67  2018.22  2051.31
                             2071.38  2081.84  2114.22  2129.40  2130.77
                             2134.31  2136.35  2141.51  2145.93  2152.49
                             2163.57  2174.11  2179.10  2226.90  2293.43
                             2313.38  4281.40  4291.96  4295.93  4301.87
                             4302.97  4310.21  4313.12  4314.70  4316.71
                             4328.06  4333.09  4352.00  4366.10  4373.78
                             4389.82  4392.91  4403.47  4466.72  4500.32
                             4549.05  4552.94  4860.06

 Zero-point correction=                           0.358440 (Hartree/Particle)
 Thermal correction to Energy=                    0.379312
 Thermal correction to Enthalpy=                  0.380256
 Thermal correction to Gibbs Free Energy=         0.306017
 Sum of electronic and zero-point Energies=           -924.759448
 Sum of electronic and thermal Energies=              -924.738576
 Sum of electronic and thermal Enthalpies=            -924.737632
 Sum of electronic and thermal Free Energies=         -924.811871

                     E (Thermal)             CV                S
                      KCal/Mol        Cal/Mol-Kelvin    Cal/Mol-Kelvin
 Total                  238.022             78.858            156.249
 Electronic               0.000              0.000              0.000
 Translational            0.889              2.981             42.852
 Rotational               0.889              2.981             35.334
 Vibrational            236.244             72.897             78.063
 Vibration     1          0.593              1.987              7.505
 Vibration     2          0.593              1.985              6.117
 Vibration     3          0.594              1.983              5.541
 Vibration     4          0.595              1.980              5.076
 Vibration     5          0.597              1.971              4.280
 Vibration     6          0.603              1.952              3.534
 Vibration     7          0.604              1.948              3.437
 Vibration     8          0.605              1.946              3.388
 Vibration     9          0.610              1.930              3.048
 Vibration    10          0.617              1.905              2.702
 Vibration    11          0.620              1.897              2.608
 Vibration    12          0.622              1.890              2.539
 Vibration    13          0.624              1.883              2.472
 Vibration    14          0.631              1.862              2.290
 Vibration    15          0.663              1.761              1.721
 Vibration    16          0.668              1.747              1.665
 Vibration    17          0.670              1.741              1.643
 Vibration    18          0.689              1.683              1.444
 Vibration    19          0.700              1.652              1.356
 Vibration    20          0.717              1.602              1.228
 Vibration    21          0.732              1.562              1.138
 Vibration    22          0.743              1.533              1.077
 Vibration    23          0.763              1.477              0.975
 Vibration    24          0.793              1.401              0.852
 Vibration    25          0.795              1.396              0.845
 Vibration    26          0.816              1.343              0.771
 Vibration    27          0.825              1.321              0.744
 Vibration    28          0.847              1.270              0.681
 Vibration    29          0.882              1.190              0.594
 Vibration    30          0.918              1.114              0.520

 Optimization completed.
    -- Stationary point found.
 Normal termination of Gaussian 16 at Mon Jan  8 04:41:06 2024.
