 Q-Chem 5.4, Q-Chem, Inc., Pleasanton, CA (2021)
 Q-Chem 5.4.0 for Intel X86 EM64T Linux

User input:
--------------------------------------------------------------
$molecule
-2 1
C                 -0.2739730000      3.8292160000     -0.1158160000
C                 -1.4973120000      3.2379570000     -0.3635600000
C                 -1.5594260000      1.8812820000     -0.7685760000
C                  0.9397550000      3.1090410000     -0.2562370000
C                  0.8778010000      1.7282300000     -0.6706430000
C                 -0.3853600000      1.1579890000     -0.9143110000
C                  2.2029290000      3.7324340000      0.0069580000
C                  3.3567280000      2.9052200000     -0.1702690000
C                  3.3404840000      1.5710130000     -0.5637330000
C                  2.0884370000      0.9145470000     -0.8408170000
O                  2.3864200000      4.9600200000      0.3869030000
O                  2.0285100000     -0.3053390000     -1.2068060000
H                 -0.2027400000      4.8666120000      0.1953890000
H                 -2.4137910000      3.8133520000     -0.2485980000
H                 -2.5210690000      1.4128580000     -0.9645720000
H                 -0.3990270000      0.1179880000     -1.2249450000
O                  4.5335980000      3.5645720000      0.1001020000
C                  4.6181760000      0.7819360000     -0.6999410000
C                  5.1980150000      0.7643450000     -2.1296520000
C                  6.4853220000     -0.0619500000     -2.2475610000
C                  7.0994820000     -0.0827220000     -3.6540100000
C                  8.3896550000     -0.9075830000     -3.7560120000
H                  4.1778100000      4.4533660000      0.3463920000
H                  4.4077670000     -0.2533130000     -0.4074170000
H                  5.3756580000      1.1879040000     -0.0191240000
H                  5.3949320000      1.7957600000     -2.4470390000
H                  4.4355290000      0.3603220000     -2.8044340000
H                  6.2785100000     -1.0936920000     -1.9313220000
H                  7.2302250000      0.3286920000     -1.5394950000
H                  7.3044630000      0.9481040000     -3.9727840000
H                  6.3606690000     -0.4768470000     -4.3642620000
H                  8.1826530000     -1.9392870000     -3.4406550000
H                  9.1241990000     -0.5155460000     -3.0392880000
C                  9.0177420000     -0.9271690000     -5.1561190000
H                  9.2263140000      0.1029350000     -5.4741090000
H                  8.2886470000     -1.3224130000     -5.8757140000
C                 10.3092660000     -1.7509270000     -5.2454750000
C                 10.9414600000     -1.7660430000     -6.6407450000
H                 10.1008310000     -2.7817760000     -4.9308790000
H                 11.0365310000     -1.3585770000     -4.5227900000
H                 10.2590900000     -2.1916690000     -7.3855520000
H                 11.8605650000     -2.3614700000     -6.6669310000
H                 11.2027350000     -0.7547430000     -6.9732720000
$end

$rem
BASIS  =  6-311++G(d,p)
GUI  =  2
JOB_TYPE  =  SP
METHOD  =  B3LYP
SCF_CONVERGENCE  = 8
SOLVENT_METHOD = sm12
$end

$smx
solvent dimethylformamide
charges CM5
$end

--------------------------------------------------------------

             Standard Nuclear Orientation (Angstroms)
    I     Atom           X                Y                Z
 ----------------------------------------------------------------
    1      C      -0.2739730000     3.8292160000    -0.1158160000
    2      C      -1.4973120000     3.2379570000    -0.3635600000
    3      C      -1.5594260000     1.8812820000    -0.7685760000
    4      C       0.9397550000     3.1090410000    -0.2562370000
    5      C       0.8778010000     1.7282300000    -0.6706430000
    6      C      -0.3853600000     1.1579890000    -0.9143110000
    7      C       2.2029290000     3.7324340000     0.0069580000
    8      C       3.3567280000     2.9052200000    -0.1702690000
    9      C       3.3404840000     1.5710130000    -0.5637330000
   10      C       2.0884370000     0.9145470000    -0.8408170000
   11      O       2.3864200000     4.9600200000     0.3869030000
   12      O       2.0285100000    -0.3053390000    -1.2068060000
   13      H      -0.2027400000     4.8666120000     0.1953890000
   14      H      -2.4137910000     3.8133520000    -0.2485980000
   15      H      -2.5210690000     1.4128580000    -0.9645720000
   16      H      -0.3990270000     0.1179880000    -1.2249450000
   17      O       4.5335980000     3.5645720000     0.1001020000
   18      C       4.6181760000     0.7819360000    -0.6999410000
   19      C       5.1980150000     0.7643450000    -2.1296520000
   20      C       6.4853220000    -0.0619500000    -2.2475610000
   21      C       7.0994820000    -0.0827220000    -3.6540100000
   22      C       8.3896550000    -0.9075830000    -3.7560120000
   23      H       4.1778100000     4.4533660000     0.3463920000
   24      H       4.4077670000    -0.2533130000    -0.4074170000
   25      H       5.3756580000     1.1879040000    -0.0191240000
   26      H       5.3949320000     1.7957600000    -2.4470390000
   27      H       4.4355290000     0.3603220000    -2.8044340000
   28      H       6.2785100000    -1.0936920000    -1.9313220000
   29      H       7.2302250000     0.3286920000    -1.5394950000
   30      H       7.3044630000     0.9481040000    -3.9727840000
   31      H       6.3606690000    -0.4768470000    -4.3642620000
   32      H       8.1826530000    -1.9392870000    -3.4406550000
   33      H       9.1241990000    -0.5155460000    -3.0392880000
   34      C       9.0177420000    -0.9271690000    -5.1561190000
   35      H       9.2263140000     0.1029350000    -5.4741090000
   36      H       8.2886470000    -1.3224130000    -5.8757140000
   37      C      10.3092660000    -1.7509270000    -5.2454750000
   38      C      10.9414600000    -1.7660430000    -6.6407450000
   39      H      10.1008310000    -2.7817760000    -4.9308790000
   40      H      11.0365310000    -1.3585770000    -4.5227900000
   41      H      10.2590900000    -2.1916690000    -7.3855520000
   42      H      11.8605650000    -2.3614700000    -6.6669310000
   43      H      11.2027350000    -0.7547430000    -6.9732720000
 ----------------------------------------------------------------

   17    -925.0880451285      9.58e-09  Convergence criterion met
 Total energy in the final basis set =     -925.3750205138

                    Orbital Energies (a.u.)
 --------------------------------------------------------------

 Alpha MOs
 -- Occupied --
-19.1191 -19.0294 -19.0236 -10.1875 -10.1833 -10.1713 -10.1708 -10.1662
-10.1659 -10.1658 -10.1656 -10.1649 -10.1646 -10.1645 -10.1641 -10.1608
-10.1585 -10.1577 -10.1480 -10.1452 -10.1350  -1.0324  -0.9459  -0.9351
 -0.8404  -0.8143  -0.7953  -0.7762  -0.7525  -0.7393  -0.7231  -0.6908
 -0.6541  -0.6353  -0.6067  -0.5949  -0.5790  -0.5777  -0.5690  -0.5484
 -0.5172  -0.4862  -0.4847  -0.4671  -0.4550  -0.4449  -0.4402  -0.4326
 -0.4247  -0.4229  -0.4204  -0.4034  -0.4003  -0.3913  -0.3834  -0.3773
 -0.3687  -0.3615  -0.3593  -0.3588  -0.3548  -0.3507  -0.3367  -0.3352
 -0.3280  -0.3270  -0.3239  -0.3233  -0.3220  -0.3141  -0.3039  -0.3024
 -0.2460  -0.2337  -0.2154  -0.2017  -0.1989  -0.1136

          Ground-State Mulliken Net Atomic Charges

     Atom                 Charge (a.u.)
  ----------------------------------------
      1 C                    -0.250556
      2 C                     1.085437
      3 C                     1.056552
      4 C                    -1.885049
      5 C                    -1.982535
      6 C                    -0.475019
      7 C                    -1.983365
      8 C                    -0.120433
      9 C                     1.280471
     10 C                    -2.520567
     11 O                    -0.415341
     12 O                    -0.270065
     13 H                     0.106110
     14 H                     0.377302
     15 H                     0.353747
     16 H                     0.070108
     17 O                    -0.050305
     18 C                    -0.754024
     19 C                    -3.483525
     20 C                    -0.568192
     21 C                     0.760283
     22 C                     2.197750
     23 H                     0.315129
     24 H                     0.052604
     25 H                     0.161745
     26 H                     0.012160
     27 H                     0.046308
     28 H                     0.236497
     29 H                     0.248764
     30 H                     0.148379
     31 H                     0.126886
     32 H                     0.103154
     33 H                     0.100575
     34 C                     1.914970
     35 H                     0.103096
     36 H                     0.106826
     37 C                     0.866543
     38 C                     0.149594
     39 H                     0.118665
     40 H                     0.119285
     41 H                     0.136952
     42 H                     0.265254
     43 H                     0.137831
  ----------------------------------------
  Sum of atomic charges =    -2.000000

                    Cartesian Multipole Moments
 -----------------------------------------------------------------
    Charge (ESU x 10^10)
                -9.6064
    Dipole Moment (Debye)
         X     -17.7564      Y     -22.2006      Z       4.3807
       Tot      28.7637
    Quadrupole Moments (Debye-Ang)
        XX    -208.6468     XY     -39.4407     YY    -236.9150
        XZ       9.3569     YZ      -3.0402     ZZ    -151.4787

 Total job time:  1750.09s(wall), 13276.37s(cpu)
        *  Thank you very much for using Q-Chem.  Have a nice day.  *
