 Gaussian 16, Revision A.03,
 Gaussian 16:  ES64L-G16RevA.03 25-Dec-2016

 ----------------------------------------------------------------------
 #P UB3LYP/6-311++G(d,p) nosym opt freq SCRF=(PCM,Solvent=n,n-DiMethylF
 ormamide)
 ----------------------------------------------------------------------

 -------
 Radical
 -------
 Symbolic Z-matrix:
 Charge = -1 Multiplicity = 2

 SCF Done:  E(UB3LYP) =  -614.062315963     A.U. after   17 cycles
 SCF Done:  E(UB3LYP) =  -614.062574892     A.U. after   13 cycles
 SCF Done:  E(UB3LYP) =  -614.062607212     A.U. after   12 cycles
 SCF Done:  E(UB3LYP) =  -614.062609343     A.U. after   11 cycles
 SCF Done:  E(UB3LYP) =  -614.062609490     A.U. after    9 cycles
 Optimization completed.
    -- Stationary point found.
 Normal termination of Gaussian 16 at Sun Feb 11 00:56:09 2024.

 ----------------------------------------------------------------------
 #P Geom=AllCheck Guess=TCheck SCRF=Check GenChk UB3LYP/6-311++G(d,p) F
 req
 ----------------------------------------------------------------------

 Structure from the checkpoint file:  "241-rad.chk"
 -------
 Radical
 -------
 Charge = -1 Multiplicity = 2

                          Input orientation:
 ---------------------------------------------------------------------
 Center     Atomic      Atomic             Coordinates (Angstroms)
 Number     Number       Type             X           Y           Z
 ---------------------------------------------------------------------
      1          6           0       -2.423398    1.898799   -0.021378
      2          6           0       -1.269623    0.926568   -0.004617
      3          6           0       -1.503261   -0.438953    0.136388
      4          6           0       -2.912904   -0.959539    0.273260
      5          6           0       -0.426137   -1.402742    0.157807
      6          8           0       -0.631082   -2.649434    0.287055
      7          6           0        0.940917   -0.881965    0.023025
      8          6           0        2.039724   -1.765832    0.035694
      9          6           0        3.336039   -1.298032   -0.091942
     10          6           0        3.571995    0.082145   -0.237211
     11          6           0        2.506743    0.965629   -0.250736
     12          6           0        1.178763    0.508836   -0.121904
     13          6           0        0.064624    1.466193   -0.138554
     14          8           0        0.285703    2.710332   -0.265575
     15          1           0       -3.121911    1.681516   -0.837327
     16          1           0       -3.003955    1.851372    0.906957
     17          1           0       -2.055174    2.915971   -0.145294
     18          1           0       -2.904962   -2.043883    0.371727
     19          1           0       -3.526217   -0.695403   -0.595687
     20          1           0       -3.415676   -0.535937    1.150072
     21          1           0        1.841712   -2.824896    0.148352
     22          1           0        4.169355   -1.992557   -0.080565
     23          1           0        4.587137    0.451223   -0.338090
     24          1           0        2.671586    2.030593   -0.361455
 ---------------------------------------------------------------------

 SCF Done:  E(UB3LYP) =  -614.062609490     A.U. after    1 cycles

 Alpha  occ. eigenvalues --  -19.07000 -19.06998 -10.21545 -10.21542 -10.17059
 Alpha  occ. eigenvalues --  -10.17010 -10.16943 -10.16898 -10.16740 -10.16739
 Alpha  occ. eigenvalues --  -10.16542 -10.16487 -10.15128 -10.15123  -0.99219
 Alpha  occ. eigenvalues --   -0.98944  -0.85465  -0.81383  -0.75563  -0.74661
 Alpha  occ. eigenvalues --   -0.72103  -0.67233  -0.65067  -0.59791  -0.58437
 Alpha  occ. eigenvalues --   -0.54908  -0.50999  -0.48683  -0.46185  -0.44650
 Alpha  occ. eigenvalues --   -0.43363  -0.42250  -0.41409  -0.40731  -0.39446
 Alpha  occ. eigenvalues --   -0.39332  -0.38310  -0.38259  -0.37447  -0.36324
 Alpha  occ. eigenvalues --   -0.35574  -0.34467  -0.33615  -0.33154  -0.26440
 Alpha  occ. eigenvalues --   -0.25381  -0.24153  -0.23804  -0.23113  -0.14821
 Alpha virt. eigenvalues --   -0.03046  -0.01175  -0.00470   0.00470   0.01403
 Alpha virt. eigenvalues --    0.02605   0.02773   0.03201   0.04170   0.05109
 Alpha virt. eigenvalues --    0.05433   0.05458   0.05944   0.05965   0.06722

  Beta  occ. eigenvalues --  -19.06376 -19.06375 -10.21372 -10.21369 -10.17025
  Beta  occ. eigenvalues --  -10.16976 -10.16890 -10.16845 -10.16735 -10.16734
  Beta  occ. eigenvalues --  -10.16411 -10.16355 -10.15138 -10.15134  -0.98130
  Beta  occ. eigenvalues --   -0.97824  -0.85257  -0.80962  -0.75363  -0.74484
  Beta  occ. eigenvalues --   -0.71779  -0.67041  -0.64390  -0.59703  -0.58075
  Beta  occ. eigenvalues --   -0.54634  -0.50786  -0.48444  -0.45920  -0.44542
  Beta  occ. eigenvalues --   -0.42692  -0.42205  -0.41145  -0.40146  -0.38852
  Beta  occ. eigenvalues --   -0.38651  -0.38194  -0.38132  -0.37298  -0.35480
  Beta  occ. eigenvalues --   -0.34017  -0.33449  -0.33287  -0.32968  -0.24722
  Beta  occ. eigenvalues --   -0.24249  -0.23575  -0.22705  -0.22547
  Beta virt. eigenvalues --   -0.08191  -0.02343  -0.00447  -0.00082   0.00473
  Beta virt. eigenvalues --    0.01417   0.02606   0.02789   0.03272   0.04196
  Beta virt. eigenvalues --    0.05123   0.05465   0.05625   0.06025   0.06726

 Mulliken charges and spin densities:
               1          2
     1  C   -0.459659   0.000764
     2  C    0.914497   0.115062
     3  C    0.916569   0.115239
     4  C   -0.461075   0.000739
     5  C   -1.280088   0.089099
     6  O   -0.491014   0.227728
     7  C    0.590828   0.014995
     8  C   -0.132658   0.024592
     9  C   -0.468608   0.024319
    10  C   -0.469339   0.024327
    11  C   -0.132213   0.024642
    12  C    0.584893   0.014708
    13  C   -1.279263   0.089231
    14  O   -0.490895   0.227736
    15  H    0.149541   0.004436
    16  H    0.150465   0.004532
    17  H    0.183390  -0.001325
    18  H    0.183116  -0.001323
    19  H    0.149941   0.004473
    20  H    0.150221   0.004488
    21  H    0.166300  -0.002064
    22  H    0.179331  -0.002167
    23  H    0.179283  -0.002167
    24  H    0.166436  -0.002062
 Sum of Mulliken charges =  -1.00000   1.00000

 Dipole moment (field-independent basis, Debye):
    X=             -0.2236    Y=              0.0412    Z=             -0.0030  Tot=              0.2274
 Quadrupole moment (field-independent basis, Debye-Ang):
   XX=            -82.6725   YY=           -122.1713   ZZ=            -88.4664
   XY=             -6.9961   XZ=              0.2900   YZ=              3.5731

  Exact polarizability: 310.301  -2.159 303.395 -11.913 -16.762 123.274
 Approx polarizability: 321.246   4.997 354.908 -12.198 -20.408 140.677

                      1                      2                      3
                      A                      A                      A
 Frequencies --     38.4250                65.6883               111.0326
 Red. masses --      1.0900                 5.4505                 2.9680
 Frc consts  --      0.0009                 0.0139                 0.0216
 IR Inten    --      0.2938                20.9666                 0.0244

                      4                      5                      6
                      A                      A                      A
 Frequencies --    120.5291               140.7310               177.9419
 Red. masses --      1.0894                 4.0656                 4.4958
 Frc consts  --      0.0093                 0.0474                 0.0839
 IR Inten    --      0.0092                 0.0052                 2.1027

                      7                      8                      9
                      A                      A                      A
 Frequencies --    255.0917               286.4507               319.5985
 Red. masses --      4.2806                 3.6821                 2.5822
 Frc consts  --      0.1641                 0.1780                 0.1554
 IR Inten    --     10.7436                 0.4203                 0.3156

                     10                     11                     12
                      A                      A                      A
 Frequencies --    338.6797               385.6513               420.6063
 Red. masses --      4.2408                 9.5890                 5.6765
 Frc consts  --      0.2866                 0.8403                 0.5917
 IR Inten    --      2.1630                25.5424                 0.0143

                     13                     14                     15
                      A                      A                      A
 Frequencies --    425.2721               429.7549               442.3492
 Red. masses --      6.5703                 5.9816                 3.2347
 Frc consts  --      0.7001                 0.6509                 0.3729
 IR Inten    --     10.8562                 0.8827                 1.4402

                     16                     17                     18
                      A                      A                      A
 Frequencies --    518.9296               527.6446               610.1097
 Red. masses --      9.3006                 3.7237                 5.3974
 Frc consts  --      1.4756                 0.6108                 1.1837
 IR Inten    --      0.0855                 0.0002                42.0869

                     19                     20                     21
                      A                      A                      A
 Frequencies --    668.9281               680.8900               682.8051
 Red. masses --      6.1144                 4.4674                 4.6425
 Frc consts  --      1.6120                 1.2203                 1.2753
 IR Inten    --      3.2723                 2.9446                 0.1313

                     22                     23                     24
                      A                      A                      A
 Frequencies --    696.0878               786.4904               787.6890
 Red. masses --      2.7578                 1.7573                 4.0452
 Frc consts  --      0.7873                 0.6404                 1.4788
 IR Inten    --     90.2037                48.2745                 5.7172

                     25                     26                     27
                      A                      A                      A
 Frequencies --    825.0247               888.0293               897.3042
 Red. masses --      3.5477                 1.4480                 3.4052
 Frc consts  --      1.4228                 0.6728                 1.6154
 IR Inten    --     11.2273                 0.0209                 8.5486

                     28                     29                     30
                      A                      A                      A
 Frequencies --    984.9268               985.8106              1000.3579
 Red. masses --      3.9153                 1.3664                 1.2798
 Frc consts  --      2.2378                 0.7824                 0.7546
 IR Inten    --      1.5722                 3.2469                 0.0302

                     31                     32                     33
                      A                      A                      A
 Frequencies --   1005.1475              1024.0819              1042.2943
 Red. masses --      1.7180                 1.4225                 1.9235
 Frc consts  --      1.0227                 0.8790                 1.2312
 IR Inten    --     55.2597                 0.5394                11.7595

                     34                     35                     36
                      A                      A                      A
 Frequencies --   1053.1145              1099.9315              1116.9889
 Red. masses --      1.5315                 2.5451                 2.0375
 Frc consts  --      1.0007                 1.8142                 1.4978
 IR Inten    --      0.0037                10.8170                91.4432

                     37                     38                     39
                      A                      A                      A
 Frequencies --   1147.9125              1184.1510              1206.4568
 Red. masses --      1.4767                 2.4934                 1.9556
 Frc consts  --      1.1465                 2.0599                 1.6770
 IR Inten    --      1.2410                 5.6017                11.0689

                     40                     41                     42
                      A                      A                      A
 Frequencies --   1246.9958              1275.7595              1355.0020
 Red. masses --      4.5385                 2.1993                10.3369
 Frc consts  --      4.1580                 2.1090                11.1820
 IR Inten    --     19.5824               119.1022                 6.4965

                     43                     44                     45
                      A                      A                      A
 Frequencies --   1372.2897              1388.8052              1404.3205
 Red. masses --      1.3697                 1.2657                 2.6392
 Frc consts  --      1.5197                 1.4383                 3.0666
 IR Inten    --     55.0031                 2.7545               236.4202

                     46                     47                     48
                      A                      A                      A
 Frequencies --   1452.1511              1463.4085              1468.4464
 Red. masses --      2.5714                 1.7439                 1.8349
 Frc consts  --      3.1948                 2.2004                 2.3312
 IR Inten    --    781.3588                40.2089                36.5020

                     49                     50                     51
                      A                      A                      A
 Frequencies --   1478.7633              1480.7286              1492.2366
 Red. masses --      1.0461                 1.5780                 3.2286
 Frc consts  --      1.3478                 2.0385                 4.2359
 IR Inten    --      0.4196               156.5609                 3.3042

                     52                     53                     54
                      A                      A                      A
 Frequencies --   1493.0793              1502.2725              1541.0397
 Red. masses --      1.0830                 3.3694                 4.8645
 Frc consts  --      1.4225                 4.4802                 6.8064
 IR Inten    --     24.7651               703.0530                22.7141

                     55                     56                     57
                      A                      A                      A
 Frequencies --   1607.9661              1626.7763              3007.7692
 Red. masses --      7.8699                 5.8865                 1.0405
 Frc consts  --     11.9887                 9.1783                 5.5462
 IR Inten    --      4.4681                 1.9546               170.8037

                     58                     59                     60
                      A                      A                      A
 Frequencies --   3008.0846              3043.1852              3046.3676
 Red. masses --      1.0416                 1.0992                 1.0994
 Frc consts  --      5.5530                 5.9977                 6.0116
 IR Inten    --     10.4497                84.5850                 0.0057

                     61                     62                     63
                      A                      A                      A
 Frequencies --   3122.4223              3123.5506              3156.6005
 Red. masses --      1.0956                 1.0955                 1.0860
 Frc consts  --      6.2935                 6.2974                 6.3756
 IR Inten    --     12.1932                16.9800                11.1649

                     64                     65                     66
                      A                      A                      A
 Frequencies --   3171.1809              3189.3714              3192.4887
 Red. masses --      1.0908                 1.0914                 1.0938
 Frc consts  --      6.4633                 6.5407                 6.5680
 IR Inten    --     27.5891                17.9339                34.0790

 - Thermochemistry -
 -------------------
 Temperature   298.150 Kelvin.  Pressure   1.00000 Atm.
 Atom     1 has atomic number  6 and mass  12.00000

 Molecular mass:   186.06808 amu.
 Principal axes and moments of inertia in atomic units:
                           1         2         3
     Eigenvalues --  1645.709522765.214664388.71293
           X            0.98378   0.16780   0.06337
           Y           -0.17317   0.98059   0.09197
           Z           -0.04671  -0.10145   0.99374
 This molecule is an asymmetric top.
 Rotational symmetry number  1.
 Warning -- assumption of classical behavior for rotation
           may cause significant error
 Rotational temperatures (Kelvin)      0.05263     0.03132     0.01974
 Rotational constants (GHZ):           1.09663     0.65266     0.41122
 Zero-point vibrational energy     485025.7 (Joules/Mol)
                                  115.92393 (Kcal/Mol)
 Warning -- explicit consideration of  18 degrees of freedom as
           vibrations may cause significant error
 Vibrational temperatures:     55.29    94.51   159.75   173.41   202.48
          (Kelvin)            256.02   367.02   412.14   459.83   487.28
                              554.87   605.16   611.87   618.32   636.44
                              746.62   759.16   877.81   962.44   979.65
                              982.40  1001.52  1131.58  1133.31  1187.03
                             1277.68  1291.02  1417.09  1418.36  1439.29
                             1446.18  1473.43  1499.63  1515.20  1582.56
                             1607.10  1651.59  1703.73  1735.82  1794.15
                             1835.53  1949.55  1974.42  1998.18  2020.50
                             2089.32  2105.52  2112.77  2127.61  2130.44
                             2147.00  2148.21  2161.44  2217.21  2313.50
                             2340.57  4327.51  4327.96  4378.46  4383.04
                             4492.47  4494.09  4541.64  4562.62  4588.79
                             4593.28

 Zero-point correction=                           0.184737 (Hartree/Particle)
 Thermal correction to Energy=                    0.196891
 Thermal correction to Enthalpy=                  0.197836
 Thermal correction to Gibbs Free Energy=         0.145281
 Sum of electronic and zero-point Energies=           -613.877873
 Sum of electronic and thermal Energies=              -613.865718
 Sum of electronic and thermal Enthalpies=            -613.864774
 Sum of electronic and thermal Free Energies=         -613.917328

                     E (Thermal)             CV                S
                      KCal/Mol        Cal/Mol-Kelvin    Cal/Mol-Kelvin
 Total                  123.551             46.566            110.610
 Electronic               0.000              0.000              1.377
 Translational            0.889              2.981             41.569
 Rotational               0.889              2.981             31.369
 Vibrational            121.774             40.604             36.295
 Vibration     1          0.594              1.982              5.339
 Vibration     2          0.597              1.971              4.279
 Vibration     3          0.607              1.940              3.251
 Vibration     4          0.609              1.932              3.092
 Vibration     5          0.615              1.913              2.794
 Vibration     6          0.628              1.869              2.350
 Vibration     7          0.665              1.754              1.695
 Vibration     8          0.684              1.699              1.495
 Vibration     9          0.706              1.636              1.312
 Vibration    10          0.719              1.598              1.218
 Vibration    11          0.754              1.501              1.017
 Vibration    12          0.783              1.425              0.890
 Vibration    13          0.787              1.415              0.874
 Vibration    14          0.791              1.405              0.859
 Vibration    15          0.802              1.378              0.819
 Vibration    16          0.874              1.208              0.612
 Vibration    17          0.883              1.189              0.592
 Vibration    18          0.969              1.010              0.433

                           ! Non-Optimized Parameters !
 Normal termination of Gaussian 16 at Sun Feb 11 01:20:46 2024.
