 Gaussian 16, Revision A.03,
 Gaussian 16:  ES64L-G16RevA.03 25-Dec-2016

 ----------------------------------------------------------------------
 #P UB3LYP/6-311++G(d,p) nosym opt freq SCRF=(PCM,Solvent=n,n-DiMethylF
 ormamide)
 ----------------------------------------------------------------------

 --------
 Oxidized
 --------
 Symbolic Z-matrix:
 Charge =  0 Multiplicity = 1

 SCF Done:  E(UB3LYP) =  -3112.40893729     A.U. after   15 cycles
 SCF Done:  E(UB3LYP) =  -3112.40898834     A.U. after   11 cycles
 SCF Done:  E(UB3LYP) =  -3112.40899357     A.U. after   11 cycles
 SCF Done:  E(UB3LYP) =  -3112.40900654     A.U. after   10 cycles
 SCF Done:  E(UB3LYP) =  -3112.40900739     A.U. after    9 cycles
 SCF Done:  E(UB3LYP) =  -3112.40900747     A.U. after    8 cycles
 SCF Done:  E(UB3LYP) =  -3112.40900780     A.U. after    8 cycles
 Optimization completed.
    -- Stationary point found.
 Normal termination of Gaussian 16 at Sat Feb 10 10:32:51 2024.

 ----------------------------------------------------------------------
 #P Geom=AllCheck Guess=TCheck SCRF=Check GenChk UB3LYP/6-311++G(d,p) F
 req
 ----------------------------------------------------------------------

 Structure from the checkpoint file:  "004.chk"
 --------
 Oxidized
 --------
 Charge =  0 Multiplicity = 1

                          Input orientation:
 ---------------------------------------------------------------------
 Center     Atomic      Atomic             Coordinates (Angstroms)
 Number     Number       Type             X           Y           Z
 ---------------------------------------------------------------------
      1          6           0       -1.079584    1.568125    1.009519
      2          6           0       -2.395027    0.902564    0.916897
      3          6           0       -2.718075   -0.048158    0.018977
      4          6           0       -1.648390   -0.454761   -0.959797
      5          6           0       -0.316218    0.201129   -0.884858
      6          6           0       -0.041441    1.140535    0.024507
      7         35           0        1.658255    1.982423    0.125083
      8          6           0       -4.096189   -0.711587   -0.041510
      9          6           0       -4.745741   -0.437899   -1.421856
     10          6           0       -5.035142   -0.155556    1.045212
     11          6           0       -3.951591   -2.237917    0.185637
     12          8           0       -0.865557    2.422451    1.852613
     13          8           0       -1.825010   -1.304666   -1.819342
     14          1           0       -3.101500    1.255201    1.656384
     15          1           0        0.407330   -0.136507   -1.616058
     16          1           0       -4.854562    0.636727   -1.593494
     17          1           0       -5.743716   -0.884258   -1.442855
     18          1           0       -4.162035   -0.864160   -2.236441
     19          1           0       -5.206950    0.917872    0.928746
     20          1           0       -4.650756   -0.338947    2.052191
     21          1           0       -6.003372   -0.655005    0.965721
     22          1           0       -3.351389   -2.708565   -0.591605
     23          1           0       -4.944282   -2.696302    0.179328
     24          1           0       -3.492302   -2.444390    1.156513
 ---------------------------------------------------------------------

 SCF Done:  E(UB3LYP) =  -3112.40900780     A.U. after    1 cycles

 Alpha  occ. eigenvalues -- -482.85265 -62.50534 -56.32578 -56.32193 -56.32155
 Alpha  occ. eigenvalues --  -19.15153 -19.14927 -10.30056 -10.29760 -10.26790
 Alpha  occ. eigenvalues --  -10.22594 -10.22221 -10.21087 -10.20785 -10.16468
 Alpha  occ. eigenvalues --  -10.16295 -10.16288  -8.71499  -6.54664  -6.53375
 Alpha  occ. eigenvalues --   -6.53265  -2.65755  -2.65402  -2.65320  -2.64294
 Alpha  occ. eigenvalues --   -2.64293  -1.08321  -1.08017  -0.88773  -0.85380
 Alpha  occ. eigenvalues --   -0.80940  -0.76792  -0.71355  -0.69492  -0.69297
 Alpha  occ. eigenvalues --   -0.64400  -0.61684  -0.56025  -0.53878  -0.50659
 Alpha  occ. eigenvalues --   -0.49103  -0.47410  -0.46587  -0.45736  -0.44808
 Alpha  occ. eigenvalues --   -0.44630  -0.43361  -0.42902  -0.40984  -0.39299
 Alpha  occ. eigenvalues --   -0.38728  -0.37288  -0.36381  -0.35806  -0.34696
 Alpha  occ. eigenvalues --   -0.34283  -0.31248  -0.30607  -0.29923  -0.28448
 Alpha  occ. eigenvalues --   -0.28352
 Alpha virt. eigenvalues --   -0.14340  -0.03832  -0.02878  -0.01309  -0.00733
 Alpha virt. eigenvalues --    0.00536   0.01219   0.01863   0.02472   0.03065
 Alpha virt. eigenvalues --    0.03691   0.03840   0.04501   0.04878   0.05294

  Beta  occ. eigenvalues -- -482.85265 -62.50534 -56.32578 -56.32193 -56.32155
  Beta  occ. eigenvalues --  -19.15153 -19.14927 -10.30056 -10.29760 -10.26790
  Beta  occ. eigenvalues --  -10.22594 -10.22221 -10.21087 -10.20785 -10.16468
  Beta  occ. eigenvalues --  -10.16295 -10.16288  -8.71499  -6.54664  -6.53375
  Beta  occ. eigenvalues --   -6.53265  -2.65755  -2.65402  -2.65320  -2.64294
  Beta  occ. eigenvalues --   -2.64293  -1.08321  -1.08017  -0.88773  -0.85380
  Beta  occ. eigenvalues --   -0.80940  -0.76792  -0.71355  -0.69492  -0.69297
  Beta  occ. eigenvalues --   -0.64400  -0.61684  -0.56025  -0.53878  -0.50659
  Beta  occ. eigenvalues --   -0.49103  -0.47410  -0.46587  -0.45736  -0.44808
  Beta  occ. eigenvalues --   -0.44630  -0.43361  -0.42902  -0.40984  -0.39299
  Beta  occ. eigenvalues --   -0.38728  -0.37288  -0.36381  -0.35806  -0.34696
  Beta  occ. eigenvalues --   -0.34283  -0.31248  -0.30607  -0.29923  -0.28448
  Beta  occ. eigenvalues --   -0.28352
  Beta virt. eigenvalues --   -0.14340  -0.03832  -0.02878  -0.01309  -0.00733
  Beta virt. eigenvalues --    0.00536   0.01219   0.01863   0.02472   0.03065
  Beta virt. eigenvalues --    0.03691   0.03840   0.04501   0.04878   0.05294

 Mulliken charges and spin densities:
               1          2
     1  C   -0.801927  -0.000000
     2  C   -0.382337   0.000000
     3  C    1.198296   0.000000
     4  C   -0.640052  -0.000000
     5  C   -0.396264   0.000000
     6  C    0.862442  -0.000000
     7  Br  -0.062491  -0.000000
     8  C    0.561341  -0.000000
     9  C   -0.687777   0.000000
    10  C   -0.483529   0.000000
    11  C   -0.686502   0.000000
    12  O   -0.235860  -0.000000
    13  O   -0.232953   0.000000
    14  H    0.249764   0.000000
    15  H    0.279308  -0.000000
    16  H    0.150460   0.000000
    17  H    0.168509  -0.000000
    18  H    0.174946   0.000000
    19  H    0.143395  -0.000000
    20  H    0.143621  -0.000000
    21  H    0.183836  -0.000000
    22  H    0.174825   0.000000
    23  H    0.168479  -0.000000
    24  H    0.150471  -0.000000
 Sum of Mulliken charges =  -0.00000  -0.00000

 Dipole moment (field-independent basis, Debye):
    X=             -2.4300    Y=             -1.4486    Z=             -0.4117  Tot=              2.8588
 Quadrupole moment (field-independent basis, Debye-Ang):
   XX=            -75.2037   YY=           -100.5788   ZZ=            -98.1567
   XY=             -0.3853   XZ=             -4.4925   YZ=            -10.0429

  Exact polarizability: 213.777  50.719 202.685  14.606  57.313 185.288
 Approx polarizability: 218.751  56.257 252.298  25.941  92.470 234.315

                      1                      2                      3
                      A                      A                      A
 Frequencies --     38.4421                66.6052               132.8386
 Red. masses --      6.9712                 3.6235                 5.0577
 Frc consts  --      0.0061                 0.0095                 0.0526
 IR Inten    --      3.9998                 0.3179                12.2897

                      4                      5                      6
                      A                      A                      A
 Frequencies --    138.0149               152.1628               206.7439
 Red. masses --      4.9460                 6.3456                 7.0137
 Frc consts  --      0.0555                 0.0866                 0.1766
 IR Inten    --      0.5228                 0.2427                 0.7991

                      7                      8                      9
                      A                      A                      A
 Frequencies --    209.2855               232.1276               251.1416
 Red. masses --      1.2980                 4.8119                 1.1476
 Frc consts  --      0.0335                 0.1528                 0.0426
 IR Inten    --      0.9973                 0.2282                 0.3034

                     10                     11                     12
                      A                      A                      A
 Frequencies --    265.0051               302.3650               330.4117
 Red. masses --      2.3412                 3.0713                 1.0573
 Frc consts  --      0.0969                 0.1654                 0.0680
 IR Inten    --      0.0138                 0.2421                 0.0301

                     13                     14                     15
                      A                      A                      A
 Frequencies --    338.2558               362.1544               384.8421
 Red. masses --      4.8429                 3.8327                 2.3980
 Frc consts  --      0.3265                 0.2962                 0.2092
 IR Inten    --      7.9750                 0.3739                 0.9182

                     16                     17                     18
                      A                      A                      A
 Frequencies --    412.4272               466.0884               477.2014
 Red. masses --      2.7152                 7.1645                 4.6380
 Frc consts  --      0.2721                 0.9170                 0.6223
 IR Inten    --      1.2527                 0.8349                43.5239

                     19                     20                     21
                      A                      A                      A
 Frequencies --    497.7395               570.3373               615.8366
 Red. masses --      3.8499                 5.9498                 4.1699
 Frc consts  --      0.5620                 1.1403                 0.9318
 IR Inten    --      0.0360                45.0311                 3.2976

                     22                     23                     24
                      A                      A                      A
 Frequencies --    668.2661               722.5095               788.6091
 Red. masses --      6.1225                 6.4741                 3.6064
 Frc consts  --      1.6109                 1.9912                 1.3214
 IR Inten    --      2.7267                 9.4469                 0.3801

                     25                     26                     27
                      A                      A                      A
 Frequencies --    801.9203               815.5784               890.3781
 Red. masses --      3.8339                 3.8881                 1.5898
 Frc consts  --      1.4526                 1.5238                 0.7426
 IR Inten    --      1.0201                50.2346                 0.7817

                     28                     29                     30
                      A                      A                      A
 Frequencies --    928.3545               929.0714               937.3357
 Red. masses --      1.7464                 4.6734                 1.7641
 Frc consts  --      0.8868                 2.3768                 0.9132
 IR Inten    --     22.5261                38.1057                 3.6555

                     31                     32                     33
                      A                      A                      A
 Frequencies --    937.8857               965.6909              1022.1958
 Red. masses --      1.5353                 1.1972                 2.5094
 Frc consts  --      0.7957                 0.6578                 1.5448
 IR Inten    --     48.9436                 0.0338               262.9441

                     34                     35                     36
                      A                      A                      A
 Frequencies --   1045.8481              1057.9846              1193.3767
 Red. masses --      1.3835                 1.6131                 3.2448
 Frc consts  --      0.8916                 1.0638                 2.7226
 IR Inten    --      0.0883                65.8281               147.1399

                     37                     38                     39
                      A                      A                      A
 Frequencies --   1213.0472              1218.0081              1238.9917
 Red. masses --      2.6766                 2.1588                 3.2692
 Frc consts  --      2.3205                 1.8870                 2.9568
 IR Inten    --      5.3998                11.2643                77.6496

                     40                     41                     42
                      A                      A                      A
 Frequencies --   1268.4024              1324.6465              1353.4369
 Red. masses --      2.1725                 2.4014                 1.8518
 Frc consts  --      2.0593                 2.4826                 1.9986
 IR Inten    --     25.7468                12.8601                53.2255

                     43                     44                     45
                      A                      A                      A
 Frequencies --   1388.7555              1395.9436              1422.8139
 Red. masses --      1.1941                 1.2316                 1.2172
 Frc consts  --      1.3569                 1.4140                 1.4518
 IR Inten    --      9.4373                19.9710                 4.2205

                     46                     47                     48
                      A                      A                      A
 Frequencies --   1475.8518              1489.0892              1489.2999
 Red. masses --      1.0460                 1.0448                 1.0454
 Frc consts  --      1.3424                 1.3650                 1.3661
 IR Inten    --      0.0208                 0.1577                 0.1990

                     49                     50                     51
                      A                      A                      A
 Frequencies --   1492.7572              1503.0317              1517.7078
 Red. masses --      1.0553                 1.0483                 1.0611
 Frc consts  --      1.3855                 1.3953                 1.4401
 IR Inten    --     28.6143                13.9957                25.2766

                     52                     53                     54
                      A                      A                      A
 Frequencies --   1628.4138              1667.8363              1693.4665
 Red. masses --      8.5214                 8.7131                11.8677
 Frc consts  --     13.3135                14.2801                20.0525
 IR Inten    --    299.8835                11.9355               827.7942

                     55                     56                     57
                      A                      A                      A
 Frequencies --   1704.4857              3025.0685              3028.1439
 Red. masses --     11.5014                 1.0354                 1.0373
 Frc consts  --     19.6873                 5.5827                 5.6041
 IR Inten    --    274.0962                26.1832                60.1680

                     58                     59                     60
                      A                      A                      A
 Frequencies --   3033.4665              3086.9207              3087.7794
 Red. masses --      1.0382                 1.1026                 1.1021
 Frc consts  --      5.6287                 6.1906                 6.1911
 IR Inten    --     36.5580                10.9507                32.3014

                     61                     62                     63
                      A                      A                      A
 Frequencies --   3091.6822              3097.6171              3131.1590
 Red. masses --      1.1026                 1.1009                 1.0990
 Frc consts  --      6.2098                 6.2239                 6.3485
 IR Inten    --     58.7927                80.7624                 0.3909

                     64                     65                     66
                      A                      A                      A
 Frequencies --   3133.3780              3204.4879              3209.8497
 Red. masses --      1.0984                 1.0938                 1.0907
 Frc consts  --      6.3540                 6.6179                 6.6211
 IR Inten    --     38.4177                 0.2295                 0.5736

 - Thermochemistry -
 -------------------
 Temperature   298.150 Kelvin.  Pressure   1.00000 Atm.
 Atom     1 has atomic number  6 and mass  12.00000

 Molecular mass:   241.99424 amu.
 Principal axes and moments of inertia in atomic units:
                           1         2         3
     Eigenvalues --  1289.259596243.960377129.27791
           X            0.88527  -0.34467  -0.31225
           Y            0.45896   0.53898   0.70630
           Z            0.07514   0.76858  -0.63533
 This molecule is an asymmetric top.
 Rotational symmetry number  1.
 Warning -- assumption of classical behavior for rotation
           may cause significant error
 Rotational temperatures (Kelvin)      0.06718     0.01387     0.01215
 Rotational constants (GHZ):           1.39983     0.28904     0.25315
 Zero-point vibrational energy     489096.6 (Joules/Mol)
                                  116.89690 (Kcal/Mol)
 Warning -- explicit consideration of  21 degrees of freedom as
           vibrations may cause significant error
 Vibrational temperatures:     55.31    95.83   191.13   198.57   218.93
          (Kelvin)            297.46   301.12   333.98   361.34   381.28
                              435.04   475.39   486.67   521.06   553.70
                              593.39   670.60   686.59   716.14   820.59
                              886.05   961.49  1039.53  1134.63  1153.78
                             1173.44  1281.06  1335.70  1336.73  1348.62
                             1349.41  1389.41  1470.71  1504.74  1522.20
                             1717.00  1745.30  1752.44  1782.63  1824.95
                             1905.87  1947.29  1998.11  2008.45  2047.11
                             2123.42  2142.47  2142.77  2147.74  2162.53
                             2183.64  2342.92  2399.64  2436.52  2452.37
                             4352.40  4356.82  4364.48  4441.39  4442.63
                             4448.24  4456.78  4505.04  4508.23  4610.54
                             4618.26

 Zero-point correction=                           0.186287 (Hartree/Particle)
 Thermal correction to Energy=                    0.199511
 Thermal correction to Enthalpy=                  0.200455
 Thermal correction to Gibbs Free Energy=         0.145972
 Sum of electronic and zero-point Energies=          -3112.222721
 Sum of electronic and thermal Energies=             -3112.209497
 Sum of electronic and thermal Enthalpies=           -3112.208553
 Sum of electronic and thermal Free Energies=        -3112.263036

                     E (Thermal)             CV                S
                      KCal/Mol        Cal/Mol-Kelvin    Cal/Mol-Kelvin
 Total                  125.195             49.468            114.670
 Electronic               0.000              0.000              0.000
 Translational            0.889              2.981             42.352
 Rotational               0.889              2.981             32.418
 Vibrational            123.417             43.507             39.900
 Vibration     1          0.594              1.982              5.338
 Vibration     2          0.598              1.970              4.251
 Vibration     3          0.613              1.921              2.905
 Vibration     4          0.614              1.915              2.831
 Vibration     5          0.619              1.900              2.645
 Vibration     6          0.641              1.830              2.072
 Vibration     7          0.642              1.827              2.050
 Vibration     8          0.653              1.792              1.862
 Vibration     9          0.663              1.761              1.723
 Vibration    10          0.671              1.737              1.629
 Vibration    11          0.694              1.669              1.404
 Vibration    12          0.713              1.615              1.258
 Vibration    13          0.719              1.599              1.220
 Vibration    14          0.736              1.550              1.113
 Vibration    15          0.754              1.503              1.020
 Vibration    16          0.776              1.443              0.918
 Vibration    17          0.823              1.325              0.749
 Vibration    18          0.834              1.301              0.718
 Vibration    19          0.853              1.255              0.664
 Vibration    20          0.926              1.095              0.504
 Vibration    21          0.975              0.998              0.423

 Optimization completed.
    -- Stationary point found.
 Normal termination of Gaussian 16 at Sat Feb 10 11:12:01 2024.
