 Gaussian 16, Revision A.03,
 Gaussian 16:  ES64L-G16RevA.03 25-Dec-2016

 --------------------------------------
 #P UB3LYP/6-311++G(d,p) nosym opt freq
 --------------------------------------

 -------
 Radical
 -------
 Symbolic Z-matrix:
 Charge = -1 Multiplicity = 2

 SCF Done:  E(UB3LYP) =  -2220.12841813     A.U. after   20 cycles
 Optimization completed.
    -- Stationary point found.
 Normal termination of Gaussian 16 at Tue Jan  9 20:30:40 2024.

 ----------------------------------------------------------------------
 #P Geom=AllCheck Guess=TCheck SCRF=Check GenChk UB3LYP/6-311++G(d,p) F
 req
 ----------------------------------------------------------------------

 Structure from the checkpoint file:  "317-rad.chk"
 -------
 Radical
 -------
 Charge = -1 Multiplicity = 2

                          Input orientation:
 ---------------------------------------------------------------------
 Center     Atomic      Atomic             Coordinates (Angstroms)
 Number     Number       Type             X           Y           Z
 ---------------------------------------------------------------------
      1         17           0        3.086463    0.393353   -0.015312
      2          6           0        1.348756    0.137341   -0.008218
      3          6           0        0.827892   -1.140593   -0.059009
      4         17           0        1.881258   -2.541372   -0.131838
      5          6           0       -0.599263   -1.414479   -0.055967
      6          8           0       -1.062724   -2.560955   -0.101641
      7          6           0       -1.521977   -0.214892    0.006698
      8          8           0       -2.750016   -0.367626    0.012981
      9          6           0       -0.890270    1.092675    0.057587
     10          6           0        0.479560    1.267006    0.050743
     11         17           0        1.174004    2.879163    0.114274
     12         17           0       -1.973684    2.470380    0.129703
 ---------------------------------------------------------------------

 SCF Done:  E(UB3LYP) =  -2220.12841813     A.U. after    1 cycles

 Alpha  occ. eigenvalues -- -101.45383-101.45382-101.43762-101.43762 -18.96619
 Alpha  occ. eigenvalues --  -18.96617 -10.13920 -10.13877 -10.11781 -10.11780
 Alpha  occ. eigenvalues --  -10.11641 -10.11618  -9.36851  -9.36849  -9.35210
 Alpha  occ. eigenvalues --   -9.35209  -7.13316  -7.13315  -7.12359  -7.12358
 Alpha  occ. eigenvalues --   -7.12273  -7.12272  -7.11668  -7.11668  -7.10733
 Alpha  occ. eigenvalues --   -7.10732  -7.10630  -7.10630  -0.90962  -0.88196
 Alpha  occ. eigenvalues --   -0.81143  -0.77024  -0.74417  -0.73085  -0.68435
 Alpha  occ. eigenvalues --   -0.59490  -0.57637  -0.47221  -0.46841  -0.40557
 Alpha  occ. eigenvalues --   -0.37804  -0.34077  -0.33078  -0.32611  -0.30736
 Alpha  occ. eigenvalues --   -0.28881  -0.28823  -0.27987  -0.27326  -0.23445
 Alpha  occ. eigenvalues --   -0.23194  -0.22577  -0.21777  -0.21265  -0.19775
 Alpha  occ. eigenvalues --   -0.18793  -0.18097  -0.14354  -0.11647  -0.11330
 Alpha  occ. eigenvalues --   -0.05688
 Alpha virt. eigenvalues --    0.06937   0.10846   0.11104   0.11174   0.11772
 Alpha virt. eigenvalues --    0.12297   0.12682   0.15332   0.15441   0.15474
 Alpha virt. eigenvalues --    0.16886   0.17279   0.17740   0.18121   0.18255

  Beta  occ. eigenvalues -- -101.45375-101.45374-101.43756-101.43755 -18.95959
  Beta  occ. eigenvalues --  -18.95956 -10.13767 -10.13726 -10.11638 -10.11636
  Beta  occ. eigenvalues --  -10.11593 -10.11573  -9.36844  -9.36842  -9.35204
  Beta  occ. eigenvalues --   -9.35203  -7.13319  -7.13318  -7.12326  -7.12325
  Beta  occ. eigenvalues --   -7.12268  -7.12267  -7.11671  -7.11671  -7.10705
  Beta  occ. eigenvalues --   -7.10704  -7.10627  -7.10627  -0.89901  -0.87003
  Beta  occ. eigenvalues --   -0.80827  -0.76877  -0.74242  -0.72982  -0.68116
  Beta  occ. eigenvalues --   -0.59175  -0.56785  -0.46837  -0.46369  -0.40348
  Beta  occ. eigenvalues --   -0.37618  -0.33801  -0.32515  -0.31879  -0.30380
  Beta  occ. eigenvalues --   -0.28361  -0.28316  -0.26587  -0.26415  -0.23123
  Beta  occ. eigenvalues --   -0.22795  -0.21951  -0.21709  -0.19749  -0.19098
  Beta  occ. eigenvalues --   -0.18729  -0.17029  -0.13724  -0.10702  -0.10143
  Beta virt. eigenvalues --    0.01127   0.07059   0.10893   0.11804   0.12336
  Beta virt. eigenvalues --    0.12774   0.13131   0.13215   0.15389   0.15466
  Beta virt. eigenvalues --    0.15544   0.16934   0.17285   0.17813   0.18165

 Mulliken charges and spin densities:
               1          2
     1  Cl   0.557793   0.011759
     2  C   -0.672537   0.067953
     3  C    0.389337   0.112223
     4  Cl   0.262328   0.006588
     5  C   -0.742632   0.053180
     6  O   -0.293687   0.248287
     7  C   -0.742962   0.053194
     8  O   -0.293765   0.248400
     9  C    0.389955   0.112132
    10  C   -0.674038   0.067947
    11  Cl   0.558005   0.011757
    12  Cl   0.262202   0.006580
 Sum of Mulliken charges =  -1.00000   1.00000

 Dipole moment (field-independent basis, Debye):
    X=              3.8719    Y=              2.9737    Z=              0.0901  Tot=              4.8829
 Quadrupole moment (field-independent basis, Debye-Ang):
   XX=           -125.2583   YY=           -123.1946   ZZ=            -97.5670
   XY=             -3.7950   XZ=              0.1266   YZ=             -1.0912

  Exact polarizability: 178.679  -7.424 182.465  -1.466   4.982  71.377
 Approx polarizability: 283.156   4.412 280.549  -1.647   7.497 109.648

                      1                      2                      3
                      A                      A                      A
 Frequencies --     59.9978                66.5013                94.2495
 Red. masses --     23.9267                25.5946                20.6432
 Frc consts  --      0.0507                 0.0667                 0.1080
 IR Inten    --      0.0000                 1.2400                 0.0000

                      4                      5                      6
                      A                      A                      A
 Frequencies --    173.7092               207.7740               211.2820
 Red. masses --     13.8918                27.3292                32.4096
 Frc consts  --      0.2470                 0.6951                 0.8524
 IR Inten    --      2.2083                 1.1851                 0.1227

                      7                      8                      9
                      A                      A                      A
 Frequencies --    229.5258               287.1688               289.0301
 Red. masses --     34.6242                12.5389                19.0087
 Frc consts  --      1.0747                 0.6092                 0.9356
 IR Inten    --      0.0064                 0.0000                 0.0491

                     10                     11                     12
                      A                      A                      A
 Frequencies --    302.6840               325.6446               359.5458
 Red. masses --     26.2582                25.7572                12.4724
 Frc consts  --      1.4174                 1.6093                 0.9500
 IR Inten    --      0.3557                 5.3940                 2.6345

                     13                     14                     15
                      A                      A                      A
 Frequencies --    379.3438               413.0562               480.4751
 Red. masses --     16.7653                19.6069                17.2052
 Frc consts  --      1.4214                 1.9710                 2.3402
 IR Inten    --      0.5944                 5.9746                 0.4268

                     16                     17                     18
                      A                      A                      A
 Frequencies --    548.2739               578.0945               666.2686
 Red. masses --     12.0441                12.2293                13.6866
 Frc consts  --      2.1331                 2.4080                 3.5797
 IR Inten    --      0.0000                 6.6966                67.0964

                     19                     20                     21
                      A                      A                      A
 Frequencies --    753.8152               762.5759               776.9363
 Red. masses --     13.2407                12.1905                13.4675
 Frc consts  --      4.4329                 4.1768                 4.7897
 IR Inten    --    105.7584                 0.0000                53.2623

                     22                     23                     24
                      A                      A                      A
 Frequencies --    906.8403               965.8015              1170.0548
 Red. masses --     12.9288                12.5467                12.0843
 Frc consts  --      6.2642                 6.8953                 9.7473
 IR Inten    --      0.4593                14.9478                 7.0905

                     25                     26                     27
                      A                      A                      A
 Frequencies --   1185.1335              1301.5962              1468.8174
 Red. masses --     12.1767                12.0682                12.0762
 Frc consts  --     10.0766                12.0460                15.3502
 IR Inten    --     96.9570                80.1070                45.6215

                     28                     29                     30
                      A                      A                      A
 Frequencies --   1501.4269              1574.5617              1587.1149
 Red. masses --     12.0123                13.1370                13.1592
 Frc consts  --     15.9545                19.1896                19.5297
 IR Inten    --      0.2888               103.5146               535.4113

 - Thermochemistry -
 -------------------
 Temperature   298.150 Kelvin.  Pressure   1.00000 Atm.
 Atom     1 has atomic number 17 and mass  34.96885

 Molecular mass:   243.86524 amu.
 Principal axes and moments of inertia in atomic units:
                           1         2         3
     Eigenvalues --  2580.267173597.914136178.18130
           X           -0.60907   0.79305   0.01058
           Y            0.79204   0.60888  -0.04399
           Z            0.04133   0.01842   0.99898
 This molecule is an asymmetric top.
 Rotational symmetry number  1.
 Warning -- assumption of classical behavior for rotation
           may cause significant error
 Rotational temperatures (Kelvin)      0.03357     0.02407     0.01402
 Rotational constants (GHZ):           0.69944     0.50161     0.29212
 Zero-point vibrational energy     117397.3 (Joules/Mol)
                                   28.05863 (Kcal/Mol)
 Warning -- explicit consideration of  17 degrees of freedom as
           vibrations may cause significant error
 Vibrational temperatures:     86.32    95.68   135.60   249.93   298.94
          (Kelvin)            303.99   330.24   413.17   415.85   435.49
                              468.53   517.31   545.79   594.30   691.30
                              788.84   831.75   958.61  1084.57  1097.18
                             1117.84  1304.74  1389.57  1683.45  1705.14
                             1872.71  2113.30  2160.22  2265.44  2283.50

 Zero-point correction=                           0.044714 (Hartree/Particle)
 Thermal correction to Energy=                    0.055929
 Thermal correction to Enthalpy=                  0.056874
 Thermal correction to Gibbs Free Energy=         0.005192
 Sum of electronic and zero-point Energies=          -2220.083704
 Sum of electronic and thermal Energies=             -2220.072489
 Sum of electronic and thermal Enthalpies=           -2220.071544
 Sum of electronic and thermal Free Energies=        -2220.123226

                     E (Thermal)             CV                S
                      KCal/Mol        Cal/Mol-Kelvin    Cal/Mol-Kelvin
 Total                   35.096             38.687            108.772
 Electronic               0.000              0.000              1.377
 Translational            0.889              2.981             42.375
 Rotational               0.889              2.981             32.417
 Vibrational             33.319             32.726             32.603
 Vibration     1          0.597              1.973              4.457
 Vibration     2          0.598              1.970              4.254
 Vibration     3          0.603              1.953              3.570
 Vibration     4          0.627              1.875              2.395
 Vibration     5          0.641              1.829              2.063
 Vibration     6          0.643              1.824              2.033
 Vibration     7          0.652              1.796              1.883
 Vibration     8          0.684              1.698              1.491
 Vibration     9          0.686              1.694              1.480
 Vibration    10          0.694              1.669              1.402
 Vibration    11          0.710              1.624              1.282
 Vibration    12          0.734              1.556              1.124
 Vibration    13          0.749              1.514              1.042
 Vibration    14          0.777              1.442              0.916
 Vibration    15          0.837              1.293              0.709
 Vibration    16          0.904              1.143              0.548
 Vibration    17          0.935              1.079              0.489

 Optimization completed.
    -- Stationary point found.
 Normal termination of Gaussian 16 at Tue Jan  9 20:42:09 2024.
