 Q-Chem 5.4, Q-Chem, Inc., Pleasanton, CA (2021)
 Q-Chem 5.4.0 for Intel X86 EM64T Linux

User input:
--------------------------------------------------------------
$molecule
-1 2
Cl                 3.0864630000      0.3933530000     -0.0153120000
C                  1.3487560000      0.1373410000     -0.0082180000
C                  0.8278920000     -1.1405930000     -0.0590090000
Cl                 1.8812580000     -2.5413720000     -0.1318380000
C                 -0.5992630000     -1.4144790000     -0.0559670000
O                 -1.0627240000     -2.5609550000     -0.1016410000
C                 -1.5219770000     -0.2148920000      0.0066980000
O                 -2.7500160000     -0.3676260000      0.0129810000
C                 -0.8902700000      1.0926750000      0.0575870000
C                  0.4795600000      1.2670060000      0.0507430000
Cl                 1.1740040000      2.8791630000      0.1142740000
Cl                -1.9736840000      2.4703800000      0.1297030000
$end
$rem
MAX_SCF_CYCLES=200
BASIS  =  6-311++G(d,p)
GUI  =  2
JOB_TYPE  =  SP
METHOD  =  B3LYP
SOLVENT_METHOD = COSMO
$end
$solvent
dielectric 37.219
opticaldielectric 1.43
$end

--------------------------------------------------------------

             Standard Nuclear Orientation (Angstroms)
    I     Atom           X                Y                Z
 ----------------------------------------------------------------
    1      Cl     -1.5690193790    -2.2852319186     0.0000526241
    2      C      -0.7131255015    -0.7513923716     0.0000194536
    3      C      -1.4101656088     0.4407189607    -0.0000106660
    4      Cl     -3.1642208333     0.4595887574     0.0000010106
    5      C      -0.7577420053     1.7392325841    -0.0000201919
    6      O      -1.3854121563     2.8056844602    -0.0001144095
    7      C       0.7569648813     1.7394373690     0.0000474792
    8      O       1.3842059200     2.8062155164     0.0000522723
    9      C       1.4099692832     0.4413772260     0.0000444398
   10      C       0.7134511472    -0.7509880086     0.0000290663
   11      Cl      1.5700159425    -2.2844923579    -0.0000807700
   12      Cl      3.1640205472     0.4603993797     0.0000177007
 ----------------------------------------------------------------

   11   -2220.1281296715      3.09e-06  Convergence criterion met
 Total energy in the final basis set =    -2220.1281296715
    5   -2220.2062277644      5.37e-06  Convergence criterion met
 Total energy in the final basis set =    -2220.2062277644

                    Orbital Energies (a.u.)
 --------------------------------------------------------------

 Alpha MOs
 -- Occupied --
********-101.5702-101.5614-101.5614 -19.1059 -19.1059 -10.2638 -10.2633
-10.2527 -10.2525 -10.2445 -10.2445  -9.4846  -9.4846  -9.4759  -9.4758
 -7.2494  -7.2494  -7.2403  -7.2403  -7.2398  -7.2398  -7.2387  -7.2387
 -7.2311  -7.2311  -7.2302  -7.2302  -1.0506  -1.0232  -0.9329  -0.8921
 -0.8667  -0.8505  -0.8085  -0.7197  -0.7050  -0.5994  -0.5966  -0.5365
 -0.5004  -0.4675  -0.4597  -0.4483  -0.4423  -0.4267  -0.4202  -0.4094
 -0.4010  -0.3603  -0.3495  -0.3492  -0.3401  -0.3386  -0.3221  -0.3108
 -0.3019  -0.2849  -0.2561  -0.2411  -0.1906

 Beta MOs
 -- Occupied --
********-101.5701-101.5613-101.5613 -19.0997 -19.0997 -10.2621 -10.2617
-10.2516 -10.2514 -10.2436 -10.2436  -9.4845  -9.4845  -9.4758  -9.4758
 -7.2494  -7.2494  -7.2403  -7.2403  -7.2394  -7.2394  -7.2386  -7.2386
 -7.2308  -7.2308  -7.2302  -7.2302  -1.0403  -1.0118  -0.9297  -0.8907
 -0.8651  -0.8496  -0.8051  -0.7169  -0.6957  -0.5954  -0.5916  -0.5342
 -0.4982  -0.4639  -0.4471  -0.4451  -0.4367  -0.4227  -0.4182  -0.3923
 -0.3910  -0.3485  -0.3473  -0.3449  -0.3380  -0.3277  -0.3218  -0.3095
 -0.2915  -0.2797  -0.2502  -0.2291

          Ground-State Mulliken Net Atomic Charges

     Atom                 Charge (a.u.)    Spin (a.u.)
  --------------------------------------------------------
      1 Cl                    0.565439       0.015552
      2 C                    -0.587354       0.082718
      3 C                     0.308853       0.065378
      4 Cl                    0.268606       0.004450
      5 C                    -0.631477       0.102699
      6 O                    -0.423660       0.229250
      7 C                    -0.631402       0.102813
      8 O                    -0.423955       0.229183
      9 C                     0.309289       0.065218
     10 C                    -0.588361       0.082748
     11 Cl                    0.565503       0.015549
     12 Cl                    0.268521       0.004442
  --------------------------------------------------------
  Sum of atomic charges =    -1.000000

                    Cartesian Multipole Moments
 -----------------------------------------------------------------
    Charge (ESU x 10^10)
                -4.8032
    Dipole Moment (Debye)
         X       0.0010      Y     -10.1897      Z       0.0005
       Tot      10.1897
    Quadrupole Moments (Debye-Ang)
        XX    -117.3143     XY       0.0005     YY    -136.7056
        XZ      -0.0021     YZ       0.0010     ZZ     -97.0781

 Total job time:  26.17s(wall), 174.69s(cpu)
        *  Thank you very much for using Q-Chem.  Have a nice day.  *
