 Gaussian 16, Revision A.03,
 Gaussian 16:  ES64L-G16RevA.03 25-Dec-2016

 --------------------------------------
 #P UB3LYP/6-311++G(d,p) nosym opt freq
 --------------------------------------

 -------
 Reduced
 -------
 Symbolic Z-matrix:
 Charge = -2 Multiplicity = 1

 SCF Done:  E(UB3LYP) =  -799.570753404     A.U. after   48 cycles
 SCF Done:  E(UB3LYP) =  -799.608377652     A.U. after   56 cycles
 SCF Done:  E(UB3LYP) =  -799.633731577     A.U. after   34 cycles
 SCF Done:  E(UB3LYP) =  -799.659152024     A.U. after   23 cycles
 SCF Done:  E(UB3LYP) =  -799.671875896     A.U. after   19 cycles
 SCF Done:  E(UB3LYP) =  -799.678754645     A.U. after   20 cycles
 SCF Done:  E(UB3LYP) =  -799.681763178     A.U. after   20 cycles
 SCF Done:  E(UB3LYP) =  -799.684961911     A.U. after   22 cycles
 SCF Done:  E(UB3LYP) =  -799.686979488     A.U. after   20 cycles
 SCF Done:  E(UB3LYP) =  -799.688694904     A.U. after   23 cycles
 SCF Done:  E(UB3LYP) =  -799.688967124     A.U. after   23 cycles
 SCF Done:  E(UB3LYP) =  -799.689248586     A.U. after   20 cycles
 SCF Done:  E(UB3LYP) =  -799.689303544     A.U. after   19 cycles
 SCF Done:  E(UB3LYP) =  -799.689324654     A.U. after   19 cycles
 SCF Done:  E(UB3LYP) =  -799.689333203     A.U. after   18 cycles
 SCF Done:  E(UB3LYP) =  -799.689335002     A.U. after   16 cycles
 SCF Done:  E(UB3LYP) =  -799.689335689     A.U. after   16 cycles
 SCF Done:  E(UB3LYP) =  -799.689335932     A.U. after   15 cycles
 Optimization completed.
    -- Stationary point found.
 Normal termination of Gaussian 16 at Thu Dec 21 10:11:33 2023.

 ----------------------------------------------------------------------
 #P Geom=AllCheck Guess=TCheck SCRF=Check GenChk UB3LYP/6-311++G(d,p) F
 req
 ----------------------------------------------------------------------

 Structure from the checkpoint file:  "167-an.chk"
 -------
 Reduced
 -------
 Charge = -2 Multiplicity = 1

                          Input orientation:
 ---------------------------------------------------------------------
 Center     Atomic      Atomic             Coordinates (Angstroms)
 Number     Number       Type             X           Y           Z
 ---------------------------------------------------------------------
      1          7           0        3.569030   -1.273178    0.178745
      2          6           0        2.873442   -0.075104   -0.063503
      3          6           0        3.570984    1.096259   -0.330605
      4          6           0        2.880139    2.324902   -0.505504
      5          6           0        1.510659    2.368099   -0.402299
      6          6           0        0.746457    1.192386   -0.145920
      7          6           0       -0.686003    1.317524   -0.080328
      8          8           0       -1.260635    2.482754   -0.242820
      9          6           0       -1.421492    0.098431    0.146395
     10          6           0       -2.864113    0.096284    0.231724
     11          7           0       -3.545547    1.326584    0.244513
     12          6           0       -3.570495   -1.095011    0.339761
     13          6           0       -2.885981   -2.338109    0.400506
     14          6           0       -1.512917   -2.373174    0.362439
     15          6           0       -0.741494   -1.181141    0.235594
     16          6           0        0.691193   -1.305680    0.174926
     17          8           0        1.260770   -2.482581    0.244881
     18          6           0        1.430247   -0.078584    0.011385
     19          1           0        2.887979   -2.060686    0.162880
     20          1           0        4.382349   -1.384717   -0.412333
     21          1           0        4.659749    1.065471   -0.357161
     22          1           0        3.446131    3.233762   -0.707554
     23          1           0        0.955214    3.291689   -0.518190
     24          1           0       -4.419616    1.299650   -0.264004
     25          1           0       -2.881032    2.076063   -0.039772
     26          1           0       -4.656024   -1.056835    0.424890
     27          1           0       -3.458196   -3.260825    0.491928
     28          1           0       -0.960798   -3.304234    0.419431
 ---------------------------------------------------------------------

 SCF Done:  E(UB3LYP) =  -799.689335932     A.U. after    1 cycles

 Alpha  occ. eigenvalues --  -18.77973 -18.77972 -14.05007 -14.05006  -9.95600
 Alpha  occ. eigenvalues --   -9.95598  -9.93569  -9.93568  -9.91877  -9.91877
 Alpha  occ. eigenvalues --   -9.90884  -9.90884  -9.90230  -9.90228  -9.90111
 Alpha  occ. eigenvalues --   -9.90110  -9.89600  -9.89599  -0.69902  -0.69487
 Alpha  occ. eigenvalues --   -0.65007  -0.64807  -0.57747  -0.56634  -0.51526
 Alpha  occ. eigenvalues --   -0.47202  -0.46836  -0.46279  -0.39917  -0.37105
 Alpha  occ. eigenvalues --   -0.36288  -0.31760  -0.29343  -0.28926  -0.26344
 Alpha  occ. eigenvalues --   -0.24634  -0.23522  -0.21670  -0.20644  -0.19278
 Alpha  occ. eigenvalues --   -0.19175  -0.16944  -0.16851  -0.14450  -0.14042
 Alpha  occ. eigenvalues --   -0.12628  -0.12439  -0.11794  -0.11500  -0.09621
 Alpha  occ. eigenvalues --   -0.08431  -0.08343  -0.08215  -0.06651  -0.04869
 Alpha  occ. eigenvalues --   -0.03831   0.01733   0.02167   0.03526   0.03890
 Alpha  occ. eigenvalues --    0.04650   0.05166   0.13507
 Alpha virt. eigenvalues --    0.16385   0.16399   0.17726   0.17785   0.19638
 Alpha virt. eigenvalues --    0.20211   0.21422   0.21542   0.22443   0.23355
 Alpha virt. eigenvalues --    0.24206   0.24498   0.26147   0.26490   0.26636

  Beta  occ. eigenvalues --  -18.77973 -18.77972 -14.05007 -14.05006  -9.95600
  Beta  occ. eigenvalues --   -9.95598  -9.93569  -9.93568  -9.91877  -9.91877
  Beta  occ. eigenvalues --   -9.90884  -9.90884  -9.90230  -9.90228  -9.90111
  Beta  occ. eigenvalues --   -9.90110  -9.89600  -9.89599  -0.69902  -0.69487
  Beta  occ. eigenvalues --   -0.65007  -0.64807  -0.57747  -0.56634  -0.51526
  Beta  occ. eigenvalues --   -0.47202  -0.46836  -0.46279  -0.39917  -0.37105
  Beta  occ. eigenvalues --   -0.36288  -0.31760  -0.29343  -0.28926  -0.26344
  Beta  occ. eigenvalues --   -0.24634  -0.23522  -0.21670  -0.20644  -0.19278
  Beta  occ. eigenvalues --   -0.19175  -0.16944  -0.16851  -0.14450  -0.14042
  Beta  occ. eigenvalues --   -0.12628  -0.12439  -0.11794  -0.11500  -0.09621
  Beta  occ. eigenvalues --   -0.08431  -0.08343  -0.08215  -0.06651  -0.04869
  Beta  occ. eigenvalues --   -0.03831   0.01733   0.02167   0.03526   0.03890
  Beta  occ. eigenvalues --    0.04650   0.05166   0.13507
  Beta virt. eigenvalues --    0.16385   0.16399   0.17726   0.17785   0.19638
  Beta virt. eigenvalues --    0.20211   0.21422   0.21542   0.22443   0.23355
  Beta virt. eigenvalues --    0.24206   0.24498   0.26147   0.26490   0.26636

 Mulliken charges and spin densities:
               1          2
     1  N   -0.419542  -0.000000
     2  C    0.046601   0.000000
     3  C   -0.207418  -0.000000
     4  C   -0.456455  -0.000000
     5  C   -0.309951   0.000000
     6  C    0.712106  -0.000000
     7  C   -0.912990   0.000000
     8  O   -0.509479  -0.000000
     9  C    0.360645   0.000000
    10  C    0.046170  -0.000000
    11  N   -0.419516  -0.000000
    12  C   -0.206974  -0.000000
    13  C   -0.456144   0.000000
    14  C   -0.310059   0.000000
    15  C    0.712358  -0.000000
    16  C   -0.911962   0.000000
    17  O   -0.509478  -0.000000
    18  C    0.359936   0.000000
    19  H    0.300207  -0.000000
    20  H    0.167316   0.000000
    21  H    0.033371  -0.000000
    22  H    0.071510   0.000000
    23  H    0.123637  -0.000000
    24  H    0.167321  -0.000000
    25  H    0.300205   0.000000
    26  H    0.033452  -0.000000
    27  H    0.071522   0.000000
    28  H    0.123612   0.000000
 Sum of Mulliken charges =  -2.00000   0.00000

 Dipole moment (field-independent basis, Debye):
    X=             -0.1037    Y=             -0.2385    Z=             -1.8906  Tot=              1.9085
 Quadrupole moment (field-independent basis, Debye-Ang):
   XX=           -166.1361   YY=           -161.9877   ZZ=           -122.2804
   XY=              1.3222   XZ=              2.2940   YZ=              5.0340

  Exact polarizability: 565.122  54.893 298.318 -30.392 -22.936 144.926
 Approx polarizability: 750.487  87.541 545.933 -41.141 -47.812 213.342

                      1                      2                      3
                      A                      A                      A
 Frequencies --     57.5522                73.2419               105.2015
 Red. masses --      6.7454                 4.5958                 6.4015
 Frc consts  --      0.0132                 0.0145                 0.0417
 IR Inten    --      5.1096                 0.3397                 4.9940

                      4                      5                      6
                      A                      A                      A
 Frequencies --    169.5863               202.8147               222.9135
 Red. masses --      6.7220                 4.2294                 5.1191
 Frc consts  --      0.1139                 0.1025                 0.1499
 IR Inten    --      3.9107                 4.0592                 7.8265

                      7                      8                      9
                      A                      A                      A
 Frequencies --    224.6586               276.1832               315.7292
 Red. masses --      4.0080                 3.9478                 5.6605
 Frc consts  --      0.1192                 0.1774                 0.3325
 IR Inten    --      6.4534                13.9868                 1.7082

                     10                     11                     12
                      A                      A                      A
 Frequencies --    361.0341               391.4627               396.5001
 Red. masses --      5.0240                 6.0901                10.1587
 Frc consts  --      0.3858                 0.5499                 0.9410
 IR Inten    --      3.9561                20.7992                 0.0643

                     13                     14                     15
                      A                      A                      A
 Frequencies --    398.6553               422.6167               424.9737
 Red. masses --      1.8942                 1.2403                 8.2213
 Frc consts  --      0.1774                 0.1305                 0.8748
 IR Inten    --    161.1892                27.5720                 4.4170

                     16                     17                     18
                      A                      A                      A
 Frequencies --    452.2887               454.6912               491.0839
 Red. masses --      2.1515                 5.1127                 4.1931
 Frc consts  --      0.2593                 0.6228                 0.5958
 IR Inten    --    172.1062                 1.2761                 0.6286

                     19                     20                     21
                      A                      A                      A
 Frequencies --    513.7792               529.4361               536.3479
 Red. masses --      6.4540                 4.8259                 3.9923
 Frc consts  --      1.0038                 0.7970                 0.6767
 IR Inten    --      0.0057                 4.9479                13.4926

                     22                     23                     24
                      A                      A                      A
 Frequencies --    581.0704               585.6943               598.5000
 Red. masses --      4.8408                 5.6180                 5.7418
 Frc consts  --      0.9630                 1.1355                 1.2118
 IR Inten    --      2.9780                 1.5647                23.9461

                     25                     26                     27
                      A                      A                      A
 Frequencies --    642.2956               679.2118               701.6309
 Red. masses --      2.5971                 1.6106                 6.5573
 Frc consts  --      0.6313                 0.4378                 1.9019
 IR Inten    --     52.7706               120.4831                 0.9458

                     28                     29                     30
                      A                      A                      A
 Frequencies --    708.2512               732.5062               758.3561
 Red. masses --      1.4247                 2.4197                 4.5127
 Frc consts  --      0.4211                 0.7650                 1.5291
 IR Inten    --     29.0120                11.3815                 9.4435

                     31                     32                     33
                      A                      A                      A
 Frequencies --    760.7347               778.8124               781.7736
 Red. masses --      1.6499                 5.4285                 1.8779
 Frc consts  --      0.5626                 1.9400                 0.6762
 IR Inten    --     24.2645                56.8439                 8.7991

                     34                     35                     36
                      A                      A                      A
 Frequencies --    823.5392               850.1810               878.6411
 Red. masses --      6.0627                 6.9968                 2.7702
 Frc consts  --      2.4226                 2.9797                 1.2600
 IR Inten    --      7.0957                32.0519                42.7770

                     37                     38                     39
                      A                      A                      A
 Frequencies --    912.5246               926.2268               926.8433
 Red. masses --      1.4091                 1.2515                 1.2884
 Frc consts  --      0.6913                 0.6326                 0.6521
 IR Inten    --    246.3266                26.4331                14.3107

                     40                     41                     42
                      A                      A                      A
 Frequencies --    936.9982               983.5783              1033.9157
 Red. masses --      2.0830                 3.1676                 4.6676
 Frc consts  --      1.0775                 1.8055                 2.9398
 IR Inten    --     38.0592                12.6566               178.7600

                     43                     44                     45
                      A                      A                      A
 Frequencies --   1054.3845              1057.9196              1128.5435
 Red. masses --      1.8318                 2.0672                 1.5527
 Frc consts  --      1.1998                 1.3631                 1.1651
 IR Inten    --    174.3799                 0.9297               178.4339

                     46                     47                     48
                      A                      A                      A
 Frequencies --   1156.1434              1162.8200              1168.3259
 Red. masses --      1.1648                 3.4391                 1.6844
 Frc consts  --      0.9173                 2.7398                 1.3546
 IR Inten    --      0.1384                 0.7120               165.9992

                     49                     50                     51
                      A                      A                      A
 Frequencies --   1197.0756              1218.9555              1241.5761
 Red. masses --      1.3629                 2.9030                 2.9351
 Frc consts  --      1.1507                 2.5414                 2.6658
 IR Inten    --     13.9396               187.9462                89.4237

                     52                     53                     54
                      A                      A                      A
 Frequencies --   1251.4393              1275.9610              1308.9718
 Red. masses --      2.8239                 4.0847                 4.3465
 Frc consts  --      2.6057                 3.9181                 4.3878
 IR Inten    --    104.3013                 0.1186                 0.1156

                     55                     56                     57
                      A                      A                      A
 Frequencies --   1350.6182              1369.5779              1382.7036
 Red. masses --      5.2690                 3.1564                 2.0775
 Frc consts  --      5.6629                 3.4883                 2.3402
 IR Inten    --    199.6681               621.2933                 3.7520

                     58                     59                     60
                      A                      A                      A
 Frequencies --   1433.1594              1443.5006              1460.4333
 Red. masses --      7.7119                 2.3185                 2.3545
 Frc consts  --      9.3326                 2.8464                 2.9588
 IR Inten    --      0.0526                16.1216                 1.0140

                     61                     62                     63
                      A                      A                      A
 Frequencies --   1467.8277              1488.8780              1538.5178
 Red. masses --      3.2660                 4.9773                 5.7419
 Frc consts  --      4.1459                 6.5008                 8.0078
 IR Inten    --    238.3402                 0.0724               438.7168

                     64                     65                     66
                      A                      A                      A
 Frequencies --   1581.4103              1582.3996              1586.9024
 Red. masses --      2.9107                 3.7255                 4.5896
 Frc consts  --      4.2888                 5.4963                 6.8096
 IR Inten    --     79.6084                 3.1829                 0.5898

                     67                     68                     69
                      A                      A                      A
 Frequencies --   1611.0626              1612.1475              3048.5369
 Red. masses --      1.4975                 1.5579                 1.0744
 Frc consts  --      2.2900                 2.3856                 5.8831
 IR Inten    --    174.1335                 3.8185               160.8088

                     70                     71                     72
                      A                      A                      A
 Frequencies --   3049.2060              3082.3434              3082.6597
 Red. masses --      1.0746                 1.0825                 1.0828
 Frc consts  --      5.8865                 6.0595                 6.0627
 IR Inten    --    270.9291               102.6506                 3.5145

                     73                     74                     75
                      A                      A                      A
 Frequencies --   3106.9658              3107.3238              3174.1174
 Red. masses --      1.0916                 1.0912                 1.0905
 Frc consts  --      6.2085                 6.2078                 6.4732
 IR Inten    --    215.5467                 2.8933                62.4704

                     76                     77                     78
                      A                      A                      A
 Frequencies --   3174.5024              3563.9141              3564.0350
 Red. masses --      1.0905                 1.0776                 1.0777
 Frc consts  --      6.4749                 8.0646                 8.0654
 IR Inten    --      0.3699                13.6829                 0.2478

 - Thermochemistry -
 -------------------
 Temperature   298.150 Kelvin.  Pressure   1.00000 Atm.
 Atom     1 has atomic number  7 and mass  14.00307

 Molecular mass:   238.07423 amu.
 Principal axes and moments of inertia in atomic units:
                           1         2         3
     Eigenvalues --  2366.570394966.847427321.55968
           X            0.98251  -0.17798   0.05469
           Y            0.17011   0.97747   0.12493
           Z           -0.07570  -0.11344   0.99066
 This molecule is an asymmetric top.
 Rotational symmetry number  1.
 Warning -- assumption of classical behavior for rotation
           may cause significant error
 Rotational temperatures (Kelvin)      0.03660     0.01744     0.01183
 Rotational constants (GHZ):           0.76260     0.36336     0.24650
 Zero-point vibrational energy     542428.1 (Joules/Mol)
                                  129.64343 (Kcal/Mol)
 Warning -- explicit consideration of  24 degrees of freedom as
           vibrations may cause significant error
 Vibrational temperatures:     82.80   105.38   151.36   244.00   291.81
          (Kelvin)            320.72   323.23   397.37   454.26   519.45
                              563.23   570.48   573.58   608.05   611.44
                              650.74   654.20   706.56   739.21   761.74
                              771.68   836.03   842.68   861.11   924.12
                              977.23  1009.49  1019.02  1053.91  1091.11
                             1094.53  1120.54  1124.80  1184.89  1223.22
                             1264.17  1312.92  1332.63  1333.52  1348.13
                             1415.15  1487.57  1517.02  1522.11  1623.72
                             1663.43  1673.04  1680.96  1722.32  1753.81
                             1786.35  1800.54  1835.82  1883.32  1943.24
                             1970.52  1989.40  2062.00  2076.88  2101.24
                             2111.88  2142.16  2213.58  2275.30  2276.72
                             2283.20  2317.96  2319.52  4386.16  4387.13
                             4434.80  4435.26  4470.23  4470.75  4566.85
                             4567.40  5127.68  5127.85

 Zero-point correction=                           0.206600 (Hartree/Particle)
 Thermal correction to Energy=                    0.220256
 Thermal correction to Enthalpy=                  0.221200
 Thermal correction to Gibbs Free Energy=         0.166993
 Sum of electronic and zero-point Energies=           -799.482736
 Sum of electronic and thermal Energies=              -799.469080
 Sum of electronic and thermal Enthalpies=            -799.468136
 Sum of electronic and thermal Free Energies=         -799.522343

                     E (Thermal)             CV                S
                      KCal/Mol        Cal/Mol-Kelvin    Cal/Mol-Kelvin
 Total                  138.213             57.193            114.089
 Electronic               0.000              0.000              0.000
 Translational            0.889              2.981             42.304
 Rotational               0.889              2.981             32.820
 Vibrational            136.435             51.231             38.966
 Vibration     1          0.596              1.974              4.539
 Vibration     2          0.599              1.967              4.064
 Vibration     3          0.605              1.945              3.356
 Vibration     4          0.625              1.880              2.440
 Vibration     5          0.639              1.836              2.107
 Vibration     6          0.649              1.806              1.935
 Vibration     7          0.649              1.803              1.921
 Vibration     8          0.678              1.717              1.557
 Vibration     9          0.703              1.644              1.332
 Vibration    10          0.735              1.553              1.118
 Vibration    11          0.759              1.488              0.995
 Vibration    12          0.763              1.478              0.976
 Vibration    13          0.765              1.473              0.968
 Vibration    14          0.785              1.421              0.883
 Vibration    15          0.787              1.416              0.875
 Vibration    16          0.811              1.356              0.789
 Vibration    17          0.813              1.351              0.782
 Vibration    18          0.847              1.270              0.681
 Vibration    19          0.869              1.219              0.625
 Vibration    20          0.884              1.185              0.588
 Vibration    21          0.891              1.170              0.573
 Vibration    22          0.938              1.072              0.483
 Vibration    23          0.943              1.062              0.475
 Vibration    24          0.956              1.035              0.452

 Optimization completed.
    -- Stationary point found.
 Normal termination of Gaussian 16 at Thu Dec 21 11:36:48 2023.
