 Gaussian 16, Revision A.03,
 Gaussian 16:  ES64L-G16RevA.03 25-Dec-2016

 ----------------------------------------------------------------------
 #P UB3LYP/6-311++G(d,p) nosym opt freq SCRF=(PCM,Solvent=n,n-DiMethylF
 ormamide)
 ----------------------------------------------------------------------

 --------
 Oxidized
 --------
 Symbolic Z-matrix:
 Charge =  0 Multiplicity = 1

 SCF Done:  E(UB3LYP) =  -916.904952095     A.U. after   15 cycles
 SCF Done:  E(UB3LYP) =  -916.905166472     A.U. after   12 cycles
 SCF Done:  E(UB3LYP) =  -916.904988297     A.U. after   12 cycles
 SCF Done:  E(UB3LYP) =  -916.905248701     A.U. after   12 cycles
 SCF Done:  E(UB3LYP) =  -916.905277695     A.U. after   11 cycles
 SCF Done:  E(UB3LYP) =  -916.905289181     A.U. after   11 cycles
 SCF Done:  E(UB3LYP) =  -916.905297614     A.U. after   12 cycles
 SCF Done:  E(UB3LYP) =  -916.905303121     A.U. after   10 cycles
 SCF Done:  E(UB3LYP) =  -916.905306665     A.U. after   10 cycles
 SCF Done:  E(UB3LYP) =  -916.905308540     A.U. after   11 cycles
 SCF Done:  E(UB3LYP) =  -916.905309245     A.U. after   10 cycles
 SCF Done:  E(UB3LYP) =  -916.905309451     A.U. after    9 cycles
 SCF Done:  E(UB3LYP) =  -916.905309585     A.U. after    8 cycles
 SCF Done:  E(UB3LYP) =  -916.905309733     A.U. after    8 cycles
 SCF Done:  E(UB3LYP) =  -916.905309855     A.U. after    8 cycles
 SCF Done:  E(UB3LYP) =  -916.905309947     A.U. after    8 cycles
 SCF Done:  E(UB3LYP) =  -916.905310027     A.U. after    8 cycles
 SCF Done:  E(UB3LYP) =  -916.905310077     A.U. after    8 cycles
 SCF Done:  E(UB3LYP) =  -916.905310104     A.U. after    8 cycles
 Optimization completed.
    -- Stationary point found.
 Normal termination of Gaussian 16 at Sat Feb 10 17:36:34 2024.

 ----------------------------------------------------------------------
 #P Geom=AllCheck Guess=TCheck SCRF=Check GenChk UB3LYP/6-311++G(d,p) F
 req
 ----------------------------------------------------------------------

 Structure from the checkpoint file:  "143.chk"
 --------
 Oxidized
 --------
 Charge =  0 Multiplicity = 1

                          Input orientation:
 ---------------------------------------------------------------------
 Center     Atomic      Atomic             Coordinates (Angstroms)
 Number     Number       Type             X           Y           Z
 ---------------------------------------------------------------------
      1          6           0        4.286948    1.530925    0.246202
      2          6           0        3.291240    0.482342    0.635795
      3          8           0        2.957151    0.183067    1.753296
      4          8           0        2.786980   -0.138287   -0.478400
      5          6           0        1.761440   -1.062825   -0.328511
      6          6           0        2.119587   -2.402444   -0.424019
      7          6           0        1.143397   -3.391184   -0.363558
      8          6           0       -0.191531   -3.034587   -0.215015
      9          6           0       -0.557289   -1.690980   -0.130444
     10          6           0       -2.012478   -1.374353    0.001470
     11          8           0       -2.842392   -2.269591    0.088963
     12          6           0       -2.414746    0.053843    0.008556
     13          6           0       -3.772004    0.386312    0.072443
     14          6           0       -4.166084    1.719266    0.076671
     15          6           0       -3.204743    2.732272    0.021244
     16          6           0       -1.853433    2.409797   -0.036559
     17          6           0       -1.447126    1.071451   -0.046263
     18          6           0        0.012585    0.764585   -0.096101
     19          8           0        0.831022    1.673535   -0.065289
     20          6           0        0.419207   -0.669152   -0.181950
     21          1           0        4.996623    1.133507   -0.480997
     22          1           0        4.810243    1.888554    1.130130
     23          1           0        3.753535    2.359817   -0.225563
     24          1           0        3.165939   -2.652752   -0.547766
     25          1           0        1.426423   -4.434258   -0.434828
     26          1           0       -0.966927   -3.787619   -0.169580
     27          1           0       -4.503856   -0.410072    0.116902
     28          1           0       -5.218712    1.972040    0.123309
     29          1           0       -3.511551    3.771536    0.024765
     30          1           0       -1.099449    3.185252   -0.074898
 ---------------------------------------------------------------------

 SCF Done:  E(UB3LYP) =  -916.905310104     A.U. after    1 cycles

 Alpha  occ. eigenvalues --  -19.19085 -19.13489 -19.13477 -19.13336 -10.32631
 Alpha  occ. eigenvalues --  -10.29109 -10.28751 -10.27156 -10.22266 -10.21834
 Alpha  occ. eigenvalues --  -10.21255 -10.21148 -10.20703 -10.20588 -10.20240
 Alpha  occ. eigenvalues --  -10.20124 -10.20087 -10.20038 -10.20004 -10.18490
 Alpha  occ. eigenvalues --   -1.13455  -1.06983  -1.06763  -1.04979  -0.90093
 Alpha  occ. eigenvalues --   -0.88762  -0.82004  -0.80005  -0.78147  -0.77793
 Alpha  occ. eigenvalues --   -0.75641  -0.69860  -0.67864  -0.65678  -0.64685
 Alpha  occ. eigenvalues --   -0.60731  -0.57660  -0.56896  -0.55278  -0.51515
 Alpha  occ. eigenvalues --   -0.50987  -0.50635  -0.50331  -0.49226  -0.48812
 Alpha  occ. eigenvalues --   -0.47560  -0.46072  -0.45958  -0.45409  -0.45164
 Alpha  occ. eigenvalues --   -0.44373  -0.42850  -0.42162  -0.41899  -0.40916
 Alpha  occ. eigenvalues --   -0.39643  -0.39354  -0.38862  -0.38236  -0.37262
 Alpha  occ. eigenvalues --   -0.37109  -0.34181  -0.30506  -0.29601  -0.29182
 Alpha  occ. eigenvalues --   -0.28217  -0.28191  -0.27952  -0.27590
 Alpha virt. eigenvalues --   -0.12361  -0.07908  -0.04294  -0.03167  -0.01589
 Alpha virt. eigenvalues --   -0.00739   0.00063   0.00389   0.01643   0.01899
 Alpha virt. eigenvalues --    0.02763   0.02801   0.03150   0.03311   0.03874

  Beta  occ. eigenvalues --  -19.19085 -19.13489 -19.13477 -19.13336 -10.32631
  Beta  occ. eigenvalues --  -10.29109 -10.28751 -10.27156 -10.22266 -10.21834
  Beta  occ. eigenvalues --  -10.21255 -10.21148 -10.20703 -10.20588 -10.20240
  Beta  occ. eigenvalues --  -10.20124 -10.20087 -10.20038 -10.20004 -10.18490
  Beta  occ. eigenvalues --   -1.13455  -1.06983  -1.06763  -1.04979  -0.90093
  Beta  occ. eigenvalues --   -0.88762  -0.82004  -0.80005  -0.78147  -0.77793
  Beta  occ. eigenvalues --   -0.75641  -0.69860  -0.67864  -0.65678  -0.64685
  Beta  occ. eigenvalues --   -0.60731  -0.57660  -0.56896  -0.55278  -0.51515
  Beta  occ. eigenvalues --   -0.50987  -0.50635  -0.50331  -0.49226  -0.48812
  Beta  occ. eigenvalues --   -0.47560  -0.46072  -0.45958  -0.45409  -0.45164
  Beta  occ. eigenvalues --   -0.44373  -0.42850  -0.42162  -0.41899  -0.40916
  Beta  occ. eigenvalues --   -0.39643  -0.39354  -0.38862  -0.38236  -0.37262
  Beta  occ. eigenvalues --   -0.37109  -0.34181  -0.30506  -0.29601  -0.29182
  Beta  occ. eigenvalues --   -0.28217  -0.28191  -0.27952  -0.27590
  Beta virt. eigenvalues --   -0.12361  -0.07908  -0.04294  -0.03167  -0.01589
  Beta virt. eigenvalues --   -0.00739   0.00063   0.00389   0.01643   0.01899
  Beta virt. eigenvalues --    0.02763   0.02801   0.03150   0.03311   0.03874

 Mulliken charges and spin densities:
               1          2
     1  C   -0.485763  -0.000000
     2  C    0.033884   0.000000
     3  O   -0.273836  -0.000000
     4  O    0.016686   0.000000
     5  C    0.028890  -0.000000
     6  C    0.198922  -0.000000
     7  C   -0.447131   0.000000
     8  C    0.043366  -0.000000
     9  C    0.565975  -0.000000
    10  C   -0.589422  -0.000000
    11  O   -0.268168  -0.000000
    12  C   -0.081925  -0.000000
    13  C    0.058306  -0.000000
    14  C   -0.443683   0.000000
    15  C   -0.381379  -0.000000
    16  C    0.150868   0.000000
    17  C   -0.017957   0.000000
    18  C   -0.349577  -0.000000
    19  O   -0.253446  -0.000000
    20  C    0.512218   0.000000
    21  H    0.186634  -0.000000
    22  H    0.176663   0.000000
    23  H    0.196028  -0.000000
    24  H    0.221673   0.000000
    25  H    0.225586   0.000000
    26  H    0.188932   0.000000
    27  H    0.185558   0.000000
    28  H    0.207637   0.000000
    29  H    0.211569   0.000000
    30  H    0.182892   0.000000
 Sum of Mulliken charges =  -0.00000  -0.00000

 Dipole moment (field-independent basis, Debye):
    X=              0.2060    Y=              0.7308    Z=             -2.6618  Tot=              2.7680
 Quadrupole moment (field-independent basis, Debye-Ang):
   XX=            -95.5302   YY=            -99.5960   ZZ=           -123.3174
   XY=            -17.4303   XZ=             -6.5110   YZ=              2.2668

  Exact polarizability: 347.678 -16.972 339.738  -9.800   7.034 148.640
 Approx polarizability: 396.485   6.470 400.900 -16.872   3.679 180.256

                      1                      2                      3
                      A                      A                      A
 Frequencies --     24.6533                41.8304                63.6705
 Red. masses --      7.7620                 6.7172                 3.3462
 Frc consts  --      0.0028                 0.0069                 0.0080
 IR Inten    --      7.8533                 2.3379                 3.3199

                      4                      5                      6
                      A                      A                      A
 Frequencies --     69.8170                91.5923               109.0283
 Red. masses --      1.6677                 2.0795                 4.7989
 Frc consts  --      0.0048                 0.0103                 0.0336
 IR Inten    --      3.8478                 3.6669                 0.7357

                      7                      8                      9
                      A                      A                      A
 Frequencies --    122.6862               156.2158               210.5476
 Red. masses --      7.1665                 6.9436                 4.8575
 Frc consts  --      0.0636                 0.0998                 0.1269
 IR Inten    --      4.2486                 1.8104                 0.1415

                     10                     11                     12
                      A                      A                      A
 Frequencies --    217.0240               275.5879               294.9972
 Red. masses --      6.0199                 6.3542                 4.9481
 Frc consts  --      0.1671                 0.2843                 0.2537
 IR Inten    --      2.9632                 0.9017                 5.2599

                     13                     14                     15
                      A                      A                      A
 Frequencies --    316.9329               347.0376               399.8660
 Red. masses --      5.6626                 6.5351                11.1593
 Frc consts  --      0.3351                 0.4637                 1.0513
 IR Inten    --      1.6230                 0.2368                40.5961

                     16                     17                     18
                      A                      A                      A
 Frequencies --    411.2312               424.0915               431.5525
 Red. masses --      6.3957                 3.5170                 5.0440
 Frc consts  --      0.6373                 0.3727                 0.5535
 IR Inten    --      6.8470                 1.0990                 0.1404

                     19                     20                     21
                      A                      A                      A
 Frequencies --    459.2800               484.6507               490.0538
 Red. masses --      7.4376                 9.4610                 3.8336
 Frc consts  --      0.9244                 1.3093                 0.5424
 IR Inten    --      4.1147                 0.8223                 0.9747

                     22                     23                     24
                      A                      A                      A
 Frequencies --    534.1987               551.8596               587.8034
 Red. masses --      5.3427                 4.8766                 3.0408
 Frc consts  --      0.8983                 0.8750                 0.6190
 IR Inten    --     10.6693                19.2830                17.0043

                     25                     26                     27
                      A                      A                      A
 Frequencies --    625.5885               654.6668               663.6934
 Red. masses --      6.3123                 5.7988                 5.5968
 Frc consts  --      1.4555                 1.4643                 1.4525
 IR Inten    --      1.0612                 8.5961                13.5254

                     28                     29                     30
                      A                      A                      A
 Frequencies --    695.3088               704.2462               719.7586
 Red. masses --      5.5592                 5.8079                 2.7457
 Frc consts  --      1.5835                 1.6971                 0.8381
 IR Inten    --     13.1307                15.8518                92.5363

                     31                     32                     33
                      A                      A                      A
 Frequencies --    745.6505               785.9419               795.3978
 Red. masses --      2.6836                 2.2415                 3.8016
 Frc consts  --      0.8791                 0.8158                 1.4170
 IR Inten    --     27.3136                 6.0059                 5.7252

                     34                     35                     36
                      A                      A                      A
 Frequencies --    815.8344               830.0624               869.6729
 Red. masses --      2.9949                 2.5111                 4.3926
 Frc consts  --      1.1745                 1.0194                 1.9574
 IR Inten    --     19.7646                16.0827                78.9177

                     37                     38                     39
                      A                      A                      A
 Frequencies --    912.3383               915.8899               929.7148
 Red. masses --      2.7095                 1.9178                 6.4450
 Frc consts  --      1.3288                 0.9478                 3.2823
 IR Inten    --    118.7123                57.7992                 5.9584

                     40                     41                     42
                      A                      A                      A
 Frequencies --    958.6335              1002.2152              1003.3818
 Red. masses --      1.5388                 2.2310                 1.5654
 Frc consts  --      0.8332                 1.3203                 0.9286
 IR Inten    --     14.7449                47.4548                20.0847

                     43                     44                     45
                      A                      A                      A
 Frequencies --   1016.3148              1024.0781              1035.1850
 Red. masses --      1.3397                 1.3324                 3.0955
 Frc consts  --      0.8153                 0.8233                 1.9544
 IR Inten    --      1.0575                 0.0111               163.4133

                     46                     47                     48
                      A                      A                      A
 Frequencies --   1058.4404              1060.3785              1094.3377
 Red. masses --      1.8292                 2.0166                 1.9635
 Frc consts  --      1.2074                 1.3359                 1.3855
 IR Inten    --     15.2204                15.7081                 2.8650

                     49                     50                     51
                      A                      A                      A
 Frequencies --   1113.0554              1174.0165              1181.7236
 Red. masses --      2.3150                 1.5520                 1.5395
 Frc consts  --      1.6898                 1.2603                 1.2667
 IR Inten    --      0.2149                40.1133                42.3676

                     52                     53                     54
                      A                      A                      A
 Frequencies --   1184.3334              1188.6111              1206.7558
 Red. masses --      1.2402                 3.6842                 2.1126
 Frc consts  --      1.0249                 3.0667                 1.8126
 IR Inten    --     57.3528               876.7927                 9.6835

                     55                     56                     57
                      A                      A                      A
 Frequencies --   1250.0525              1261.9868              1285.6105
 Red. masses --      3.4774                 1.9736                 3.9339
 Frc consts  --      3.2015                 1.8519                 3.8308
 IR Inten    --     39.8377                76.0322               904.2087

                     58                     59                     60
                      A                      A                      A
 Frequencies --   1321.8764              1347.6227              1361.2782
 Red. masses --      2.7598                 8.8106                 8.2742
 Frc consts  --      2.8413                 9.4274                 9.0338
 IR Inten    --    116.2139               168.5463                 0.9779

                     61                     62                     63
                      A                      A                      A
 Frequencies --   1392.1828              1458.7906              1461.8151
 Red. masses --      1.2982                 1.0550                 3.5865
 Frc consts  --      1.4825                 1.3228                 4.5155
 IR Inten    --     75.5583                28.0451                64.0094

                     64                     65                     66
                      A                      A                      A
 Frequencies --   1463.6842              1477.8742              1487.0660
 Red. masses --      1.0608                 2.3263                 2.5860
 Frc consts  --      1.3389                 2.9935                 3.3693
 IR Inten    --     19.8701                 2.0750                 8.7487

                     67                     68                     69
                      A                      A                      A
 Frequencies --   1506.5278              1601.4064              1613.4853
 Red. masses --      2.6135                 6.4822                 6.8013
 Frc consts  --      3.4948                 9.7943                10.4322
 IR Inten    --      5.5699                18.3124               105.1168

                     70                     71                     72
                      A                      A                      A
 Frequencies --   1617.6665              1625.0535              1696.0564
 Red. masses --      6.4862                 5.9975                12.2360
 Frc consts  --     10.0005                 9.3316                20.7382
 IR Inten    --    366.9021                 3.5081                19.3729

                     73                     74                     75
                      A                      A                      A
 Frequencies --   1703.3971              1784.8609              3054.8957
 Red. masses --     11.8522                11.5582                 1.0366
 Frc consts  --     20.2620                21.6945                 5.6998
 IR Inten    --    769.0551               461.3676                 0.5405

                     76                     77                     78
                      A                      A                      A
 Frequencies --   3119.1728              3159.6008              3180.0026
 Red. masses --      1.0994                 1.1041                 1.0876
 Frc consts  --      6.3020                 6.4939                 6.4798
 IR Inten    --      3.6762                 9.5360                 3.1830

                     79                     80                     81
                      A                      A                      A
 Frequencies --   3189.5639              3192.3194              3203.0678
 Red. masses --      1.0884                 1.0916                 1.0936
 Frc consts  --      6.5240                 6.5544                 6.6104
 IR Inten    --      4.6193                10.5370                 2.7117

                     82                     83                     84
                      A                      A                      A
 Frequencies --   3205.1979              3208.4260              3212.7547
 Red. masses --      1.0928                 1.0950                 1.0947
 Frc consts  --      6.6148                 6.6409                 6.6574
 IR Inten    --      4.0810                17.8966                 6.8163

 - Thermochemistry -
 -------------------
 Temperature   298.150 Kelvin.  Pressure   1.00000 Atm.
 Atom     1 has atomic number  6 and mass  12.00000

 Molecular mass:   266.05791 amu.
 Principal axes and moments of inertia in atomic units:
                           1         2         3
     Eigenvalues --  3156.154446352.307679089.73912
           X            0.98482   0.16696  -0.04759
           Y           -0.17051   0.98175  -0.08422
           Z            0.03266   0.09106   0.99531
 This molecule is an asymmetric top.
 Rotational symmetry number  1.
 Warning -- assumption of classical behavior for rotation
           may cause significant error
 Rotational temperatures (Kelvin)      0.02744     0.01364     0.00953
 Rotational constants (GHZ):           0.57182     0.28411     0.19855
 Zero-point vibrational energy     577346.1 (Joules/Mol)
                                  137.98903 (Kcal/Mol)
 Warning -- explicit consideration of  24 degrees of freedom as
           vibrations may cause significant error
 Vibrational temperatures:     35.47    60.18    91.61   100.45   131.78
          (Kelvin)            156.87   176.52   224.76   302.93   312.25
                              396.51   424.44   456.00   499.31   575.32
                              591.67   610.17   620.91   660.80   697.30
                              705.08   768.59   794.00   845.72   900.08
                              941.92   954.91  1000.39  1013.25  1035.57
                             1072.82  1130.80  1144.40  1173.80  1194.27
                             1251.27  1312.65  1317.76  1337.65  1379.26
                             1441.96  1443.64  1462.25  1473.42  1489.40
                             1522.86  1525.65  1574.51  1601.44  1689.15
                             1700.24  1703.99  1710.15  1736.25  1798.55
                             1815.72  1849.71  1901.89  1938.93  1958.58
                             2003.04  2098.87  2103.23  2105.92  2126.33
                             2139.56  2167.56  2304.07  2321.45  2327.46
                             2338.09  2440.25  2450.81  2568.02  4395.31
                             4487.79  4545.96  4575.31  4589.07  4593.04
                             4608.50  4611.56  4616.21  4622.44

 Zero-point correction=                           0.219900 (Hartree/Particle)
 Thermal correction to Energy=                    0.235929
 Thermal correction to Enthalpy=                  0.236873
 Thermal correction to Gibbs Free Energy=         0.174861
 Sum of electronic and zero-point Energies=           -916.685411
 Sum of electronic and thermal Energies=              -916.669381
 Sum of electronic and thermal Enthalpies=            -916.668437
 Sum of electronic and thermal Free Energies=         -916.730449

                     E (Thermal)             CV                S
                      KCal/Mol        Cal/Mol-Kelvin    Cal/Mol-Kelvin
 Total                  148.048             61.633            130.515
 Electronic               0.000              0.000              0.000
 Translational            0.889              2.981             42.635
 Rotational               0.889              2.981             33.566
 Vibrational            146.270             55.671             54.314
 Vibration     1          0.593              1.985              6.219
 Vibration     2          0.594              1.980              5.170
 Vibration     3          0.597              1.972              4.340
 Vibration     4          0.598              1.969              4.159
 Vibration     5          0.602              1.955              3.626
 Vibration     6          0.606              1.942              3.286
 Vibration     7          0.610              1.930              3.058
 Vibration     8          0.620              1.896              2.595
 Vibration     9          0.643              1.825              2.039
 Vibration    10          0.646              1.815              1.984
 Vibration    11          0.677              1.719              1.561
 Vibration    12          0.689              1.683              1.445
 Vibration    13          0.704              1.641              1.326
 Vibration    14          0.725              1.581              1.180
 Vibration    15          0.766              1.470              0.963
 Vibration    16          0.775              1.446              0.922
 Vibration    17          0.786              1.418              0.878
 Vibration    18          0.793              1.402              0.854
 Vibration    19          0.817              1.340              0.768
 Vibration    20          0.841              1.284              0.698
 Vibration    21          0.846              1.272              0.683
 Vibration    22          0.889              1.174              0.578
 Vibration    23          0.907              1.136              0.540
 Vibration    24          0.945              1.058              0.471

 Optimization completed.
    -- Stationary point found.
 Normal termination of Gaussian 16 at Sat Feb 10 18:45:53 2024.
