 Q-Chem 5.4, Q-Chem, Inc., Pleasanton, CA (2021)
 Q-Chem 5.4.0 for Intel X86 EM64T Linux

User input:
--------------------------------------------------------------
$molecule
-2 1
N                 -2.9167040000      1.8999430000      0.0681160000
C                 -2.5288940000      0.5468280000      0.0463240000
C                 -3.4930000000     -0.4530720000      0.0366780000
C                 -3.1185180000     -1.8199470000     -0.0619520000
C                 -1.7913910000     -2.1641370000     -0.1597290000
C                 -0.7610120000     -1.1820960000     -0.1351620000
C                  0.6100140000     -1.6396550000     -0.2122050000
O                  0.9227300000     -2.8835540000     -0.3366010000
C                  1.6030100000     -0.5950680000     -0.1277720000
C                  2.9799420000     -0.9331800000     -0.1861560000
C                  3.9794230000      0.0135690000     -0.0976430000
C                  3.6310120000      1.3878230000      0.0598440000
C                  2.3024850000      1.7516260000      0.1225790000
C                  1.2477570000      0.8025890000      0.0319210000
C                 -0.1150400000      1.2543610000      0.1033760000
O                 -0.3912080000      2.5245260000      0.2755040000
C                 -1.1203770000      0.2242520000     -0.0094000000
H                 -3.7113160000      2.0722520000      0.6699270000
H                 -2.0759490000      2.4834930000      0.2579690000
H                 -4.5444910000     -0.1679740000      0.0547070000
H                 -3.8909090000     -2.5884800000     -0.0723900000
H                 -1.4700810000     -3.1962150000     -0.2495980000
H                  3.2081840000     -1.9885580000     -0.3034290000
H                  5.0262690000     -0.2832790000     -0.1473560000
H                  4.4113190000      2.1447360000      0.1296250000
H                  2.0067450000      2.7892180000      0.2428240000
$end
$rem
MAX_SCF_CYCLES=200
BASIS  =  6-311++G(d,p)
GUI  =  2
JOB_TYPE  =  SP
METHOD  =  B3LYP
SOLVENT_METHOD = COSMO
$end
$solvent
dielectric 37.219
opticaldielectric 1.43
$end

--------------------------------------------------------------

             Standard Nuclear Orientation (Angstroms)
    I     Atom           X                Y                Z
 ----------------------------------------------------------------
    1      N       2.7402391459    -2.2212672503    -0.1497602083
    2      C       2.4875935481    -0.8410142064    -0.0363431573
    3      C       3.5454736214     0.0568187209     0.0283037277
    4      C       3.3065916506     1.4567496723     0.0662595705
    5      C       2.0188881763     1.9360018394     0.0284403335
    6      C       0.8969906351     1.0608742438    -0.0183201777
    7      C      -0.4229795792     1.6547219622    -0.0239482945
    8      O      -0.6128199189     2.9292849330    -0.0244607493
    9      C      -1.5131823362     0.7082803700    -0.0177637086
   10      C      -2.8506055082     1.1825862058    -0.0159247305
   11      C      -3.9375635940     0.3333103493     0.0036489473
   12      C      -3.7246960931    -1.0770211423     0.0241171513
   13      C      -2.4379248353    -1.5724915074     0.0251848909
   14      C      -1.2957908792    -0.7261113162     0.0025607327
   15      C       0.0164996533    -1.3128926834     0.0033390328
   16      O       0.1679130568    -2.6144863264     0.0496414016
   17      C       1.1172383604    -0.3792851197    -0.0326703729
   18      H       3.5206306347    -2.5266626241     0.4168065500
   19      H       1.8481831168    -2.7358337008     0.0015710277
   20      H       4.5638441840    -0.3294953889    -0.0020614375
   21      H       4.1508696534     2.1440742582     0.1122959506
   22      H       1.7999838078     2.9982555707     0.0425626214
   23      H      -2.9749083312     2.2614992158    -0.0287938833
   24      H      -4.9505058884     0.7338406813     0.0034863004
   25      H      -4.5750435084    -1.7577346564     0.0384026998
   26      H      -2.2446697133    -2.6406257868     0.0413027383
 ----------------------------------------------------------------

   11    -744.3064104863      8.48e-06  Convergence criterion met
 Total energy in the final basis set =     -744.3064104863
    6    -744.5819470309      2.72e-06  Convergence criterion met
 Total energy in the final basis set =     -744.5819470309

                    Orbital Energies (a.u.)
 --------------------------------------------------------------

 Alpha MOs
 -- Occupied --
-19.0330 -19.0267 -14.2788 -10.1904 -10.1835 -10.1781 -10.1514 -10.1509
-10.1486 -10.1485 -10.1482 -10.1463 -10.1408 -10.1398 -10.1397 -10.1377
-10.1358  -0.9492  -0.9431  -0.8822  -0.8279  -0.8072  -0.7541  -0.7261
 -0.7077  -0.7023  -0.6399  -0.6083  -0.5944  -0.5542  -0.5289  -0.5166
 -0.4979  -0.4689  -0.4463  -0.4435  -0.4327  -0.4178  -0.4083  -0.3996
 -0.3876  -0.3783  -0.3736  -0.3640  -0.3529  -0.3504  -0.3343  -0.3280
 -0.3178  -0.3115  -0.3052  -0.2833  -0.2334  -0.2324  -0.2186  -0.2140
 -0.2046  -0.1920  -0.1127

          Ground-State Mulliken Net Atomic Charges

     Atom                 Charge (a.u.)
  ----------------------------------------
      1 N                    -0.497548
      2 C                     0.116325
      3 C                    -0.346191
      4 C                    -0.491353
      5 C                    -0.138448
      6 C                     0.430871
      7 C                    -0.378300
      8 O                    -0.701792
      9 C                     0.028653
     10 C                     0.006555
     11 C                    -0.496026
     12 C                    -0.535105
     13 C                     0.056623
     14 C                     0.055625
     15 C                    -0.346982
     16 O                    -0.673769
     17 C                     0.163082
     18 H                     0.263691
     19 H                     0.318607
     20 H                     0.164317
     21 H                     0.179533
     22 H                     0.147341
     23 H                     0.154283
     24 H                     0.179074
     25 H                     0.178750
     26 H                     0.162185
  ----------------------------------------
  Sum of atomic charges =    -2.000000

                    Cartesian Multipole Moments
 -----------------------------------------------------------------
    Charge (ESU x 10^10)
                -9.6064
    Dipole Moment (Debye)
         X       1.2500      Y      -2.9643      Z       1.3157
       Tot       3.4757
    Quadrupole Moments (Debye-Ang)
        XX    -123.1979     XY       4.4146     YY    -159.8082
        XZ       4.5173     YZ      -2.9922     ZZ    -113.0793

 Total job time:  66.56s(wall), 501.03s(cpu)
        *  Thank you very much for using Q-Chem.  Have a nice day.  *
