 Q-Chem 5.4, Q-Chem, Inc., Pleasanton, CA (2021)
 Q-Chem 5.4.0 for Intel X86 EM64T Linux

User input:
--------------------------------------------------------------
$molecule
0 1
C                  4.8787200000     -2.8508180000     -0.3596580000
C                  5.6055120000     -1.9535660000     -1.1301920000
C                  5.0179820000     -0.7556970000     -1.5505090000
C                  3.5570810000     -2.5573140000     -0.0027080000
C                  2.9655460000     -1.3554270000     -0.4235680000
C                  3.7071900000     -0.4581660000     -1.1999300000
C                  2.7915230000     -3.5177680000      0.8170790000
C                  1.4113710000     -3.1863680000      1.1762920000
C                  0.7998780000     -1.9631100000      0.7518940000
C                  1.5618680000     -1.0098730000     -0.0625140000
C                  0.6876230000     -4.1030390000      1.9558830000
C                 -0.6436680000     -3.8078980000      2.3157550000
C                 -0.5409700000     -1.6658160000      1.1145280000
C                 -1.2256790000     -2.6386660000      1.9092070000
O                  3.3176330000     -4.5821070000      1.1887400000
O                  1.0860080000      0.0621390000     -0.4583890000
O                  1.1881130000     -5.2652640000      2.3904950000
Br                -3.0382530000     -2.3001540000      2.4335840000
N                 -1.1606780000     -0.5249640000      0.7384050000
H                  5.3110430000     -3.7843010000     -0.0222350000
H                  6.6286880000     -2.1818080000     -1.4059960000
H                  5.5871320000     -0.0561470000     -2.1522380000
H                  3.2348950000      0.4633910000     -1.5152350000
H                 -1.1845790000     -4.5267860000      2.9166750000
H                  2.1202180000     -5.3142020000      2.0529750000
H                 -0.6335230000      0.1333970000      0.1758970000
H                 -2.1120040000     -0.3536390000      1.0171830000
$end
$rem
MAX_SCF_CYCLES=200
BASIS  =  6-311++G(d,p)
GUI  =  2
JOB_TYPE  =  SP
METHOD  =  B3LYP
SOLVENT_METHOD = COSMO
$end
$solvent
dielectric 37.219
opticaldielectric 1.43
$end

--------------------------------------------------------------

             Standard Nuclear Orientation (Angstroms)
    I     Atom           X                Y                Z
 ----------------------------------------------------------------
    1      C       4.1799758315    -0.8898893381     0.0001930923
    2      C       5.2092341870     0.0415813403     0.0000484829
    3      C       4.9155396007     1.4092404550    -0.0001936251
    4      C       2.8471915224    -0.4609679870     0.0001109586
    5      C       2.5503054100     0.9114123391    -0.0000718052
    6      C       3.5954757629     1.8417187331    -0.0002350466
    7      C       1.7588056153    -1.4589748907     0.0001254667
    8      C       0.3739983053    -0.9835927468     0.0000078200
    9      C       0.0616250469     0.4138407696     0.0000367525
   10      C       1.1441429744     1.4041462090     0.0000823815
   11      C      -0.6573236161    -1.9366059173    -0.0000831032
   12      C      -1.9999990276    -1.5051264509    -0.0001321137
   13      C      -1.2907571707     0.8483782522     0.0001513063
   14      C      -2.2959550508    -0.1696371867    -0.0000438974
   15      O       2.0242056455    -2.6744188262     0.0001651814
   16      O       0.9348565523     2.6242152729    -0.0003128613
   17      O      -0.4466931006    -3.2578854345    -0.0001515346
   18      Br     -4.1417773444     0.3479786731    -0.0000533370
   19      N      -1.6351371872     2.1554559411     0.0005004838
   20      H       4.3815520254    -1.9536162743     0.0003019881
   21      H       6.2407596179    -0.2915952897     0.0000987582
   22      H       5.7206862201     2.1352698091    -0.0003056286
   23      H       3.3477522854     2.8954645218    -0.0003108192
   24      H      -2.7802198087    -2.2546229711    -0.0002404511
   25      H       0.5375320543    -3.3860854876    -0.0001553398
   26      H      -0.8866682506     2.8392256509     0.0007925986
   27      H      -2.6057359063     2.4200853129     0.0005959989
 ----------------------------------------------------------------

    9   -3393.1352818136      6.72e-06  Convergence criterion met
 Total energy in the final basis set =    -3393.1352818136
    5   -3393.1496450211      2.70e-06  Convergence criterion met
 Total energy in the final basis set =    -3393.1496450211

                    Orbital Energies (a.u.)
 --------------------------------------------------------------

 Alpha MOs
 -- Occupied --
******** -62.5045 -56.3250 -56.3211 -56.3209 -19.1646 -19.1366 -19.1256
-14.3393 -10.2860 -10.2794 -10.2683 -10.2610 -10.2598 -10.2100 -10.2095
-10.2093 -10.2068 -10.2062 -10.1956 -10.1955 -10.1944 -10.1937  -8.7132
 -6.5447  -6.5317  -6.5315  -2.6557  -2.6518  -2.6517  -2.6414  -2.6414
 -1.0937  -1.0602  -1.0588  -0.9565  -0.8913  -0.8769  -0.8408  -0.7990
 -0.7779  -0.7678  -0.7540  -0.6944  -0.6680  -0.6562  -0.6284  -0.5998
 -0.5822  -0.5599  -0.5482  -0.5384  -0.5117  -0.4936  -0.4850  -0.4811
 -0.4679  -0.4614  -0.4537  -0.4497  -0.4431  -0.4399  -0.4303  -0.4259
 -0.4053  -0.3958  -0.3911  -0.3799  -0.3769  -0.3661  -0.3377  -0.3165
 -0.3154  -0.2937  -0.2850  -0.2778  -0.2773  -0.2727  -0.2208

          Ground-State Mulliken Net Atomic Charges

     Atom                 Charge (a.u.)
  ----------------------------------------
      1 C                     0.085312
      2 C                    -0.495881
      3 C                    -0.552185
      4 C                     0.139253
      5 C                    -0.032360
      6 C                     0.161602
      7 C                    -0.279716
      8 C                     0.684873
      9 C                     0.515461
     10 C                    -0.162300
     11 C                    -0.325747
     12 C                     0.008812
     13 C                    -0.593741
     14 C                     0.268148
     15 O                    -0.356789
     16 O                    -0.347436
     17 O                    -0.345530
     18 Br                   -0.174865
     19 N                    -0.357090
     20 H                     0.206214
     21 H                     0.223678
     22 H                     0.225114
     23 H                     0.202927
     24 H                     0.273421
     25 H                     0.368404
     26 H                     0.364944
     27 H                     0.295476
  ----------------------------------------
  Sum of atomic charges =     0.000000

                    Cartesian Multipole Moments
 -----------------------------------------------------------------
    Charge (ESU x 10^10)
                -0.0000
    Dipole Moment (Debye)
         X       0.5644      Y       2.3998      Z       0.0014
       Tot       2.4653
    Quadrupole Moments (Debye-Ang)
        XX     -92.4990     XY       0.3705     YY    -130.6406
        XZ      -0.0022     YZ       0.0055     ZZ    -124.6939

 Total job time:  67.84s(wall), 508.21s(cpu)
        *  Thank you very much for using Q-Chem.  Have a nice day.  *
