 Gaussian 16, Revision A.03,
 Gaussian 16:  ES64L-G16RevA.03 25-Dec-2016

 ----------------------------------------------------------------------
 #P UB3LYP/6-311++G(d,p) nosym opt freq SCRF=(PCM,Solvent=n,n-DiMethylF
 ormamide)
 ----------------------------------------------------------------------

 -------
 Radical
 -------
 Symbolic Z-matrix:
 Charge = -1 Multiplicity = 2

 SCF Done:  E(UB3LYP) =  -5686.10277623     A.U. after   18 cycles
 SCF Done:  E(UB3LYP) =  -5686.10291063     A.U. after   14 cycles
 SCF Done:  E(UB3LYP) =  -5686.10292574     A.U. after   13 cycles
 SCF Done:  E(UB3LYP) =  -5686.10293702     A.U. after   14 cycles
 SCF Done:  E(UB3LYP) =  -5686.10301918     A.U. after   13 cycles
 SCF Done:  E(UB3LYP) =  -5686.10302011     A.U. after   10 cycles
 SCF Done:  E(UB3LYP) =  -5686.10302021     A.U. after    9 cycles
 SCF Done:  E(UB3LYP) =  -5686.10302027     A.U. after    8 cycles
 SCF Done:  E(UB3LYP) =  -5686.10302029     A.U. after    8 cycles
 Optimization completed.
    -- Stationary point found.
 Normal termination of Gaussian 16 at Sat Feb 10 10:49:45 2024.

 ----------------------------------------------------------------------
 #P Geom=AllCheck Guess=TCheck SCRF=Check GenChk UB3LYP/6-311++G(d,p) F
 req
 ----------------------------------------------------------------------

 Structure from the checkpoint file:  "015-rad.chk"
 -------
 Radical
 -------
 Charge = -1 Multiplicity = 2

                          Input orientation:
 ---------------------------------------------------------------------
 Center     Atomic      Atomic             Coordinates (Angstroms)
 Number     Number       Type             X           Y           Z
 ---------------------------------------------------------------------
      1          6           0       -1.828322    0.300345   -1.086181
      2          6           0       -1.181302    0.142406    0.311398
      3          6           0       -1.873006   -1.043498    1.011734
      4          6           0       -1.451727    1.407124    1.162749
      5          6           0        0.336336   -0.077353    0.164793
      6          6           0        0.944902   -1.217434    0.614689
      7          6           0        2.357815   -1.507488    0.521657
      8          8           0        2.841452   -2.588120    0.957376
      9          6           0        3.161049   -0.471410   -0.101489
     10          6           0        2.587033    0.685808   -0.567514
     11         35           0        3.630429    2.067081   -1.396175
     12          6           0        1.153903    0.962329   -0.474972
     13          8           0        0.673263    2.034068   -0.923013
     14         35           0        5.041690   -0.824540   -0.224683
     15          1           0       -2.907290    0.452829   -0.980068
     16          1           0       -1.674970   -0.602428   -1.685685
     17          1           0       -1.407073    1.149612   -1.622070
     18          1           0       -1.759308   -1.975614    0.451325
     19          1           0       -2.943436   -0.834886    1.091212
     20          1           0       -1.491406   -1.202161    2.024209
     21          1           0       -1.023915    1.295992    2.164048
     22          1           0       -2.530860    1.554563    1.274056
     23          1           0       -1.024683    2.294872    0.698543
     24          1           0        0.369423   -2.002098    1.088371
 ---------------------------------------------------------------------

 SCF Done:  E(UB3LYP) =  -5686.10302029     A.U. after    1 cycles

 Alpha  occ. eigenvalues -- -482.82949-482.82861 -62.48224 -62.48137 -56.30255
 Alpha  occ. eigenvalues --  -56.30168 -56.29890 -56.29850 -56.29804 -56.29761
 Alpha  occ. eigenvalues --  -19.08634 -19.08537 -10.23808 -10.23587 -10.22973
 Alpha  occ. eigenvalues --  -10.22817 -10.18762 -10.18255 -10.16735 -10.15319
 Alpha  occ. eigenvalues --  -10.14862 -10.14855  -8.69191  -8.69105  -6.52314
 Alpha  occ. eigenvalues --   -6.52228  -6.51094  -6.51011  -6.50979  -6.50887
 Alpha  occ. eigenvalues --   -2.63413  -2.63327  -2.63083  -2.63000  -2.62996
 Alpha  occ. eigenvalues --   -2.62906  -2.62023  -2.62022  -2.61936  -2.61934
 Alpha  occ. eigenvalues --   -1.01387  -1.00933  -0.86145  -0.82897  -0.79254
 Alpha  occ. eigenvalues --   -0.78231  -0.71676  -0.68902  -0.67884  -0.67665
 Alpha  occ. eigenvalues --   -0.60352  -0.57880  -0.53159  -0.49877  -0.47278
 Alpha  occ. eigenvalues --   -0.44853  -0.43837  -0.43073  -0.42679  -0.42618
 Alpha  occ. eigenvalues --   -0.40943  -0.39641  -0.39450  -0.37552  -0.37300
 Alpha  occ. eigenvalues --   -0.37160  -0.35980  -0.33977  -0.33871  -0.32915
 Alpha  occ. eigenvalues --   -0.32370  -0.30452  -0.30402  -0.27985  -0.27717
 Alpha  occ. eigenvalues --   -0.25290  -0.24681  -0.24400  -0.17096
 Alpha virt. eigenvalues --   -0.03438  -0.01930  -0.00337   0.00929   0.01156
 Alpha virt. eigenvalues --    0.01392   0.01723   0.02375   0.03174   0.03839
 Alpha virt. eigenvalues --    0.03972   0.04251   0.04461   0.05081   0.05835

  Beta  occ. eigenvalues -- -482.82947-482.82860 -62.48223 -62.48135 -56.30256
  Beta  occ. eigenvalues --  -56.30169 -56.29884 -56.29849 -56.29798 -56.29760
  Beta  occ. eigenvalues --  -19.07949 -19.07847 -10.23676 -10.23456 -10.22819
  Beta  occ. eigenvalues --  -10.22672 -10.18767 -10.18161 -10.16666 -10.15319
  Beta  occ. eigenvalues --  -10.14856 -10.14849  -8.69189  -8.69102  -6.52317
  Beta  occ. eigenvalues --   -6.52232  -6.51083  -6.50999  -6.50978  -6.50887
  Beta  occ. eigenvalues --   -2.63414  -2.63328  -2.63078  -2.62998  -2.62995
  Beta  occ. eigenvalues --   -2.62909  -2.62017  -2.62016  -2.61929  -2.61928
  Beta  occ. eigenvalues --   -1.00203  -0.99730  -0.85665  -0.82779  -0.79105
  Beta  occ. eigenvalues --   -0.78006  -0.71491  -0.68437  -0.67863  -0.67130
  Beta  occ. eigenvalues --   -0.60000  -0.57490  -0.52951  -0.49666  -0.47011
  Beta  occ. eigenvalues --   -0.44594  -0.43540  -0.42742  -0.42516  -0.41355
  Beta  occ. eigenvalues --   -0.40472  -0.39154  -0.38539  -0.37236  -0.36985
  Beta  occ. eigenvalues --   -0.36373  -0.35343  -0.33848  -0.33367  -0.32326
  Beta  occ. eigenvalues --   -0.32179  -0.30408  -0.29957  -0.27656  -0.25341
  Beta  occ. eigenvalues --   -0.24661  -0.24016  -0.23831
  Beta virt. eigenvalues --   -0.09997  -0.03307  -0.00477  -0.00320   0.01035
  Beta virt. eigenvalues --    0.01178   0.01757   0.01975   0.03184   0.03882
  Beta virt. eigenvalues --    0.03995   0.04037   0.04334   0.04585   0.05107

 Mulliken charges and spin densities:
               1          2
     1  C   -0.683038   0.009726
     2  C    0.611331  -0.026829
     3  C   -0.494630   0.000933
     4  C   -0.683436   0.009554
     5  C    1.294167   0.097737
     6  C   -0.492350   0.036493
     7  C   -0.792939   0.092907
     8  O   -0.427593   0.245202
     9  C    0.752121   0.111559
    10  C   -0.333036   0.087782
    11  Br  -0.121488   0.005708
    12  C   -0.748581   0.077026
    13  O   -0.354010   0.252840
    14  Br  -0.112175   0.006732
    15  H    0.153152   0.000235
    16  H    0.135088   0.000428
    17  H    0.180402  -0.001154
    18  H    0.134402  -0.000240
    19  H    0.172234   0.000085
    20  H    0.135002  -0.000257
    21  H    0.134835   0.000446
    22  H    0.152827   0.000193
    23  H    0.180203  -0.001083
    24  H    0.207512  -0.006022
 Sum of Mulliken charges =  -1.00000   1.00000

 Dipole moment (field-independent basis, Debye):
    X=            -12.7438    Y=              0.7530    Z=              0.8818  Tot=             12.7965
 Quadrupole moment (field-independent basis, Debye-Ang):
   XX=           -152.9031   YY=           -141.8948   ZZ=           -118.4323
   XY=             13.5836   XZ=             -2.3971   YZ=             11.6915

  Exact polarizability: 303.012 -32.604 290.983  -7.255 -58.073 188.534
 Approx polarizability: 308.501 -45.356 337.210   0.816 -70.173 210.043

                      1                      2                      3
                      A                      A                      A
 Frequencies --     43.0653                44.7882                80.5204
 Red. masses --      6.3276                 4.5533                 6.2190
 Frc consts  --      0.0069                 0.0054                 0.0238
 IR Inten    --      8.1981                 0.0750                 0.1741

                      4                      5                      6
                      A                      A                      A
 Frequencies --    132.2271               143.2923               154.4119
 Red. masses --     31.5468                 6.6867                 4.4653
 Frc consts  --      0.3250                 0.0809                 0.0627
 IR Inten    --      0.7252                 4.1275                10.6936

                      7                      8                      9
                      A                      A                      A
 Frequencies --    208.8748               213.1952               225.5598
 Red. masses --      3.2341                 1.8255                 2.8743
 Frc consts  --      0.0831                 0.0489                 0.0862
 IR Inten    --      1.1256                 0.8319                 0.2106

                     10                     11                     12
                      A                      A                      A
 Frequencies --    238.8126               259.1058               277.3464
 Red. masses --      1.4565                 2.7070                11.3015
 Frc consts  --      0.0489                 0.1071                 0.5122
 IR Inten    --      0.2762                 0.3592                 1.0547

                     13                     14                     15
                      A                      A                      A
 Frequencies --    286.9329               303.9981               335.1545
 Red. masses --      3.5854                 3.1042                 1.0459
 Frc consts  --      0.1739                 0.1690                 0.0692
 IR Inten    --      0.0742                 0.9870                 0.1011

                     16                     17                     18
                      A                      A                      A
 Frequencies --    346.0134               375.3767               412.3234
 Red. masses --      5.7463                 2.7427                 2.6469
 Frc consts  --      0.4053                 0.2277                 0.2651
 IR Inten    --     15.0426                 0.2947                 0.6122

                     19                     20                     21
                      A                      A                      A
 Frequencies --    429.8454               478.5924               500.6297
 Red. masses --      5.0815                 6.2200                 5.0917
 Frc consts  --      0.5532                 0.8394                 0.7519
 IR Inten    --      0.0264                 0.2010                44.9672

                     22                     23                     24
                      A                      A                      A
 Frequencies --    540.2447               575.5064               680.3178
 Red. masses --      4.5583                 4.5908                 6.4000
 Frc consts  --      0.7839                 0.8959                 1.7452
 IR Inten    --      0.2546                13.8189                 6.0496

                     25                     26                     27
                      A                      A                      A
 Frequencies --    689.3445               737.6634               765.0713
 Red. masses --      5.8805                 7.0850                 8.2665
 Frc consts  --      1.6464                 2.2715                 2.8509
 IR Inten    --      3.6564                34.3995                10.3945

                     28                     29                     30
                      A                      A                      A
 Frequencies --    825.4609               847.6198               888.8334
 Red. masses --      3.4748                 6.8902                 1.5215
 Frc consts  --      1.3950                 2.9166                 0.7082
 IR Inten    --     74.7932               171.9910                32.0085

                     31                     32                     33
                      A                      A                      A
 Frequencies --    928.6031               930.8017               958.1153
 Red. masses --      1.7598                 1.7470                 1.1982
 Frc consts  --      0.8941                 0.8918                 0.6481
 IR Inten    --      2.3945                 5.5137                 0.2525

                     34                     35                     36
                      A                      A                      A
 Frequencies --    971.0852              1036.6199              1043.8567
 Red. masses --      5.1908                 1.5576                 1.3816
 Frc consts  --      2.8840                 0.9862                 0.8870
 IR Inten    --     13.6346                61.8729                 0.1289

                     37                     38                     39
                      A                      A                      A
 Frequencies --   1085.0497              1143.2209              1214.2711
 Red. masses --      2.9677                 7.7940                 2.7285
 Frc consts  --      2.0586                 6.0017                 2.3703
 IR Inten    --    223.5865                24.2604                 7.7767

                     40                     41                     42
                      A                      A                      A
 Frequencies --   1221.6920              1260.7077              1293.6341
 Red. masses --      2.5807                 2.7787                 1.8623
 Frc consts  --      2.2694                 2.6021                 1.8362
 IR Inten    --     15.0936                51.3215                42.6343

                     43                     44                     45
                      A                      A                      A
 Frequencies --   1364.5793              1378.1800              1387.7049
 Red. masses --      3.6546                 1.2093                 1.3827
 Frc consts  --      4.0095                 1.3533                 1.5688
 IR Inten    --     94.0932                12.2904                 6.4232

                     46                     47                     48
                      A                      A                      A
 Frequencies --   1412.7363              1466.4796              1471.2226
 Red. masses --      1.2416                 7.6162                 1.0478
 Frc consts  --      1.4601                 9.6503                 1.3362
 IR Inten    --     18.6284                 8.5784                 0.2380

                     49                     50                     51
                      A                      A                      A
 Frequencies --   1482.4376              1488.4935              1488.6808
 Red. masses --      1.2393                 1.0512                 1.0617
 Frc consts  --      1.6046                 1.3723                 1.3862
 IR Inten    --    275.6929                 2.2539                 0.5522

                     52                     53                     54
                      A                      A                      A
 Frequencies --   1500.6200              1500.9317              1515.7252
 Red. masses --      4.0620                 1.0875                 1.6808
 Frc consts  --      5.3893                 1.4435                 2.2751
 IR Inten    --    544.9392                40.4178                63.7148

                     55                     56                     57
                      A                      A                      A
 Frequencies --   1519.9862              1613.9191              3014.6664
 Red. masses --      2.1354                 7.3377                 1.0382
 Frc consts  --      2.9068                11.2609                 5.5593
 IR Inten    --    246.9889                90.5245                77.4315

                     58                     59                     60
                      A                      A                      A
 Frequencies --   3016.2347              3023.9789              3070.1956
 Red. masses --      1.0366                 1.0372                 1.1020
 Frc consts  --      5.5566                 5.5882                 6.1204
 IR Inten    --     40.5879                78.5661                28.4955

                     61                     62                     63
                      A                      A                      A
 Frequencies --   3071.6695              3084.8764              3086.0283
 Red. masses --      1.1014                 1.1011                 1.1023
 Frc consts  --      6.1225                 6.1740                 6.1849
 IR Inten    --     62.8581               106.9740                62.7880

                     64                     65                     66
                      A                      A                      A
 Frequencies --   3125.9308              3127.7037              3195.9450
 Red. masses --      1.0979                 1.0974                 1.0884
 Frc consts  --      6.3207                 6.3248                 6.5500
 IR Inten    --      0.0607                34.0476                11.7530

 - Thermochemistry -
 -------------------
 Temperature   298.150 Kelvin.  Pressure   1.00000 Atm.
 Atom     1 has atomic number  6 and mass  12.00000

 Molecular mass:   319.90475 amu.
 Principal axes and moments of inertia in atomic units:
                           1         2         3
     Eigenvalues --  3079.799386627.566019305.01289
           X            0.98905  -0.03474   0.14346
           Y           -0.03063   0.90246   0.42969
           Z           -0.14439  -0.42938   0.89151
 This molecule is an asymmetric top.
 Rotational symmetry number  1.
 Warning -- assumption of classical behavior for rotation
           may cause significant error
 Rotational temperatures (Kelvin)      0.02812     0.01307     0.00931
 Rotational constants (GHZ):           0.58599     0.27231     0.19395
 Zero-point vibrational energy     457791.2 (Joules/Mol)
                                  109.41472 (Kcal/Mol)
 Warning -- explicit consideration of  23 degrees of freedom as
           vibrations may cause significant error
 Vibrational temperatures:     61.96    64.44   115.85   190.25   206.17
          (Kelvin)            222.16   300.52   306.74   324.53   343.60
                              372.80   399.04   412.83   437.39   482.21
                              497.84   540.08   593.24   618.45   688.59
                              720.29   777.29   828.03   978.83   991.81
                             1061.33  1100.77  1187.65  1219.54  1278.83
                             1336.05  1339.22  1378.51  1397.18  1491.46
                             1501.88  1561.14  1644.84  1747.07  1757.74
                             1813.88  1861.25  1963.33  1982.89  1996.60
                             2032.61  2109.94  2116.76  2132.90  2141.61
                             2141.88  2159.06  2159.51  2180.79  2186.92
                             2322.07  4337.43  4339.69  4350.83  4417.33
                             4419.45  4438.45  4440.11  4497.52  4500.07
                             4598.25

 Zero-point correction=                           0.174363 (Hartree/Particle)
 Thermal correction to Energy=                    0.189053
 Thermal correction to Enthalpy=                  0.189997
 Thermal correction to Gibbs Free Energy=         0.130702
 Sum of electronic and zero-point Energies=          -5685.928657
 Sum of electronic and thermal Energies=             -5685.913967
 Sum of electronic and thermal Enthalpies=           -5685.913023
 Sum of electronic and thermal Free Energies=        -5685.972318

                     E (Thermal)             CV                S
                      KCal/Mol        Cal/Mol-Kelvin    Cal/Mol-Kelvin
 Total                  118.633             53.769            124.797
 Electronic               0.000              0.000              1.377
 Translational            0.889              2.981             43.184
 Rotational               0.889              2.981             33.607
 Vibrational            116.855             47.808             46.628
 Vibration     1          0.595              1.980              5.113
 Vibration     2          0.595              1.979              5.035
 Vibration     3          0.600              1.962              3.878
 Vibration     4          0.612              1.921              2.913
 Vibration     5          0.616              1.910              2.759
 Vibration     6          0.620              1.898              2.617
 Vibration     7          0.642              1.827              2.053
 Vibration     8          0.644              1.821              2.016
 Vibration     9          0.650              1.802              1.914
 Vibration    10          0.657              1.781              1.812
 Vibration    11          0.668              1.747              1.668
 Vibration    12          0.678              1.715              1.550
 Vibration    13          0.684              1.698              1.492
 Vibration    14          0.695              1.666              1.395
 Vibration    15          0.716              1.605              1.235
 Vibration    16          0.724              1.583              1.184
 Vibration    17          0.746              1.523              1.058
 Vibration    18          0.776              1.443              0.918
 Vibration    19          0.791              1.405              0.859
 Vibration    20          0.835              1.298              0.714
 Vibration    21          0.856              1.249              0.657
 Vibration    22          0.895              1.161              0.565
 Vibration    23          0.932              1.084              0.494

 Optimization completed.
    -- Stationary point found.
 Normal termination of Gaussian 16 at Sat Feb 10 11:33:08 2024.
