 Q-Chem 5.4, Q-Chem, Inc., Pleasanton, CA (2021)
 Q-Chem 5.4.0 for Intel X86 EM64T Linux

User input:
--------------------------------------------------------------
$molecule
-2 1
O                  1.9834710000     -3.0899080000      0.8405100000
C                  1.4720040000     -1.9623500000      0.5597770000
C                  0.0866890000     -1.6896450000      0.4772630000
C                 -0.4686000000     -0.4376020000      0.1822870000
O                  0.4068590000      0.6217230000     -0.1129150000
C                  1.7536400000      0.4602910000     -0.0006250000
C                  2.5447510000      1.5943820000     -0.2139020000
C                  3.9413770000      1.4920340000     -0.1518690000
C                  4.5362340000      0.2706540000      0.1577080000
C                  3.7359970000     -0.8500780000      0.4060430000
C                  2.3362840000     -0.7823930000      0.3147830000
C                 -1.8389570000     -0.0885060000      0.0695580000
C                 -2.8933400000     -1.0480080000      0.2575790000
C                 -4.2261650000     -0.6853340000      0.1943140000
C                 -4.6207240000      0.6368900000     -0.0862520000
C                 -3.6057230000      1.5767600000     -0.3443030000
C                 -2.2652170000      1.2374800000     -0.2837240000
H                 -0.5857530000     -2.5140480000      0.6809770000
H                  2.0573630000      2.5343000000     -0.4503570000
H                  4.5554810000      2.3687130000     -0.3487780000
H                  5.6199680000      0.1940810000      0.2080350000
H                  4.1625560000     -1.8127230000      0.6648460000
H                 -2.6419740000     -2.0815880000      0.4673150000
H                 -4.9876770000     -1.4457460000      0.3655070000
H                 -5.6697480000      0.9127180000     -0.1299990000
H                 -3.8769880000      2.6013230000     -0.5962770000
H                 -1.5118050000      1.9865810000     -0.4935550000
$end
$rem
MAX_SCF_CYCLES=200
BASIS  =  6-311++G(d,p)
GUI  =  2
JOB_TYPE  =  SP
METHOD  =  B3LYP
SOLVENT_METHOD = COSMO
$end
$solvent
dielectric 37.219
opticaldielectric 1.43
$end

--------------------------------------------------------------

             Standard Nuclear Orientation (Angstroms)
    I     Atom           X                Y                Z
 ----------------------------------------------------------------
    1      O      -2.0172140351    -2.8838897851     0.0082523579
    2      C      -1.4283729603    -1.7591737390     0.0170020444
    3      C      -0.0269566956    -1.5688451293     0.0079632437
    4      C       0.6136976295    -0.3228554968     0.0016182196
    5      O      -0.1846224421     0.8321558337     0.0677697644
    6      C      -1.5418376989     0.7407582919     0.0219261947
    7      C      -2.2542990475     1.9444473836    -0.0102838420
    8      C      -3.6558796450     1.9251027397    -0.0195035729
    9      C      -4.3346385550     0.7083232735    -0.0335016603
   10      C      -3.6134764251    -0.4908383355    -0.0386360800
   11      C      -2.2099179279    -0.4988626376     0.0068093238
   12      C       2.0059097984    -0.0504817147     0.0050753054
   13      C       2.9925352477    -1.0964945242     0.0171963805
   14      C       4.3464181730    -0.8194626786    -0.0298328875
   15      C       4.8305262665     0.5023626170    -0.0628121629
   16      C       3.8844205954     1.5423096849    -0.0030867864
   17      C       2.5243981247     1.2891422776     0.0414352592
   18      H       0.5863796972    -2.4612926918    -0.0179936643
   19      H      -1.7024791473     2.8784320829    -0.0018425398
   20      H      -4.2080654582     2.8629264538    -0.0131431424
   21      H      -5.4221195088     0.6955886978    -0.0434324046
   22      H      -4.1067829859    -1.4560189616    -0.0649413160
   23      H       2.6713608686    -2.1314607649     0.0511606393
   24      H       5.0536438703    -1.6484109934    -0.0403440042
   25      H       5.8953263483     0.7096974737    -0.1035464380
   26      H       4.2263622510     2.5766226114     0.0057229953
   27      H       1.8259046027     2.1151956277     0.0919690202
 ----------------------------------------------------------------

   19    -728.1929061027      6.62e-06  Convergence criterion met
 Total energy in the final basis set =     -728.1929061027
    6    -728.4427130920      4.14e-06  Convergence criterion met
 Total energy in the final basis set =     -728.4427130920

                    Orbital Energies (a.u.)
 --------------------------------------------------------------

 Alpha MOs
 -- Occupied --
-19.1363 -19.0282 -10.2183 -10.1772 -10.1702 -10.1541 -10.1535 -10.1502
-10.1470 -10.1439 -10.1437 -10.1435 -10.1401 -10.1318 -10.1288 -10.1217
-10.1212  -1.0558  -0.9515  -0.8344  -0.8170  -0.7606  -0.7414  -0.7189
 -0.7107  -0.6954  -0.6247  -0.6059  -0.5764  -0.5637  -0.5510  -0.5055
 -0.4969  -0.4883  -0.4545  -0.4388  -0.4308  -0.4235  -0.4127  -0.4029
 -0.3941  -0.3893  -0.3795  -0.3733  -0.3523  -0.3509  -0.3390  -0.3352
 -0.3254  -0.3237  -0.3131  -0.2941  -0.2605  -0.2349  -0.2309  -0.2134
 -0.2088  -0.1921  -0.0771

          Ground-State Mulliken Net Atomic Charges

     Atom                 Charge (a.u.)
  ----------------------------------------
      1 O                    -0.726028
      2 C                    -0.766338
      3 C                    -0.520082
      4 C                     0.516510
      5 O                    -0.122614
      6 C                    -1.454558
      7 C                    -0.431023
      8 C                    -0.481770
      9 C                    -0.252720
     10 C                     0.144255
     11 C                     1.860310
     12 C                     0.933564
     13 C                    -0.595365
     14 C                    -0.546527
     15 C                    -0.534439
     16 C                    -0.429218
     17 C                    -0.172396
     18 H                     0.150645
     19 H                     0.173009
     20 H                     0.187093
     21 H                     0.175979
     22 H                     0.165840
     23 H                     0.090074
     24 H                     0.177028
     25 H                     0.139986
     26 H                     0.171274
     27 H                     0.147513
  ----------------------------------------
  Sum of atomic charges =    -2.000000

                    Cartesian Multipole Moments
 -----------------------------------------------------------------
    Charge (ESU x 10^10)
                -9.6064
    Dipole Moment (Debye)
         X       0.0077      Y       8.8167      Z      -0.0450
       Tot       8.8168
    Quadrupole Moments (Debye-Ang)
        XX    -174.7524     XY     -23.1126     YY    -139.9686
        XZ       0.0232     YZ       0.2825     ZZ    -116.1149

 Total job time:  86.23s(wall), 660.79s(cpu)
        *  Thank you very much for using Q-Chem.  Have a nice day.  *
