 Q-Chem 5.4, Q-Chem, Inc., Pleasanton, CA (2021)
 Q-Chem 5.4.0 for Intel X86 EM64T Linux

User input:
--------------------------------------------------------------
$molecule
-2 1
C                  1.0440440000      1.1929830000      1.4438280000
C                 -0.1156830000      0.3524970000      1.4453120000
C                 -0.2976900000     -0.7224420000      0.5842310000
C                  0.7019840000     -1.0788980000     -0.3937000000
C                  1.8781140000     -0.2366090000     -0.4168860000
C                  2.0441850000      0.8430750000      0.4544030000
C                  3.2873640000      1.6995390000      0.4030120000
C                  2.9475000000     -0.5896870000     -1.4247260000
O                  1.1875720000      2.1834450000      2.2601780000
O                  0.5514970000     -2.0913770000     -1.1818800000
C                 -1.5333720000     -1.5983910000      0.6780780000
C                 -2.5342600000     -1.3716770000     -0.4287800000
C                 -3.8613860000     -1.1912620000     -0.3417610000
C                 -4.6536710000     -1.1521370000      0.9437990000
C                 -4.7092610000     -0.9788650000     -1.5769440000
H                 -0.8887080000      0.5989290000      2.1728700000
H                  3.4220380000      2.1839370000     -0.5770520000
H                  4.2056210000      1.1205520000      0.5886260000
H                  3.2012320000      2.4750390000      1.1681340000
H                  2.6105530000     -1.4570730000     -1.9971800000
H                  3.9086920000     -0.8362120000     -0.9461300000
H                  3.1540320000      0.2363090000     -2.1223430000
H                 -2.0005350000     -1.4657050000      1.6593540000
H                 -1.2029580000     -2.6456970000      0.5989150000
H                 -2.0812990000     -1.3831670000     -1.4177020000
H                 -4.0384090000     -1.3107410000      1.8306160000
H                 -5.4443220000     -1.9148250000      0.9420770000
H                 -5.1672130000     -0.1852800000      1.0552780000
H                 -4.1108430000     -1.0074800000     -2.4915090000
H                 -5.2331230000     -0.0107610000     -1.5420110000
H                 -5.4973560000     -1.7404880000     -1.6633570000
$end
$rem
MAX_SCF_CYCLES=200
BASIS  =  6-311++G(d,p)
GUI  =  2
JOB_TYPE  =  SP
SCF_CONVERGENCE = 8
THRESH = 14
METHOD  =  B3LYP
SOLVENT_METHOD = COSMO
$end
$solvent
dielectric 37.219
opticaldielectric 1.43
$end

--------------------------------------------------------------

             Standard Nuclear Orientation (Angstroms)
    I     Atom           X                Y                Z
 ----------------------------------------------------------------
    1      C       1.8678467349     1.5567428706    -0.0257613463
    2      C       0.5129612226     1.3496997067     0.3899356704
    3      C      -0.0542438392     0.0983539842     0.5960744362
    4      C       0.7080996996    -1.1122293689     0.4061315471
    5      C       2.0773372221    -0.9247410240    -0.0220119503
    6      C       2.6316672075     0.3412624640    -0.2279125916
    7      C       4.0665672944     0.4987495545    -0.6728004439
    8      C       2.9044805951    -2.1737803242    -0.2213273381
    9      O       2.3693849120     2.7333101633    -0.2051810925
   10      O       0.1956194681    -2.2788921531     0.6188513988
   11      C      -1.4844216592    -0.0405791527     1.0842269758
   12      C      -2.4574611253    -0.4872710105     0.0202856052
   13      C      -3.6567718387     0.0262634430    -0.2948674944
   14      C      -4.2925584092     1.2263928634     0.3664762979
   15      C      -4.4992525561    -0.5653760631    -1.4038627515
   16      H      -0.0876848358     2.2465679761     0.5398978141
   17      H       4.2603371027     0.0125502021    -1.6420101239
   18      H       4.7796414788     0.0570085050     0.0408272420
   19      H       4.2809658657     1.5661439563    -0.7673154689
   20      H       2.2762170846    -3.0421986652    -0.0098329358
   21      H       3.7824731797    -2.2048818077     0.4434135791
   22      H       3.2925375183    -2.2592312575    -1.2478283366
   23      H      -1.8080245818     0.9020485076     1.5375300466
   24      H      -1.4925653389    -0.8138567151     1.8679779193
   25      H      -2.1114572381    -1.3592927897    -0.5302884011
   26      H      -3.6833363483     1.6458334815     1.1683896332
   27      H      -5.2736373179     0.9692795835     0.7886159555
   28      H      -4.4799871008     2.0226693382    -0.3695805429
   29      H      -4.0141433181    -1.4285236830    -1.8675407362
   30      H      -4.7023679352     0.1762869862    -2.1922516964
   31      H      -5.4845065473    -0.8866753589    -1.0368860968
 ----------------------------------------------------------------

   28    -655.5947527412      8.61e-09  Convergence criterion met
 Total energy in the final basis set =     -655.5947527412
   12    -655.8775380825      7.75e-09  Convergence criterion met
 Total energy in the final basis set =     -655.8775380825

                    Orbital Energies (a.u.)
 --------------------------------------------------------------

 Alpha MOs
 -- Occupied --
-19.0128 -19.0093 -10.1618 -10.1598 -10.1570 -10.1512 -10.1512 -10.1447
-10.1431 -10.1313 -10.1313 -10.1204 -10.1201 -10.1190 -10.1104  -0.9293
 -0.9255  -0.8009  -0.7806  -0.7491  -0.7004  -0.6916  -0.6796  -0.6391
 -0.6211  -0.5915  -0.5219  -0.5067  -0.4937  -0.4560  -0.4390  -0.4230
 -0.4198  -0.4090  -0.4012  -0.3849  -0.3759  -0.3724  -0.3686  -0.3623
 -0.3581  -0.3573  -0.3503  -0.3495  -0.3385  -0.3286  -0.3136  -0.3054
 -0.3031  -0.2973  -0.2259  -0.2172  -0.1962  -0.1930  -0.1862  -0.1092

          Ground-State Mulliken Net Atomic Charges

     Atom                 Charge (a.u.)
  ----------------------------------------
      1 C                    -0.870689
      2 C                    -0.098988
      3 C                     0.929162
      4 C                    -1.232763
      5 C                     0.138954
      6 C                     0.623396
      7 C                    -0.522278
      8 C                    -0.554639
      9 O                    -0.781292
     10 O                    -0.748287
     11 C                     0.164478
     12 C                    -0.706234
     13 C                     0.596308
     14 C                    -0.672830
     15 C                    -0.661699
     16 H                     0.136356
     17 H                     0.134362
     18 H                     0.134300
     19 H                     0.164976
     20 H                     0.169342
     21 H                     0.133655
     22 H                     0.135428
     23 H                     0.156085
     24 H                     0.150885
     25 H                     0.191971
     26 H                     0.134413
     27 H                     0.149290
     28 H                     0.151356
     29 H                     0.160369
     30 H                     0.147651
     31 H                     0.146963
  ----------------------------------------
  Sum of atomic charges =    -2.000000

                    Cartesian Multipole Moments
 -----------------------------------------------------------------
    Charge (ESU x 10^10)
                -9.6064
    Dipole Moment (Debye)
         X     -11.9812      Y      -2.5626      Z      -1.7429
       Tot      12.3755
    Quadrupole Moments (Debye-Ang)
        XX    -129.6586     XY     -26.3214     YY    -154.9831
        XZ       2.1476     YZ       8.5119     ZZ    -103.5145

 Total job time:  218.05s(wall), 1697.96s(cpu)
        *  Thank you very much for using Q-Chem.  Have a nice day.  *
