 Q-Chem 5.4, Q-Chem, Inc., Pleasanton, CA (2021)
 Q-Chem 5.4.0 for Intel X86 EM64T Linux

User input:
--------------------------------------------------------------
$molecule
-2 1
C                 -4.5563050000      0.8893680000      0.3393740000
C                 -3.1860490000      0.2789010000      0.1861660000
C                 -3.0540000000     -1.1185690000     -0.0826970000
C                 -1.8249330000     -1.7118100000     -0.2479670000
O                 -1.7407120000     -3.0528840000     -0.5012750000
C                 -0.6197610000     -0.9286540000     -0.1500600000
C                  0.6560770000     -1.5374600000     -0.3148510000
O                  0.7593340000     -2.8482680000     -0.5658320000
C                  1.8201580000     -0.7238400000     -0.2074020000
C                  3.1327040000     -1.2973330000     -0.3693010000
O                  3.2601280000     -2.6350460000     -0.6284580000
C                  4.2537270000     -0.5067980000     -0.2645250000
C                  4.1402900000      0.8875690000      0.0046120000
C                  2.9081310000      1.4777680000      0.1664440000
O                  2.8210710000      2.8190710000      0.4234120000
C                  1.7045790000      0.6899290000      0.0656710000
C                  0.4261690000      1.2956400000      0.2337450000
O                  0.3229050000      2.6065000000      0.4934030000
C                 -0.7373730000      0.4831930000      0.1226230000
C                 -2.0517400000      1.0586140000      0.2798740000
O                 -2.1672960000      2.4034250000      0.5188740000
H                 -5.0298360000      1.1033610000     -0.6328290000
H                 -4.5011940000      1.8345070000      0.8842430000
H                 -5.2320670000      0.2118210000      0.8787600000
H                 -3.9430940000     -1.7403940000     -0.1554700000
H                 -0.7453970000     -3.2281200000     -0.5749230000
H                  2.3063330000     -2.9738790000     -0.6532640000
H                  5.2297540000     -0.9666660000     -0.3913400000
H                  5.0288020000      1.5074030000      0.0860880000
H                  1.8258550000      2.9914510000      0.4994930000
H                 -1.2062600000      2.7311990000      0.5574140000
$end
$rem
MAX_SCF_CYCLES=200
BASIS  =  6-311++G(d,p)
GUI  =  2
JOB_TYPE  =  SP
METHOD  =  B3LYP
SOLVENT_METHOD = COSMO
$end
$solvent
dielectric 37.219
opticaldielectric 1.43
$end

--------------------------------------------------------------

             Standard Nuclear Orientation (Angstroms)
    I     Atom           X                Y                Z
 ----------------------------------------------------------------
    1      C       4.8572758746    -0.7691920571    -0.0066425608
    2      C       3.4583197296    -0.2066590093     0.0082715133
    3      C       3.2587788193     1.2085545841     0.0075216788
    4      C       2.0008698542     1.7630716640     0.0019907546
    5      O       1.8520199886     3.1223274004     0.0042609602
    6      C       0.8334519099     0.9189812641    -0.0003310241
    7      C      -0.4717341624     1.4864780361    -0.0007211467
    8      O      -0.6382798821     2.8146849147    -0.0010277922
    9      C      -1.5964900316     0.6126750969    -0.0008778154
   10      C      -2.9367852788     1.1432258000    -0.0035444966
   11      O      -3.1288964313     2.4982027968    -0.0059817080
   12      C      -4.0196001526     0.2946221918    -0.0037125796
   13      C      -3.8387465610    -1.1184767671    -0.0014062526
   14      C      -2.5780312671    -1.6692312083     0.0011919016
   15      O      -2.4261686826    -3.0292466914     0.0023646993
   16      C      -1.4125485445    -0.8200947419     0.0016266257
   17      C      -0.1047651866    -1.3850308408     0.0057139579
   18      O       0.0621924857    -2.7148755878     0.0145318173
   19      C       1.0193285112    -0.5117334833     0.0020675626
   20      C       2.3613017719    -1.0432409450    -0.0002563485
   21      O       2.5409116826    -2.4020637267    -0.0184701557
   22      H       5.2932428173    -0.7790524774    -1.0190845997
   23      H       4.8649369969    -1.7995811109     0.3559134814
   24      H       5.5300370548    -0.1704753893     0.6223186630
   25      H       4.1182529148     1.8746384977     0.0168426310
   26      H       0.8482094175     3.2606924018     0.0025012696
   27      H      -2.1914255044     2.8806862164    -0.0043274810
   28      H      -5.0178811951     0.7231309983    -0.0058313777
   29      H      -4.6973143432    -1.7841698494    -0.0018350250
   30      H      -1.4224568735    -3.1652568635     0.0070451862
   31      H       1.5964137103    -2.7765427760    -0.0043159355
 ----------------------------------------------------------------

   10   -1029.3420839320      7.17e-06  Convergence criterion met
 Total energy in the final basis set =    -1029.3420839320
    4   -1029.5868394011      7.62e-06  Convergence criterion met
 Total energy in the final basis set =    -1029.5868394011

                    Orbital Energies (a.u.)
 --------------------------------------------------------------

 Alpha MOs
 -- Occupied --
-19.1137 -19.1137 -19.1133 -19.1097 -19.0684 -19.0676 -10.2107 -10.2105
-10.2104 -10.2055 -10.2052 -10.2041 -10.1616 -10.1611 -10.1610 -10.1601
-10.1556 -10.1511 -10.1482 -10.1477 -10.1449  -1.0347  -1.0325  -1.0268
 -1.0239  -0.9665  -0.9643  -0.8414  -0.8211  -0.7778  -0.7390  -0.7261
 -0.7115  -0.6839  -0.6535  -0.6267  -0.6036  -0.5787  -0.5667  -0.5283
 -0.5074  -0.5001  -0.4954  -0.4915  -0.4910  -0.4499  -0.4284  -0.4252
 -0.4237  -0.4079  -0.4068  -0.4037  -0.3971  -0.3922  -0.3889  -0.3857
 -0.3821  -0.3817  -0.3685  -0.3580  -0.3466  -0.3455  -0.3443  -0.3355
 -0.3324  -0.3245  -0.2915  -0.2833  -0.2512  -0.2470  -0.2358  -0.2270
 -0.2092  -0.1889  -0.1282

          Ground-State Mulliken Net Atomic Charges

     Atom                 Charge (a.u.)
  ----------------------------------------
      1 C                    -0.250304
      2 C                     0.602334
      3 C                    -0.421190
      4 C                    -0.342218
      5 O                    -0.497932
      6 C                     0.562169
      7 C                    -0.426392
      8 O                    -0.737588
      9 C                     0.440200
     10 C                    -0.332545
     11 O                    -0.500115
     12 C                    -0.212465
     13 C                    -0.251739
     14 C                    -0.322949
     15 O                    -0.505054
     16 C                     0.472189
     17 C                    -0.322839
     18 O                    -0.759063
     19 C                     0.171564
     20 C                    -0.654232
     21 O                    -0.524331
     22 H                     0.172206
     23 H                     0.173800
     24 H                     0.151399
     25 H                     0.173629
     26 H                     0.429959
     27 H                     0.428934
     28 H                     0.190822
     29 H                     0.191481
     30 H                     0.432490
     31 H                     0.467778
  ----------------------------------------
  Sum of atomic charges =    -2.000000

                    Cartesian Multipole Moments
 -----------------------------------------------------------------
    Charge (ESU x 10^10)
                -9.6064
    Dipole Moment (Debye)
         X       3.3899      Y      -0.5072      Z      -0.0206
       Tot       3.4277
    Quadrupole Moments (Debye-Ang)
        XX    -177.2220     XY       1.8743     YY    -195.2316
        XZ      -0.0244     YZ       0.0266     ZZ    -132.0751

 Total job time:  80.11s(wall), 610.45s(cpu)
        *  Thank you very much for using Q-Chem.  Have a nice day.  *
