 Q-Chem 5.4, Q-Chem, Inc., Pleasanton, CA (2021)
 Q-Chem 5.4.0 for Intel X86 EM64T Linux

User input:
--------------------------------------------------------------
$molecule
0 1
C                 -1.8598630000      0.3640130000     -0.1926560000
C                 -2.8275470000      1.0394090000     -0.8482920000
C                 -2.5932400000      2.1217430000     -1.8629370000
C                 -4.2729520000      0.7516500000     -0.5737210000
O                 -5.1395470000      1.4172310000     -1.1258790000
C                 -4.6508410000     -0.3194580000      0.3781070000
C                 -3.6863580000     -0.9923880000      1.0606230000
O                 -3.8198800000     -1.9381110000      1.9946370000
C                 -5.0672680000     -2.5954140000      2.2620760000
C                 -2.2329310000     -0.6800510000      0.8123630000
O                 -1.3769130000     -1.2923120000      1.4217540000
O                 -5.9748080000     -0.4913910000      0.6619600000
C                 -6.8427600000     -0.8897460000     -0.4143130000
H                 -3.1098570000      3.0368540000     -1.5628180000
H                 -3.0199640000      1.8386230000     -2.8297060000
H                 -1.5362410000      2.3418300000     -1.9948100000
H                 -5.4672280000     -3.0511320000      1.3534020000
H                 -4.8168920000     -3.3724000000      2.9825190000
H                 -5.7977090000     -1.9059920000      2.6814030000
H                 -6.8834730000     -0.1248290000     -1.1878790000
H                 -7.8262800000     -1.0186690000      0.0356750000
H                 -6.5068670000     -1.8431320000     -0.8376300000
C                 -0.3789700000      0.5920820000     -0.3606640000
C                  0.1844290000      1.6314790000      0.6311090000
C                  1.6965530000      1.8297820000      0.4834900000
C                  2.2717890000      2.8622030000      1.4596650000
C                  3.7843520000      3.0654660000      1.3154780000
C                  4.3608640000      4.0957050000      2.2932120000
C                  5.8735520000      4.2990960000      2.1509090000
C                  6.4501930000      5.3287870000      3.1288760000
C                  7.9629740000      5.5328880000      2.9882450000
C                  8.5294530000      6.5631520000      3.9696610000
H                 -0.1624290000      0.9087130000     -1.3835120000
H                  0.1364050000     -0.3571170000     -0.1986940000
H                 -0.0437600000      1.3083380000      1.6521580000
H                 -0.3289950000      2.5891940000      0.4839450000
H                  1.9248470000      2.1376930000     -0.5454550000
H                  2.2017910000      0.8675060000      0.6334700000
H                  2.0446870000      2.5519970000      2.4875500000
H                  1.7621440000      3.8233130000      1.3126370000
H                  4.0114910000      3.3760250000      0.2872820000
H                  4.2934850000      2.1040470000      1.4614190000
H                  4.1330650000      3.7850240000      3.3210810000
H                  3.8515090000      5.0571910000      2.1474120000
H                  6.1015790000      4.6097970000      1.1229380000
H                  6.3827590000      3.3375610000      2.2967730000
H                  6.2226310000      5.0187470000      4.1572390000
H                  5.9418070000      6.2910430000      2.9834920000
H                  8.1908460000      5.8434670000      1.9611970000
H                  8.4713360000      4.5719420000      3.1342060000
H                  8.0657660000      7.5441590000      3.8248200000
H                  9.6089660000      6.6848140000      3.8436250000
H                  8.3481520000      6.2629700000      5.0066500000
$end
$rem
MAX_SCF_CYCLES=200
SCF_Guess=core
BASIS  =  6-311++G(d,p)
GUI  =  2
JOB_TYPE  =  SP
METHOD  =  B3LYP
THRESH = 14
SCF_CONVERGENCE = 8
SOLVENT_METHOD = COSMO
$end
$solvent
dielectric 37.219
opticaldielectric 1.43
$end

--------------------------------------------------------------

             Standard Nuclear Orientation (Angstroms)
    I     Atom           X                Y                Z
 ----------------------------------------------------------------
    1      C       2.1368077889     0.4275438087     0.7237609768
    2      C       2.8123469122     1.5012021649     0.2618786625
    3      C       2.3229405368     2.9202687154     0.3126985295
    4      C       4.1542350499     1.3327014726    -0.3849086539
    5      O       4.7257158646     2.3061253764    -0.8589540108
    6      C       4.7765707429    -0.0095537648    -0.4691591650
    7      C       4.0976176200    -1.1015485384    -0.0270501246
    8      O       4.4537579753    -2.3884220181    -0.0685587290
    9      C       5.7864906823    -2.8159441899    -0.3857274524
   10      C       2.7328246878    -0.9386737231     0.5913749073
   11      O       2.1361569514    -1.9201214005     0.9910445312
   12      O       5.9590911739    -0.1303988581    -1.1400272539
   13      C       7.1014068955     0.5670486611    -0.6117539334
   14      H       2.3147092919     3.3514668105    -0.6914892670
   15      H       3.0066273748     3.5398580309     0.9005539485
   16      H       1.3242226280     2.9973279648     0.7366089827
   17      H       6.5117965854    -2.3538328569     0.2878598087
   18      H       5.7723393578    -3.8929229472    -0.2265106249
   19      H       6.0425859184    -2.5852494903    -1.4181406774
   20      H       6.9471986457     1.6444785362    -0.6346581141
   21      H       7.9347260471     0.2951299142    -1.2583305469
   22      H       7.3085091220     0.2328211568     0.4111668348
   23      C       0.7698028993     0.4719617150     1.3582772617
   24      C      -0.3722806865     0.2913347280     0.3363197211
   25      C      -1.7574238367     0.2966402282     0.9912889918
   26      C      -2.9038288769     0.1216093418    -0.0111215430
   27      C      -4.2922013386     0.1273850663     0.6387562269
   28      C      -5.4390597730    -0.0504061489    -0.3626569113
   29      C      -6.8279580384    -0.0459976641     0.2860226719
   30      C      -7.9747322008    -0.2243324605    -0.7151284516
   31      C      -9.3643446056    -0.2207569309    -0.0678995661
   32      C     -10.5031203079    -0.3997843038    -1.0761945784
   33      H       0.6354882263     1.4150892249     1.8929110565
   34      H       0.7059414659    -0.3311474133     2.0956793627
   35      H      -0.2245365191    -0.6527616700    -0.1983624634
   36      H      -0.3167153650     1.0883060411    -0.4148318542
   37      H      -1.8970306127     1.2370653990     1.5406209439
   38      H      -1.8043364357    -0.5040981606     1.7398554737
   39      H      -2.7640519264    -0.8196481860    -0.5577908438
   40      H      -2.8531012951     0.9200469968    -0.7627941542
   41      H      -4.4321071500     1.0690963599     1.1854117269
   42      H      -4.3421360869    -0.6703450900     1.3910691933
   43      H      -5.2984590047    -0.9918452866    -0.9093318817
   44      H      -5.3889868708     0.7472935782    -1.1152014841
   45      H      -6.9687480656     0.8954964918     0.8328523746
   46      H      -6.8778917697    -0.8437542364     1.0384910801
   47      H      -7.8347164597    -1.1657767997    -1.2624107130
   48      H      -7.9259281739     0.5733904941    -1.4679801613
   49      H      -9.5051211142     0.7199836368     0.4783620168
   50      H      -9.4138159344    -1.0180843073     0.6837488850
   51      H     -10.5018871971     0.4025357062    -1.8209363890
   52      H     -11.4792519948    -0.3929393568    -0.5830869742
   53      H     -10.4096633158    -1.3486344056    -1.6140372568
 ----------------------------------------------------------------

   28   -1043.2455125012      6.73e-09  Convergence criterion met
 Total energy in the final basis set =    -1043.2455125012
   11   -1043.2627144161      3.99e-09  Convergence criterion met
 Total energy in the final basis set =    -1043.2627144161

                    Orbital Energies (a.u.)
 --------------------------------------------------------------

 Alpha MOs
 -- Occupied --
-19.1797 -19.1595 -19.1405 -19.1336 -10.2875 -10.2818 -10.2668 -10.2509
-10.2238 -10.2170 -10.2117 -10.2075 -10.1747 -10.1716 -10.1671 -10.1604
-10.1587 -10.1582 -10.1572 -10.1568 -10.1565 -10.1563 -10.1521  -1.1045
 -1.0812  -1.0682  -1.0552  -0.8627  -0.8161  -0.8072  -0.7935  -0.7722
 -0.7472  -0.7424  -0.7246  -0.7042  -0.6794  -0.6655  -0.6476  -0.6120
 -0.5978  -0.5856  -0.5789  -0.5720  -0.5697  -0.5552  -0.5328  -0.5143
 -0.4959  -0.4852  -0.4784  -0.4678  -0.4671  -0.4641  -0.4548  -0.4508
 -0.4443  -0.4418  -0.4313  -0.4270  -0.4241  -0.4199  -0.4172  -0.4065
 -0.4006  -0.3978  -0.3943  -0.3867  -0.3823  -0.3710  -0.3645  -0.3593
 -0.3577  -0.3555  -0.3445  -0.3415  -0.3370  -0.3276  -0.3247  -0.3208
 -0.3185  -0.3170  -0.3168  -0.3022  -0.2866  -0.2833  -0.2726  -0.2433

          Ground-State Mulliken Net Atomic Charges

     Atom                 Charge (a.u.)
  ----------------------------------------
      1 C                     1.263268
      2 C                     0.847163
      3 C                    -0.597532
      4 C                    -0.461871
      5 O                    -0.321605
      6 C                     0.160552
      7 C                    -0.119124
      8 O                    -0.214521
      9 C                    -0.305183
     10 C                    -0.888121
     11 O                    -0.276458
     12 O                    -0.233213
     13 C                    -0.327670
     14 H                     0.199019
     15 H                     0.210105
     16 H                     0.147423
     17 H                     0.192241
     18 H                     0.206407
     19 H                     0.204596
     20 H                     0.176280
     21 H                     0.179297
     22 H                     0.158395
     23 C                    -0.450848
     24 C                    -0.901121
     25 C                    -0.283932
     26 C                    -0.005879
     27 C                     0.051189
     28 C                    -0.022854
     29 C                    -0.244216
     30 C                    -0.458738
     31 C                    -0.289252
     32 C                    -0.710267
     33 H                     0.211798
     34 H                     0.223640
     35 H                     0.213389
     36 H                     0.154646
     37 H                     0.136846
     38 H                     0.129810
     39 H                     0.130097
     40 H                     0.136793
     41 H                     0.135291
     42 H                     0.136936
     43 H                     0.134775
     44 H                     0.135072
     45 H                     0.131438
     46 H                     0.131600
     47 H                     0.128893
     48 H                     0.128542
     49 H                     0.136069
     50 H                     0.136162
     51 H                     0.145330
     52 H                     0.153865
     53 H                     0.145479
  ----------------------------------------
  Sum of atomic charges =     0.000000

                    Cartesian Multipole Moments
 -----------------------------------------------------------------
    Charge (ESU x 10^10)
                -0.0000
    Dipole Moment (Debye)
         X       1.6603      Y       1.1156      Z       1.2799
       Tot       2.3747
    Quadrupole Moments (Debye-Ang)
        XX    -116.6600     XY     -11.9338     YY    -148.3716
        XZ       6.0480     YZ       8.2086     ZZ    -147.5458

 Total job time:  661.30s(wall), 5112.74s(cpu)
        *  Thank you very much for using Q-Chem.  Have a nice day.  *
