 Gaussian 16, Revision A.03,
 Gaussian 16:  ES64L-G16RevA.03 25-Dec-2016

 ----------------------------------------------------------------
 #P UB3LYP/6-311++G(d,p) SCRF=(PCM,Solvent=n,n-DiMethylFormamide)
 ----------------------------------------------------------------

 ------------------
 Quinone PCM in DMF
 ------------------
 Symbolic Z-matrix:
 Charge =  0 Multiplicity = 1

                         Standard orientation:
 ---------------------------------------------------------------------
 Center     Atomic      Atomic             Coordinates (Angstroms)
 Number     Number       Type             X           Y           Z
 ---------------------------------------------------------------------
      1          6           0        3.049972   -1.383112    0.000365
      2          6           0        1.748637   -0.639702    0.000135
      3          6           0        0.501498   -1.431075   -0.000122
      4          8           0        0.539217   -2.653378   -0.000309
      5          6           0       -0.818716   -0.714140   -0.000107
      6          6           0       -2.002590   -1.449365   -0.000027
      7          6           0       -3.231684   -0.792249    0.000105
      8          6           0       -3.287048    0.602766    0.000159
      9          6           0       -2.110433    1.345587    0.000067
     10          6           0       -0.877374    0.689089   -0.000070
     11          6           0        0.378302    1.461356   -0.000093
     12          8           0        0.430261    2.685994   -0.000066
     13          6           0        1.669793    0.713219   -0.000058
     14          8           0        2.754886    1.504065   -0.000092
     15          1           0        3.894273   -0.695803    0.001102
     16          1           0        3.116973   -2.034565   -0.875452
     17          1           0        3.116034   -2.035501    0.875533
     18          1           0       -1.941449   -2.530581   -0.000053
     19          1           0       -4.149629   -1.369034    0.000184
     20          1           0       -4.245845    1.108124    0.000274
     21          1           0       -2.127959    2.428572    0.000110
     22          1           0        2.420544    2.421104   -0.000084
 ---------------------------------------------------------------------

 SCF Done:  E(UB3LYP) =  -649.858110656     A.U. after   15 cycles

 The electronic state is 1-A.
 Alpha  occ. eigenvalues --  -19.18059 -19.15191 -19.13124 -10.29587 -10.28232
 Alpha  occ. eigenvalues --  -10.26973 -10.21317 -10.21183 -10.20866 -10.20379
 Alpha  occ. eigenvalues --  -10.20205 -10.20032 -10.19997 -10.17568  -1.11116
 Alpha  occ. eigenvalues --   -1.06968  -1.06490  -0.89516  -0.84373  -0.78932
 Alpha  occ. eigenvalues --   -0.78243  -0.72800  -0.68722  -0.65715  -0.62731
 Alpha  occ. eigenvalues --   -0.60740  -0.57681  -0.54535  -0.52135  -0.49863
 Alpha  occ. eigenvalues --   -0.48016  -0.47655  -0.46958  -0.45560  -0.45166
 Alpha  occ. eigenvalues --   -0.43506  -0.42672  -0.41949  -0.40641  -0.39878
 Alpha  occ. eigenvalues --   -0.39656  -0.37938  -0.37871  -0.37277  -0.30614
 Alpha  occ. eigenvalues --   -0.29253  -0.28261  -0.28193  -0.26035
 Alpha virt. eigenvalues --   -0.12760  -0.05846  -0.02722  -0.01074   0.00174
 Alpha virt. eigenvalues --    0.00926   0.02134   0.02163   0.02546   0.03525
 Alpha virt. eigenvalues --    0.04121   0.04887   0.05109   0.05347   0.06511

  Beta  occ. eigenvalues --  -19.18059 -19.15191 -19.13124 -10.29587 -10.28232
  Beta  occ. eigenvalues --  -10.26973 -10.21317 -10.21183 -10.20866 -10.20379
  Beta  occ. eigenvalues --  -10.20205 -10.20032 -10.19997 -10.17568  -1.11116
  Beta  occ. eigenvalues --   -1.06968  -1.06490  -0.89516  -0.84373  -0.78932
  Beta  occ. eigenvalues --   -0.78243  -0.72800  -0.68722  -0.65715  -0.62731
  Beta  occ. eigenvalues --   -0.60740  -0.57681  -0.54535  -0.52135  -0.49863
  Beta  occ. eigenvalues --   -0.48016  -0.47655  -0.46958  -0.45560  -0.45166
  Beta  occ. eigenvalues --   -0.43506  -0.42672  -0.41949  -0.40641  -0.39878
  Beta  occ. eigenvalues --   -0.39656  -0.37938  -0.37871  -0.37277  -0.30614
  Beta  occ. eigenvalues --   -0.29253  -0.28261  -0.28193  -0.26035
  Beta virt. eigenvalues --   -0.12760  -0.05846  -0.02722  -0.01074   0.00174
  Beta virt. eigenvalues --    0.00926   0.02134   0.02163   0.02546   0.03525
  Beta virt. eigenvalues --    0.04121   0.04887   0.05109   0.05347   0.06511

 Mulliken charges and spin densities:
               1          2
     1  C   -0.224527  -0.000000
     2  C    1.320031  -0.000000
     3  C   -0.644711   0.000000
     4  O   -0.286624   0.000000
     5  C    0.425044  -0.000000
     6  C    0.127739  -0.000000
     7  C   -0.458641   0.000000
     8  C   -0.362199  -0.000000
     9  C    0.027824  -0.000000
    10  C    0.879259   0.000000
    11  C   -1.037749  -0.000000
    12  O   -0.309254   0.000000
    13  C   -0.895402   0.000000
    14  O   -0.237200  -0.000000
    15  H    0.192289  -0.000000
    16  H    0.185345   0.000000
    17  H    0.185294   0.000000
    18  H    0.193364  -0.000000
    19  H    0.207437   0.000000
    20  H    0.213232   0.000000
    21  H    0.191594  -0.000000
    22  H    0.307853   0.000000
 Sum of Mulliken charges =  -0.00000   0.00000

 Dipole moment (field-independent basis, Debye):
    X=             -2.8827    Y=              1.3000    Z=              0.0008  Tot=              3.1623
 Quadrupole moment (field-independent basis, Debye-Ang):
   XX=            -66.5969   YY=            -91.5842   ZZ=            -81.7241
   XY=              1.0800   XZ=             -0.0004   YZ=             -0.0017

 Normal termination of Gaussian 16 at Sun Jan 21 08:09:06 2024.
