 Q-Chem 5.4, Q-Chem, Inc., Pleasanton, CA (2021)
 Q-Chem 5.4.0 for Intel X86 EM64T Linux

User input:
--------------------------------------------------------------
$molecule
0 1
C                 -0.2269580000      1.0002560000      0.1305530000
C                 -1.4150690000      0.2049460000     -0.2602820000
C                 -1.3484960000     -1.1246070000     -0.3770770000
C                 -0.0836980000     -1.8523140000     -0.1236040000
C                  1.1447600000     -1.0646710000      0.2437410000
C                  1.0566850000      0.2798670000      0.3743530000
O                 -0.3071500000      2.2156150000      0.2281700000
O                 -0.0408030000     -3.0673540000     -0.2142460000
C                  2.2649830000      1.1307490000      0.7307730000
C                  2.1935240000      1.9484820000      1.9963720000
O                  3.2437490000      1.1100790000      0.0175540000
H                 -2.3215270000      0.7714050000     -0.4425550000
H                 -2.1981180000     -1.7367770000     -0.6582270000
H                  1.9093390000      1.3145180000      2.8426760000
H                  1.4221240000      2.7147020000      1.8896090000
H                  3.1610390000      2.4129620000      2.1840840000
C                  2.3868310000     -1.8789240000      0.4448860000
H                  2.7090780000     -2.3009510000     -0.5121400000
H                  2.1748640000     -2.7285270000      1.0977360000
H                  3.2082310000     -1.2912150000      0.8467040000
$end
$rem
MAX_SCF_CYCLES=200
BASIS  =  6-311++G(d,p)
GUI  =  2
JOB_TYPE  =  SP
METHOD  =  B3LYP
SOLVENT_METHOD = COSMO
$end
$solvent
dielectric 37.219
opticaldielectric 1.43
$end

--------------------------------------------------------------

             Standard Nuclear Orientation (Angstroms)
    I     Atom           X                Y                Z
 ----------------------------------------------------------------
    1      C       0.2360904365    -1.4799074542     0.1197556882
    2      C      -1.1529460787    -1.9964791257     0.0950775693
    3      C      -2.1967102856    -1.1675003323    -0.0004978279
    4      C      -2.0040342761     0.2987157554    -0.0817773454
    5      C      -0.6050104510     0.8502047677    -0.0267763580
    6      C       0.4423803722    -0.0037112413     0.0532176833
    7      O       1.1770724880    -2.2539757121     0.2115622528
    8      O      -2.9635258611     1.0432581016    -0.1885984464
    9      C       1.8772535156     0.4933185881     0.1247708947
   10      C       2.8210451490     0.0599397664    -0.9692924611
   11      O       2.2117390963     1.2305771684     1.0256930089
   12      H      -1.2557391315    -3.0738810238     0.1614408822
   13      H      -3.2247461316    -1.5113799368    -0.0238235900
   14      H       2.3894677753     0.2780010557    -1.9516835098
   15      H       2.9707600184    -1.0207138370    -0.9116501679
   16      H       3.7727553672     0.5777633499    -0.8545355988
   17      C      -0.5071809422     2.3448862239    -0.0774158634
   18      H      -0.9175935964     2.7718322006     0.8429793064
   19      H      -1.1206727184     2.7319237269    -0.8939929884
   20      H       0.5181579937     2.6907763135    -0.1803607340
 ----------------------------------------------------------------

    9    -573.5747349747      7.27e-06  Convergence criterion met
 Total energy in the final basis set =     -573.5747349747
    5    -573.5918428348      5.01e-06  Convergence criterion met
 Total energy in the final basis set =     -573.5918428348

                    Orbital Energies (a.u.)
 --------------------------------------------------------------

 Alpha MOs
 -- Occupied --
-19.1503 -19.1490 -19.1417 -10.2967 -10.2937 -10.2913 -10.2333 -10.2213
-10.2147 -10.2137 -10.1780 -10.1758  -1.0832  -1.0808  -1.0755  -0.8747
 -0.8178  -0.7684  -0.7317  -0.6982  -0.6505  -0.6048  -0.5629  -0.5394
 -0.5094  -0.4954  -0.4745  -0.4737  -0.4581  -0.4542  -0.4436  -0.4392
 -0.4342  -0.4119  -0.4105  -0.4044  -0.3966  -0.3778  -0.3174  -0.3029
 -0.3003  -0.2942  -0.2717

          Ground-State Mulliken Net Atomic Charges

     Atom                 Charge (a.u.)
  ----------------------------------------
      1 C                    -0.532188
      2 C                    -0.056230
      3 C                     0.128922
      4 C                    -0.475912
      5 C                     0.256277
      6 C                     1.047093
      7 O                    -0.296783
      8 O                    -0.284447
      9 C                    -0.046166
     10 C                    -0.648300
     11 O                    -0.305360
     12 H                     0.267366
     13 H                     0.265261
     14 H                     0.182049
     15 H                     0.219833
     16 H                     0.192282
     17 C                    -0.506724
     18 H                     0.221956
     19 H                     0.192513
     20 H                     0.178557
  ----------------------------------------
  Sum of atomic charges =     0.000000

                    Cartesian Multipole Moments
 -----------------------------------------------------------------
    Charge (ESU x 10^10)
                 0.0000
    Dipole Moment (Debye)
         X      -1.3471      Y      -1.3102      Z      -2.9153
       Tot       3.4684
    Quadrupole Moments (Debye-Ang)
        XX     -78.9385     XY       8.7944     YY     -71.5307
        XZ      -8.6347     YZ      -2.3027     ZZ     -70.3579

 Total job time:  25.19s(wall), 174.07s(cpu)
        *  Thank you very much for using Q-Chem.  Have a nice day.  *
