 Gaussian 16, Revision A.03,
 Gaussian 16:  ES64L-G16RevA.03 25-Dec-2016

 ----------------------------------------------------------------
 #P UB3LYP/6-311++G(d,p) SCRF=(PCM,Solvent=n,n-DiMethylFormamide)
 ----------------------------------------------------------------

 -------
 Reduced
 -------
 Symbolic Z-matrix:
 Charge = -2 Multiplicity = 1

                         Standard orientation:
 ---------------------------------------------------------------------
 Center     Atomic      Atomic             Coordinates (Angstroms)
 Number     Number       Type             X           Y           Z
 ---------------------------------------------------------------------
      1          6           0       -3.447383   -0.278168   -0.000100
      2          6           0       -1.970428    0.025142   -0.001483
      3          6           0       -1.523731    1.367611   -0.000361
      4          6           0       -0.167775    1.779905    0.001600
      5          8           0        0.219973    3.018598    0.000536
      6          6           0        0.772475    0.663628    0.000261
      7          6           0        2.163922    0.915724   -0.000169
      8          6           0        3.104199   -0.100605   -0.000417
      9          6           0        2.668324   -1.453770    0.000591
     10          6           0        1.313667   -1.734808    0.000364
     11          6           0        0.326184   -0.718842   -0.001067
     12          6           0       -1.080540   -1.083688   -0.001751
     13          8           0       -1.488409   -2.319998    0.000643
     14          1           0       -4.041174    0.639606   -0.103972
     15          1           0       -3.710338   -0.969398   -0.813658
     16          1           0       -3.759637   -0.789755    0.925058
     17          1           0       -2.269700    2.165591   -0.003556
     18          1           0        2.460433    1.961403   -0.000085
     19          1           0        4.168774    0.132977   -0.000538
     20          1           0        3.397759   -2.263854    0.001378
     21          1           0        0.947894   -2.758140    0.001127
 ---------------------------------------------------------------------

 SCF Done:  E(UB3LYP) =  -574.835933814     A.U. after   17 cycles

 The electronic state is 1-A.
 Alpha  occ. eigenvalues --  -19.01313 -19.01106 -10.16610 -10.16060 -10.14814
 Alpha  occ. eigenvalues --  -10.14717 -10.14340 -10.14265 -10.13785 -10.13426
 Alpha  occ. eigenvalues --  -10.13371 -10.12429 -10.11475  -0.92503  -0.92055
 Alpha  occ. eigenvalues --   -0.82037  -0.76714  -0.71915  -0.71774  -0.66404
 Alpha  occ. eigenvalues --   -0.62536  -0.57877  -0.55930  -0.51901  -0.47179
 Alpha  occ. eigenvalues --   -0.46052  -0.42600  -0.41370  -0.39650  -0.39071
 Alpha  occ. eigenvalues --   -0.38020  -0.36878  -0.35887  -0.35056  -0.34683
 Alpha  occ. eigenvalues --   -0.33391  -0.31253  -0.30798  -0.30410  -0.29774
 Alpha  occ. eigenvalues --   -0.22633  -0.21872  -0.20542  -0.19398  -0.18861
 Alpha  occ. eigenvalues --   -0.10857
 Alpha virt. eigenvalues --   -0.00340   0.00068   0.00972   0.01271   0.01710
 Alpha virt. eigenvalues --    0.02979   0.03126   0.04182   0.05378   0.05514
 Alpha virt. eigenvalues --    0.06003   0.06043   0.07136   0.08000   0.08648

  Beta  occ. eigenvalues --  -19.01313 -19.01106 -10.16610 -10.16060 -10.14814
  Beta  occ. eigenvalues --  -10.14717 -10.14340 -10.14265 -10.13785 -10.13426
  Beta  occ. eigenvalues --  -10.13371 -10.12429 -10.11475  -0.92503  -0.92055
  Beta  occ. eigenvalues --   -0.82037  -0.76714  -0.71915  -0.71774  -0.66404
  Beta  occ. eigenvalues --   -0.62536  -0.57877  -0.55930  -0.51901  -0.47179
  Beta  occ. eigenvalues --   -0.46052  -0.42600  -0.41370  -0.39650  -0.39071
  Beta  occ. eigenvalues --   -0.38020  -0.36878  -0.35887  -0.35056  -0.34683
  Beta  occ. eigenvalues --   -0.33391  -0.31253  -0.30798  -0.30410  -0.29774
  Beta  occ. eigenvalues --   -0.22633  -0.21872  -0.20542  -0.19398  -0.18861
  Beta  occ. eigenvalues --   -0.10857
  Beta virt. eigenvalues --   -0.00340   0.00068   0.00972   0.01271   0.01710
  Beta virt. eigenvalues --    0.02979   0.03126   0.04182   0.05378   0.05514
  Beta virt. eigenvalues --    0.06003   0.06043   0.07136   0.08000   0.08648

 Mulliken charges and spin densities:
               1          2
     1  C   -0.382970  -0.000000
     2  C    0.803747   0.000000
     3  C   -0.397308  -0.000000
     4  C   -0.852399   0.000000
     5  O   -0.720291  -0.000000
     6  C    0.447431   0.000000
     7  C   -0.118683  -0.000000
     8  C   -0.435046  -0.000000
     9  C   -0.490916   0.000000
    10  C   -0.055604  -0.000000
    11  C    0.317407   0.000000
    12  C   -0.499916  -0.000000
    13  O   -0.708770   0.000000
    14  H    0.129373  -0.000000
    15  H    0.139910  -0.000000
    16  H    0.137215  -0.000000
    17  H    0.094325  -0.000000
    18  H    0.140148  -0.000000
    19  H    0.157458  -0.000000
    20  H    0.158114   0.000000
    21  H    0.136776   0.000000
 Sum of Mulliken charges =  -2.00000   0.00000

 Dipole moment (field-independent basis, Debye):
    X=              3.6697    Y=             -2.7515    Z=             -0.0089  Tot=              4.5867
 Quadrupole moment (field-independent basis, Debye-Ang):
   XX=           -100.9480   YY=           -141.6934   ZZ=            -87.8452
   XY=            -13.7846   XZ=              0.0352   YZ=              0.0067

 Normal termination of Gaussian 16 at Sun Jan 21 08:47:40 2024.
