 Gaussian 16, Revision A.03,
 Gaussian 16:  ES64L-G16RevA.03 25-Dec-2016

 ----------------------------------------------------------------------
 #P UB3LYP/6-311++G(d,p) nosym opt freq SCRF=(PCM,Solvent=n,n-DiMethylF
 ormamide)
 ----------------------------------------------------------------------

 --------
 Oxidized
 --------
 Symbolic Z-matrix:
 Charge =  0 Multiplicity = 1

 SCF Done:  E(UB3LYP) =  -1148.58411185     A.U. after   15 cycles
 SCF Done:  E(UB3LYP) =  -1148.58419031     A.U. after   10 cycles
 SCF Done:  E(UB3LYP) =  -1148.58419825     A.U. after   10 cycles
 SCF Done:  E(UB3LYP) =  -1148.58420111     A.U. after    9 cycles
 Optimization completed.
    -- Stationary point found.
 Normal termination of Gaussian 16 at Sat Feb 10 16:02:56 2024.

 ----------------------------------------------------------------------
 #P Geom=AllCheck Guess=TCheck SCRF=Check GenChk UB3LYP/6-311++G(d,p) F
 req
 ----------------------------------------------------------------------

 Structure from the checkpoint file:  "118.chk"
 --------
 Oxidized
 --------
 Charge =  0 Multiplicity = 1

                          Input orientation:
 ---------------------------------------------------------------------
 Center     Atomic      Atomic             Coordinates (Angstroms)
 Number     Number       Type             X           Y           Z
 ---------------------------------------------------------------------
      1         17           0        5.190487   -1.485232   -0.005029
      2          6           0        3.659490   -0.639752   -0.152151
      3          6           0        3.659715    0.716867   -0.479641
      4          6           0        2.446011    1.380936   -0.594790
      5          6           0        1.239120    0.705768   -0.386656
      6          6           0       -0.045003    1.448300   -0.518188
      7          8           0       -0.059904    2.638190   -0.805429
      8          6           0       -1.306582    0.690994   -0.287276
      9          6           0       -2.531089    1.356045   -0.402340
     10          6           0       -3.723767    0.672182   -0.192801
     11          6           0       -3.704152   -0.686161    0.134470
     12          6           0       -2.491703   -1.356801    0.251638
     13          6           0       -1.286951   -0.677986    0.042954
     14          6           0       -0.004410   -1.420864    0.175038
     15          8           0        0.020338   -2.609588    0.462135
     16          6           0        1.259820   -0.660550   -0.057257
     17          6           0        2.477388   -1.334588    0.059836
     18          1           0        4.593334    1.239877   -0.640601
     19          1           0        2.423276    2.432973   -0.847996
     20          1           0       -2.532654    2.408257   -0.656569
     21          1           0       -4.668883    1.194232   -0.283815
     22          1           0       -4.633835   -1.218316    0.297317
     23          1           0       -2.462258   -2.408856    0.504756
     24          1           0        2.482211   -2.385929    0.313532
 ---------------------------------------------------------------------

 SCF Done:  E(UB3LYP) =  -1148.58420111     A.U. after    1 cycles

 Alpha  occ. eigenvalues -- -101.57193 -19.13726 -19.13531 -10.28977 -10.28804
 Alpha  occ. eigenvalues --  -10.26523 -10.22047 -10.21631 -10.21350 -10.21298
 Alpha  occ. eigenvalues --  -10.21221 -10.21160 -10.20904 -10.20196 -10.20163
 Alpha  occ. eigenvalues --  -10.20118 -10.20099  -9.48651  -7.25109  -7.24146
 Alpha  occ. eigenvalues --   -7.24089  -1.07068  -1.06779  -0.91994  -0.89354
 Alpha  occ. eigenvalues --   -0.86922  -0.81198  -0.78912  -0.78225  -0.76671
 Alpha  occ. eigenvalues --   -0.69646  -0.67396  -0.64684  -0.62687  -0.59385
 Alpha  occ. eigenvalues --   -0.56867  -0.55929  -0.51492  -0.50018  -0.49530
 Alpha  occ. eigenvalues --   -0.48930  -0.46441  -0.46341  -0.46192  -0.45421
 Alpha  occ. eigenvalues --   -0.45204  -0.44832  -0.42402  -0.41574  -0.41285
 Alpha  occ. eigenvalues --   -0.39063  -0.38459  -0.38346  -0.37183  -0.35127
 Alpha  occ. eigenvalues --   -0.33499  -0.29414  -0.29365  -0.28703  -0.28198
 Alpha  occ. eigenvalues --   -0.28153  -0.27391
 Alpha virt. eigenvalues --   -0.12472  -0.08148  -0.04413  -0.03426  -0.00777
 Alpha virt. eigenvalues --    0.00049   0.00272   0.01074   0.01927   0.02336
 Alpha virt. eigenvalues --    0.02386   0.02944   0.03869   0.04207   0.04534

  Beta  occ. eigenvalues -- -101.57193 -19.13726 -19.13531 -10.28977 -10.28804
  Beta  occ. eigenvalues --  -10.26523 -10.22047 -10.21631 -10.21350 -10.21298
  Beta  occ. eigenvalues --  -10.21221 -10.21160 -10.20904 -10.20196 -10.20163
  Beta  occ. eigenvalues --  -10.20118 -10.20099  -9.48651  -7.25109  -7.24146
  Beta  occ. eigenvalues --   -7.24089  -1.07068  -1.06779  -0.91994  -0.89354
  Beta  occ. eigenvalues --   -0.86922  -0.81198  -0.78912  -0.78225  -0.76671
  Beta  occ. eigenvalues --   -0.69646  -0.67396  -0.64684  -0.62687  -0.59385
  Beta  occ. eigenvalues --   -0.56867  -0.55929  -0.51492  -0.50018  -0.49530
  Beta  occ. eigenvalues --   -0.48930  -0.46441  -0.46341  -0.46192  -0.45421
  Beta  occ. eigenvalues --   -0.45204  -0.44832  -0.42402  -0.41574  -0.41285
  Beta  occ. eigenvalues --   -0.39063  -0.38459  -0.38346  -0.37183  -0.35127
  Beta  occ. eigenvalues --   -0.33499  -0.29414  -0.29365  -0.28703  -0.28198
  Beta  occ. eigenvalues --   -0.28153  -0.27391
  Beta virt. eigenvalues --   -0.12472  -0.08148  -0.04413  -0.03426  -0.00777
  Beta virt. eigenvalues --    0.00049   0.00272   0.01074   0.01927   0.02336
  Beta virt. eigenvalues --    0.02386   0.02944   0.03869   0.04207   0.04534

 Mulliken charges and spin densities:
               1          2
     1  Cl   0.514261   0.000000
     2  C    0.574458   0.000000
     3  C   -0.451474  -0.000000
     4  C    0.112806   0.000000
     5  C    0.086933  -0.000000
     6  C   -0.688469  -0.000000
     7  O   -0.272433   0.000000
     8  C    0.112746  -0.000000
     9  C    0.214231   0.000000
    10  C   -0.406044  -0.000000
    11  C   -0.402961  -0.000000
    12  C    0.192863   0.000000
    13  C    0.224669  -0.000000
    14  C   -0.736189  -0.000000
    15  O   -0.267427   0.000000
    16  C   -0.041713   0.000000
    17  C   -0.203933   0.000000
    18  H    0.230640  -0.000000
    19  H    0.197617   0.000000
    20  H    0.189840  -0.000000
    21  H    0.209762   0.000000
    22  H    0.209962   0.000000
    23  H    0.188173  -0.000000
    24  H    0.211681  -0.000000
 Sum of Mulliken charges =  -0.00000   0.00000

 Dipole moment (field-independent basis, Debye):
    X=             -2.1699    Y=              0.9469    Z=             -0.1497  Tot=              2.3722
 Quadrupole moment (field-independent basis, Debye-Ang):
   XX=            -83.9189   YY=           -116.3105   ZZ=           -106.4593
   XY=              5.7953   XZ=             -1.8552   YZ=              2.1212

  Exact polarizability: 377.552 -20.169 281.053  -4.907 -39.227 125.136
 Approx polarizability: 398.405 -19.328 366.396  -5.082 -54.703 150.557

                      1                      2                      3
                      A                      A                      A
 Frequencies --     32.3193                79.6331               111.5742
 Red. masses --      9.2694                 7.1057                 4.8278
 Frc consts  --      0.0057                 0.0265                 0.0354
 IR Inten    --      6.4191                 5.3071                 0.1762

                      4                      5                      6
                      A                      A                      A
 Frequencies --    138.9434               152.0820               188.1468
 Red. masses --      6.5250                10.8029                 6.1028
 Frc consts  --      0.0742                 0.1472                 0.1273
 IR Inten    --      2.5005                 0.1288                 0.1307

                      7                      8                      9
                      A                      A                      A
 Frequencies --    261.3222               277.5030               296.7834
 Red. masses --      7.1634                 6.3079                10.6084
 Frc consts  --      0.2882                 0.2862                 0.5505
 IR Inten    --      0.8418                 0.3208                 0.9717

                     10                     11                     12
                      A                      A                      A
 Frequencies --    358.1360               386.4711               413.7089
 Red. masses --      6.9126                10.7845                 3.3264
 Frc consts  --      0.5224                 0.9490                 0.3354
 IR Inten    --      1.5550                33.3685                 1.1426

                     13                     14                     15
                      A                      A                      A
 Frequencies --    415.3269               444.6311               450.8256
 Red. masses --      7.7126                 3.4824                 4.3151
 Frc consts  --      0.7838                 0.4056                 0.5167
 IR Inten    --     16.3103                 0.0278                 1.2787

                     16                     17                     18
                      A                      A                      A
 Frequencies --    468.9781               516.8496               532.5431
 Red. masses --     12.1456                 8.6608                 4.7211
 Frc consts  --      1.5739                 1.3631                 0.7889
 IR Inten    --     10.6705                42.3286                 9.0937

                     19                     20                     21
                      A                      A                      A
 Frequencies --    643.7404               655.6554               665.4811
 Red. masses --      7.0494                 7.0099                 4.2591
 Frc consts  --      1.7212                 1.7755                 1.1113
 IR Inten    --     17.2531                 7.4474                 8.3934

                     22                     23                     24
                      A                      A                      A
 Frequencies --    696.2794               714.6366               725.5084
 Red. masses --      6.7141                 7.7900                 3.9318
 Frc consts  --      1.9178                 2.3440                 1.2193
 IR Inten    --      0.4925                26.7926                20.3222

                     25                     26                     27
                      A                      A                      A
 Frequencies --    730.7810               804.7850               809.5861
 Red. masses --      2.2988                 2.8399                 2.1535
 Frc consts  --      0.7233                 1.0837                 0.8316
 IR Inten    --    120.1448                 0.0442                 4.9591

                     28                     29                     30
                      A                      A                      A
 Frequencies --    822.5164               862.3129               915.1522
 Red. masses --      6.8962                 1.5915                 1.4011
 Frc consts  --      2.7488                 0.6973                 0.6914
 IR Inten    --     56.6769                34.5318                 2.0377

                     31                     32                     33
                      A                      A                      A
 Frequencies --    928.5834               937.8232               967.4962
 Red. masses --      1.4826                 7.0160                 6.3026
 Frc consts  --      0.7532                 3.6356                 3.4759
 IR Inten    --     12.9665               148.9656                31.8401

                     34                     35                     36
                      A                      A                      A
 Frequencies --   1000.5520              1004.3998              1025.3013
 Red. masses --      1.3516                 1.3925                 1.3369
 Frc consts  --      0.7972                 0.8277                 0.8280
 IR Inten    --      0.0054                 3.0763                 0.0012

                     37                     38                     39
                      A                      A                      A
 Frequencies --   1056.1723              1090.2940              1112.2501
 Red. masses --      2.0036                 2.1005                 2.2534
 Frc consts  --      1.3169                 1.4712                 1.6424
 IR Inten    --      2.5366                47.4632                 3.5978

                     40                     41                     42
                      A                      A                      A
 Frequencies --   1126.2699              1174.1422              1182.7581
 Red. masses --      2.1663                 1.4667                 1.8178
 Frc consts  --      1.6190                 1.1913                 1.4983
 IR Inten    --      8.7185                 0.6664                59.3831

                     43                     44                     45
                      A                      A                      A
 Frequencies --   1190.1905              1230.0517              1271.8575
 Red. masses --      1.9957                 1.7183                 1.5319
 Frc consts  --      1.6657                 1.5318                 1.4600
 IR Inten    --     13.3417                 3.4083               125.3377

                     46                     47                     48
                      A                      A                      A
 Frequencies --   1292.7590              1311.0202              1345.0246
 Red. masses --      4.5515                 2.3930                 7.9679
 Frc consts  --      4.4817                 2.4233                 8.4928
 IR Inten    --   1334.7275                45.3442                58.1874

                     49                     50                     51
                      A                      A                      A
 Frequencies --   1360.4553              1430.8459              1480.4109
 Red. masses --      8.4467                 3.9906                 2.3970
 Frc consts  --      9.2109                 4.8136                 3.0952
 IR Inten    --     26.1326                21.9703                 5.2497

                     52                     53                     54
                      A                      A                      A
 Frequencies --   1495.4332              1505.1567              1596.7426
 Red. masses --      2.7079                 2.6039                 7.5273
 Frc consts  --      3.5679                 3.4757                11.3073
 IR Inten    --      4.5968                18.4093                22.0266

                     55                     56                     57
                      A                      A                      A
 Frequencies --   1607.8155              1612.1260              1622.7930
 Red. masses --      6.6019                 7.2099                 5.8199
 Frc consts  --     10.0552                11.0403                 9.0301
 IR Inten    --    490.0028                27.7433                70.2633

                     58                     59                     60
                      A                      A                      A
 Frequencies --   1695.9192              1704.0817              3180.5371
 Red. masses --     12.4108                11.8175                 1.0875
 Frc consts  --     21.0310                20.2188                 6.4817
 IR Inten    --     28.8674               726.1829                 3.0227

                     61                     62                     63
                      A                      A                      A
 Frequencies --   3192.6429              3200.9495              3204.5591
 Red. masses --      1.0913                 1.0889                 1.0926
 Frc consts  --      6.5540                 6.5736                 6.6107
 IR Inten    --      9.1863                 0.1484                 2.4073

                     64                     65                     66
                      A                      A                      A
 Frequencies --   3207.5866              3212.4370              3215.6170
 Red. masses --      1.0956                 1.0952                 1.0919
 Frc consts  --      6.6415                 6.6594                 6.6524
 IR Inten    --     20.5701                 1.8020                 6.2194

 - Thermochemistry -
 -------------------
 Temperature   298.150 Kelvin.  Pressure   1.00000 Atm.
 Atom     1 has atomic number 17 and mass  34.96885

 Molecular mass:   242.01346 amu.
 Principal axes and moments of inertia in atomic units:
                           1         2         3
     Eigenvalues --  1750.167597044.789498794.95667
           X            0.98807   0.14966   0.03640
           Y           -0.15402   0.95973   0.23494
           Z            0.00023  -0.23774   0.97133
 This molecule is an asymmetric top.
 Rotational symmetry number  1.
 Warning -- assumption of classical behavior for rotation
           may cause significant error
 Rotational temperatures (Kelvin)      0.04949     0.01229     0.00985
 Rotational constants (GHZ):           1.03118     0.25618     0.20520
 Zero-point vibrational energy     444683.5 (Joules/Mol)
                                  106.28190 (Kcal/Mol)
 Warning -- explicit consideration of  18 degrees of freedom as
           vibrations may cause significant error
 Vibrational temperatures:     46.50   114.57   160.53   199.91   218.81
          (Kelvin)            270.70   375.98   399.26   427.01   515.28
                              556.05   595.23   597.56   639.72   648.64
                              674.75   743.63   766.21   926.20   943.34
                              957.48  1001.79  1028.20  1043.84  1051.43
                             1157.91  1164.81  1183.42  1240.68  1316.70
                             1336.02  1349.32  1392.01  1439.57  1445.11
                             1475.18  1519.60  1568.69  1600.28  1620.45
                             1689.33  1701.73  1712.42  1769.77  1829.92
                             1859.99  1886.27  1935.19  1957.39  2058.67
                             2129.98  2151.59  2165.58  2297.36  2313.29
                             2319.49  2334.84  2440.05  2451.79  4576.08
                             4593.50  4605.45  4610.65  4615.00  4621.98
                             4626.56

 Zero-point correction=                           0.169371 (Hartree/Particle)
 Thermal correction to Energy=                    0.181912
 Thermal correction to Enthalpy=                  0.182857
 Thermal correction to Gibbs Free Energy=         0.129415
 Sum of electronic and zero-point Energies=          -1148.414830
 Sum of electronic and thermal Energies=             -1148.402289
 Sum of electronic and thermal Enthalpies=           -1148.401344
 Sum of electronic and thermal Free Energies=        -1148.454786

                     E (Thermal)             CV                S
                      KCal/Mol        Cal/Mol-Kelvin    Cal/Mol-Kelvin
 Total                  114.152             49.609            112.477
 Electronic               0.000              0.000              0.000
 Translational            0.889              2.981             42.353
 Rotational               0.889              2.981             33.050
 Vibrational            112.374             43.647             37.075
 Vibration     1          0.594              1.983              5.682
 Vibration     2          0.600              1.963              3.900
 Vibration     3          0.607              1.940              3.241
 Vibration     4          0.615              1.914              2.818
 Vibration     5          0.619              1.900              2.646
 Vibration     6          0.633              1.856              2.246
 Vibration     7          0.669              1.744              1.653
 Vibration     8          0.678              1.715              1.549
 Vibration     9          0.690              1.680              1.435
 Vibration    10          0.733              1.559              1.130
 Vibration    11          0.755              1.499              1.014
 Vibration    12          0.777              1.440              0.914
 Vibration    13          0.779              1.437              0.908
 Vibration    14          0.804              1.373              0.812
 Vibration    15          0.810              1.359              0.793
 Vibration    16          0.826              1.319              0.740
 Vibration    17          0.872              1.213              0.617
 Vibration    18          0.888              1.178              0.582

 Optimization completed.
    -- Stationary point found.
 Normal termination of Gaussian 16 at Sat Feb 10 16:43:55 2024.
