 Q-Chem 5.4, Q-Chem, Inc., Pleasanton, CA (2021)
 Q-Chem 5.4.0 for Intel X86 EM64T Linux

User input:
--------------------------------------------------------------
$molecule
-2 1
C                 -2.8885130000      1.3070220000     -0.7442200000
C                 -2.1568070000      0.0858080000     -0.1531120000
C                 -2.7053350000     -0.1413840000      1.2780930000
C                 -2.5119460000     -1.1423190000     -1.0285320000
C                 -0.6212880000      0.2494780000     -0.0953760000
C                 -0.0038860000      1.4406350000     -0.5610190000
C                  1.3861690000      1.7121100000     -0.5625690000
O                  1.9077720000      2.8169560000     -0.9989430000
C                  2.1915380000      0.6255390000     -0.0235020000
C                  3.5990680000      0.7505380000      0.0400350000
C                  4.4088010000     -0.2521930000      0.5431580000
C                  3.8164350000     -1.4544300000      1.0155750000
C                  2.4427450000     -1.6058880000      0.9663990000
C                  1.5856380000     -0.5980110000      0.4571000000
C                  0.1505980000     -0.8289840000      0.4375940000
O                 -0.3561720000     -1.9490440000      0.8813120000
H                 -2.5725090000      1.5102980000     -1.7722990000
H                 -3.9709050000      1.1152160000     -0.7514230000
H                 -2.7074260000      2.2117940000     -0.1554180000
H                 -2.1856010000     -0.9939040000      1.7216660000
H                 -3.7911270000     -0.3335710000      1.2604520000
H                 -2.5257660000      0.7477900000      1.8939700000
H                 -3.5991840000     -1.3269930000     -1.0297650000
H                 -1.9882530000     -2.0167310000     -0.6349840000
H                 -2.1935500000     -0.9697450000     -2.0634180000
H                 -0.6166410000      2.2438550000     -0.9610980000
H                  4.0141800000      1.6839820000     -0.3304320000
H                  5.4903170000     -0.1233170000      0.5777770000
H                  4.4425150000     -2.2523840000      1.4144660000
H                  1.9591290000     -2.5121240000      1.3194200000
$end
$rem
MAX_SCF_CYCLES=200
BASIS  =  6-311++G(d,p)
GUI  =  2
JOB_TYPE  =  SP
METHOD  =  B3LYP
SOLVENT_METHOD = PCM
$end
$pcm
theory = CPCM
$end
$solvent
dielectric 37.219
opticaldielectric 1.43
$end

--------------------------------------------------------------

             Standard Nuclear Orientation (Angstroms)
    I     Atom           X                Y                Z
 ----------------------------------------------------------------
    1      C      -2.8885130000     1.3070220000    -0.7442200000
    2      C      -2.1568070000     0.0858080000    -0.1531120000
    3      C      -2.7053350000    -0.1413840000     1.2780930000
    4      C      -2.5119460000    -1.1423190000    -1.0285320000
    5      C      -0.6212880000     0.2494780000    -0.0953760000
    6      C      -0.0038860000     1.4406350000    -0.5610190000
    7      C       1.3861690000     1.7121100000    -0.5625690000
    8      O       1.9077720000     2.8169560000    -0.9989430000
    9      C       2.1915380000     0.6255390000    -0.0235020000
   10      C       3.5990680000     0.7505380000     0.0400350000
   11      C       4.4088010000    -0.2521930000     0.5431580000
   12      C       3.8164350000    -1.4544300000     1.0155750000
   13      C       2.4427450000    -1.6058880000     0.9663990000
   14      C       1.5856380000    -0.5980110000     0.4571000000
   15      C       0.1505980000    -0.8289840000     0.4375940000
   16      O      -0.3561720000    -1.9490440000     0.8813120000
   17      H      -2.5725090000     1.5102980000    -1.7722990000
   18      H      -3.9709050000     1.1152160000    -0.7514230000
   19      H      -2.7074260000     2.2117940000    -0.1554180000
   20      H      -2.1856010000    -0.9939040000     1.7216660000
   21      H      -3.7911270000    -0.3335710000     1.2604520000
   22      H      -2.5257660000     0.7477900000     1.8939700000
   23      H      -3.5991840000    -1.3269930000    -1.0297650000
   24      H      -1.9882530000    -2.0167310000    -0.6349840000
   25      H      -2.1935500000    -0.9697450000    -2.0634180000
   26      H      -0.6166410000     2.2438550000    -0.9610980000
   27      H       4.0141800000     1.6839820000    -0.3304320000
   28      H       5.4903170000    -0.1233170000     0.5777770000
   29      H       4.4425150000    -2.2523840000     1.4144660000
   30      H       1.9591290000    -2.5121240000     1.3194200000
 ----------------------------------------------------------------

    9    -692.8045899838      7.34e-06  Convergence criterion met
 Total energy in the final basis set =     -692.8045899838

                    Orbital Energies (a.u.)
 --------------------------------------------------------------

 Alpha MOs
 -- Occupied --
-19.0175 -19.0108 -10.1679 -10.1651 -10.1599 -10.1488 -10.1483 -10.1450
-10.1436 -10.1374 -10.1358 -10.1354 -10.1301 -10.1301 -10.1273 -10.1153
 -0.9299  -0.9229  -0.8226  -0.7968  -0.7509  -0.7208  -0.6946  -0.6639
 -0.6584  -0.6371  -0.5864  -0.5780  -0.5305  -0.5102  -0.4698  -0.4610
 -0.4368  -0.4263  -0.4140  -0.4119  -0.3990  -0.3893  -0.3802  -0.3787
 -0.3631  -0.3606  -0.3503  -0.3466  -0.3445  -0.3227  -0.3162  -0.3111
 -0.3032  -0.3015  -0.2995  -0.2923  -0.2281  -0.2209  -0.2084  -0.1982
 -0.1878  -0.1121

          Ground-State Mulliken Net Atomic Charges

     Atom                 Charge (a.u.)
  ----------------------------------------
      1 C                    -0.528834
      2 C                     0.775433
      3 C                    -0.692209
      4 C                    -0.690956
      5 C                     0.668003
      6 C                    -0.386595
      7 C                    -0.548631
      8 O                    -0.745842
      9 C                     0.510658
     10 C                    -0.155411
     11 C                    -0.492624
     12 C                    -0.465872
     13 C                     0.047211
     14 C                     0.303408
     15 C                    -0.977721
     16 O                    -0.683023
     17 H                     0.131710
     18 H                     0.166106
     19 H                     0.131744
     20 H                     0.176053
     21 H                     0.135742
     22 H                     0.122853
     23 H                     0.135729
     24 H                     0.175685
     25 H                     0.123205
     26 H                     0.135199
     27 H                     0.139661
     28 H                     0.172214
     29 H                     0.172617
     30 H                     0.144487
  ----------------------------------------
  Sum of atomic charges =    -2.000000

                    Cartesian Multipole Moments
 -----------------------------------------------------------------
    Charge (ESU x 10^10)
                -9.6064
    Dipole Moment (Debye)
         X      -9.0940      Y      -3.8472      Z       0.2881
       Tot       9.8785
    Quadrupole Moments (Debye-Ang)
        XX    -134.5876     XY     -21.5638     YY    -152.7265
        XZ       6.7042     YZ      16.5494     ZZ    -116.4899

 Total job time:  54.66s(wall), 362.09s(cpu)
        *  Thank you very much for using Q-Chem.  Have a nice day.  *
