 Gaussian 16, Revision A.03,
 Gaussian 16:  ES64L-G16RevA.03 25-Dec-2016

 --------------------------------------
 #P UB3LYP/6-311++G(d,p) nosym opt freq
 --------------------------------------

 -------
 Reduced
 -------
 Symbolic Z-matrix:
 Charge = -2 Multiplicity = 1

 SCF Done:  E(UB3LYP) =  -692.530174559     A.U. after   38 cycles
 SCF Done:  E(UB3LYP) =  -692.530351279     A.U. after   26 cycles
 SCF Done:  E(UB3LYP) =  -692.529970947     A.U. after   26 cycles
 SCF Done:  E(UB3LYP) =  -692.530411836     A.U. after   27 cycles
 SCF Done:  E(UB3LYP) =  -692.530434559     A.U. after   21 cycles
 SCF Done:  E(UB3LYP) =  -692.530435544     A.U. after   29 cycles
 SCF Done:  E(UB3LYP) =  -692.530435684     A.U. after   17 cycles
 Optimization completed.
    -- Stationary point found.
 Normal termination of Gaussian 16 at Sun Jan  7 21:05:44 2024.

 ----------------------------------------------------------------------
 #P Geom=AllCheck Guess=TCheck SCRF=Check GenChk UB3LYP/6-311++G(d,p) F
 req
 ----------------------------------------------------------------------

 Structure from the checkpoint file:  "239-an.chk"
 -------
 Reduced
 -------
 Charge = -2 Multiplicity = 1

                          Input orientation:
 ---------------------------------------------------------------------
 Center     Atomic      Atomic             Coordinates (Angstroms)
 Number     Number       Type             X           Y           Z
 ---------------------------------------------------------------------
      1          6           0       -2.888513    1.307022   -0.744220
      2          6           0       -2.156807    0.085808   -0.153112
      3          6           0       -2.705335   -0.141384    1.278093
      4          6           0       -2.511946   -1.142319   -1.028532
      5          6           0       -0.621288    0.249478   -0.095376
      6          6           0       -0.003886    1.440635   -0.561019
      7          6           0        1.386169    1.712110   -0.562569
      8          8           0        1.907772    2.816956   -0.998943
      9          6           0        2.191538    0.625539   -0.023502
     10          6           0        3.599068    0.750538    0.040035
     11          6           0        4.408801   -0.252193    0.543158
     12          6           0        3.816435   -1.454430    1.015575
     13          6           0        2.442745   -1.605888    0.966399
     14          6           0        1.585638   -0.598011    0.457100
     15          6           0        0.150598   -0.828984    0.437594
     16          8           0       -0.356172   -1.949044    0.881312
     17          1           0       -2.572509    1.510298   -1.772299
     18          1           0       -3.970905    1.115216   -0.751423
     19          1           0       -2.707426    2.211794   -0.155418
     20          1           0       -2.185601   -0.993904    1.721666
     21          1           0       -3.791127   -0.333571    1.260452
     22          1           0       -2.525766    0.747790    1.893970
     23          1           0       -3.599184   -1.326993   -1.029765
     24          1           0       -1.988253   -2.016731   -0.634984
     25          1           0       -2.193550   -0.969745   -2.063418
     26          1           0       -0.616641    2.243855   -0.961098
     27          1           0        4.014180    1.683982   -0.330432
     28          1           0        5.490317   -0.123317    0.577777
     29          1           0        4.442515   -2.252384    1.414466
     30          1           0        1.959129   -2.512124    1.319420
 ---------------------------------------------------------------------

 SCF Done:  E(UB3LYP) =  -692.530435684     A.U. after    2 cycles

 Alpha  occ. eigenvalues --  -18.75469 -18.75069  -9.94255  -9.93426  -9.91677
 Alpha  occ. eigenvalues --   -9.91676  -9.91409  -9.91395  -9.91329  -9.91189
 Alpha  occ. eigenvalues --   -9.90325  -9.90264  -9.88647  -9.88509  -9.88299
 Alpha  occ. eigenvalues --   -9.86560  -0.66820  -0.66126  -0.57845  -0.57599
 Alpha  occ. eigenvalues --   -0.50699  -0.47696  -0.45452  -0.45297  -0.44432
 Alpha  occ. eigenvalues --   -0.38918  -0.35049  -0.33521  -0.29683  -0.27405
 Alpha  occ. eigenvalues --   -0.23242  -0.23135  -0.20355  -0.20231  -0.19533
 Alpha  occ. eigenvalues --   -0.17966  -0.16391  -0.15925  -0.15551  -0.14868
 Alpha  occ. eigenvalues --   -0.13172  -0.12172  -0.11430  -0.10921  -0.09449
 Alpha  occ. eigenvalues --   -0.09335  -0.08829  -0.07998  -0.06173  -0.06050
 Alpha  occ. eigenvalues --   -0.05025  -0.04692   0.01888   0.03386   0.04248
 Alpha  occ. eigenvalues --    0.06572   0.07165   0.14572
 Alpha virt. eigenvalues --    0.15950   0.16827   0.18223   0.18437   0.18558
 Alpha virt. eigenvalues --    0.19638   0.21261   0.21529   0.21666   0.21959
 Alpha virt. eigenvalues --    0.23040   0.23682   0.23833   0.25119   0.25284

  Beta  occ. eigenvalues --  -18.75469 -18.75069  -9.94255  -9.93426  -9.91677
  Beta  occ. eigenvalues --   -9.91676  -9.91409  -9.91395  -9.91329  -9.91189
  Beta  occ. eigenvalues --   -9.90325  -9.90264  -9.88647  -9.88509  -9.88299
  Beta  occ. eigenvalues --   -9.86560  -0.66820  -0.66126  -0.57845  -0.57599
  Beta  occ. eigenvalues --   -0.50699  -0.47696  -0.45452  -0.45297  -0.44432
  Beta  occ. eigenvalues --   -0.38918  -0.35049  -0.33521  -0.29683  -0.27405
  Beta  occ. eigenvalues --   -0.23242  -0.23135  -0.20355  -0.20231  -0.19533
  Beta  occ. eigenvalues --   -0.17966  -0.16391  -0.15925  -0.15551  -0.14868
  Beta  occ. eigenvalues --   -0.13172  -0.12172  -0.11430  -0.10921  -0.09449
  Beta  occ. eigenvalues --   -0.09335  -0.08829  -0.07998  -0.06173  -0.06050
  Beta  occ. eigenvalues --   -0.05025  -0.04692   0.01888   0.03386   0.04248
  Beta  occ. eigenvalues --    0.06572   0.07165   0.14572
  Beta virt. eigenvalues --    0.15950   0.16827   0.18223   0.18437   0.18558
  Beta virt. eigenvalues --    0.19638   0.21261   0.21529   0.21666   0.21959
  Beta virt. eigenvalues --    0.23040   0.23682   0.23833   0.25119   0.25284

 Mulliken charges and spin densities:
               1          2
     1  C   -0.601523  -0.000000
     2  C    0.926752  -0.000000
     3  C   -0.680046   0.000000
     4  C   -0.680269  -0.000000
     5  C    0.970228   0.000000
     6  C   -0.218738  -0.000000
     7  C   -1.148371   0.000000
     8  O   -0.563459  -0.000000
     9  C    0.840085   0.000000
    10  C   -0.235034  -0.000000
    11  C   -0.400487  -0.000000
    12  C   -0.402848   0.000000
    13  C    0.059524  -0.000000
    14  C    0.623224   0.000000
    15  C   -1.414214  -0.000000
    16  O   -0.518500   0.000000
    17  H    0.112005  -0.000000
    18  H    0.104382   0.000000
    19  H    0.112017   0.000000
    20  H    0.209121   0.000000
    21  H    0.044677  -0.000000
    22  H    0.083913   0.000000
    23  H    0.044441   0.000000
    24  H    0.209104  -0.000000
    25  H    0.084005  -0.000000
    26  H    0.068765   0.000000
    27  H    0.115281  -0.000000
    28  H    0.065090   0.000000
    29  H    0.067198  -0.000000
    30  H    0.123677   0.000000
 Sum of Mulliken charges =  -2.00000  -0.00000

 Dipole moment (field-independent basis, Debye):
    X=             -8.5712    Y=             -2.7295    Z=             -0.1536  Tot=              8.9966
 Quadrupole moment (field-independent basis, Debye-Ang):
   XX=           -162.8762   YY=           -151.7958   ZZ=           -119.0945
   XY=            -14.3621   XZ=              1.4546   YZ=             15.7422

  Exact polarizability: 397.822  -4.667 224.109  24.268 -42.428 147.674
 Approx polarizability: 542.905 -17.462 387.138  34.018 -69.997 262.492

                      1                      2                      3
                      A                      A                      A
 Frequencies --     54.3912                69.6903               136.0448
 Red. masses --      4.4123                 3.4286                 4.2673
 Frc consts  --      0.0077                 0.0098                 0.0465
 IR Inten    --      5.0967                 0.1403                 0.3788

                      4                      5                      6
                      A                      A                      A
 Frequencies --    170.1998               181.5516               207.4219
 Red. masses --      5.7528                 3.7086                 4.5827
 Frc consts  --      0.0982                 0.0720                 0.1162
 IR Inten    --      5.8838                 5.1343                 0.0008

                      7                      8                      9
                      A                      A                      A
 Frequencies --    258.1563               268.4306               275.8898
 Red. masses --      1.0444                 3.7228                 3.6297
 Frc consts  --      0.0410                 0.1580                 0.1628
 IR Inten    --      0.4610                 3.0262                 7.5571

                     10                     11                     12
                      A                      A                      A
 Frequencies --    296.9313               301.2159               320.9006
 Red. masses --      1.2532                 3.4389                 2.4287
 Frc consts  --      0.0651                 0.1838                 0.1474
 IR Inten    --      0.4815                 3.1709                 3.1825

                     13                     14                     15
                      A                      A                      A
 Frequencies --    321.3023               365.8404               380.8996
 Red. masses --      1.0841                10.8440                 2.7845
 Frc consts  --      0.0659                 0.8551                 0.2380
 IR Inten    --      0.5878                 0.9796                 0.5122

                     16                     17                     18
                      A                      A                      A
 Frequencies --    416.4434               425.8731               440.5912
 Red. masses --      2.6113                 3.8373                 3.4086
 Frc consts  --      0.2668                 0.4101                 0.3898
 IR Inten    --      2.5469                 0.0208                 2.8357

                     19                     20                     21
                      A                      A                      A
 Frequencies --    472.0508               482.3595               536.0252
 Red. masses --      4.9887                 6.8731                 4.1593
 Frc consts  --      0.6550                 0.9422                 0.7041
 IR Inten    --      1.8280                 0.4255                 1.9681

                     22                     23                     24
                      A                      A                      A
 Frequencies --    547.2203               619.1585               632.3175
 Red. masses --      3.8258                 5.3273                 2.6474
 Frc consts  --      0.6750                 1.2033                 0.6237
 IR Inten    --      5.7008                 9.9846                 4.4225

                     25                     26                     27
                      A                      A                      A
 Frequencies --    671.0437               691.2659               720.9345
 Red. masses --      5.8580                 2.2225                 6.0317
 Frc consts  --      1.5542                 0.6257                 1.8470
 IR Inten    --      0.3269                34.9358                27.1547

                     28                     29                     30
                      A                      A                      A
 Frequencies --    739.5132               761.0957               789.8950
 Red. masses --      1.9294                 1.9990                 3.8666
 Frc consts  --      0.6217                 0.6823                 1.4214
 IR Inten    --     34.7014                 0.5251                26.3937

                     31                     32                     33
                      A                      A                      A
 Frequencies --    810.9719               832.4178               834.8714
 Red. masses --      2.2849                 2.0128                 5.0168
 Frc consts  --      0.8854                 0.8217                 2.0602
 IR Inten    --      8.0203                29.3642                13.7072

                     34                     35                     36
                      A                      A                      A
 Frequencies --    899.0879               912.1369               930.6639
 Red. masses --      3.2506                 1.7842                 1.8238
 Frc consts  --      1.5482                 0.8746                 0.9307
 IR Inten    --     28.7263                 0.0227                18.6087

                     37                     38                     39
                      A                      A                      A
 Frequencies --    946.0043               951.2568               955.7031
 Red. masses --      1.2563                 1.2128                 1.3277
 Frc consts  --      0.6624                 0.6466                 0.7145
 IR Inten    --      2.1156                 1.9882                 2.0197

                     40                     41                     42
                      A                      A                      A
 Frequencies --   1011.5456              1034.9526              1047.2885
 Red. masses --      2.1945                 1.4363                 1.3811
 Frc consts  --      1.3230                 0.9064                 0.8925
 IR Inten    --     83.8878                15.3504                 6.0436

                     43                     44                     45
                      A                      A                      A
 Frequencies --   1083.8659              1096.6169              1122.4067
 Red. masses --      2.3945                 2.8024                 1.5814
 Frc consts  --      1.6573                 1.9856                 1.1738
 IR Inten    --     30.5223                27.8479                90.2217

                     46                     47                     48
                      A                      A                      A
 Frequencies --   1153.7928              1206.2411              1207.5481
 Red. masses --      1.8493                 2.6348                 2.5190
 Frc consts  --      1.4505                 2.2587                 2.1641
 IR Inten    --      0.5659                 0.6292               165.5947

                     49                     50                     51
                      A                      A                      A
 Frequencies --   1210.3962              1218.3435              1248.7275
 Red. masses --      2.5222                 1.9234                 2.3230
 Frc consts  --      2.1771                 1.6821                 2.1342
 IR Inten    --     54.4019               213.5932                60.8713

                     52                     53                     54
                      A                      A                      A
 Frequencies --   1274.7912              1323.4114              1346.6893
 Red. masses --      2.7618                 4.2958                 1.2143
 Frc consts  --      2.6444                 4.4328                 1.2975
 IR Inten    --      9.2524               117.2877                12.4847

                     55                     56                     57
                      A                      A                      A
 Frequencies --   1354.0240              1368.6444              1378.8300
 Red. masses --      1.5616                 3.7614                 1.5973
 Frc consts  --      1.6869                 4.1513                 1.7892
 IR Inten    --    151.1822               131.0363               231.7429

                     58                     59                     60
                      A                      A                      A
 Frequencies --   1408.0911              1410.3701              1447.0140
 Red. masses --      2.5902                 2.6555                 2.9916
 Frc consts  --      3.0258                 3.1122                 3.6906
 IR Inten    --    440.2302                21.8726                 5.6678

                     61                     62                     63
                      A                      A                      A
 Frequencies --   1456.2545              1474.8197              1483.6593
 Red. masses --      1.0476                 1.4297                 1.0486
 Frc consts  --      1.3089                 1.8321                 1.3600
 IR Inten    --      0.0064                18.2646                 1.5867

                     64                     65                     66
                      A                      A                      A
 Frequencies --   1490.1223              1493.4918              1510.0665
 Red. masses --      1.5924                 1.2881                 1.0545
 Frc consts  --      2.0832                 1.6928                 1.4168
 IR Inten    --      4.9675                15.8010                 5.3653

                     67                     68                     69
                      A                      A                      A
 Frequencies --   1513.1545              1527.1173              1576.4601
 Red. masses --      4.1712                 1.0609                 5.5283
 Frc consts  --      5.6270                 1.4578                 8.0948
 IR Inten    --    158.4072                 2.9966                10.4781

                     70                     71                     72
                      A                      A                      A
 Frequencies --   1587.0280              2935.9745              2941.3722
 Red. masses --      6.5607                 1.0481                 1.0512
 Frc consts  --      9.7357                 5.3232                 5.3582
 IR Inten    --     74.0651                 6.9484               442.8191

                     73                     74                     75
                      A                      A                      A
 Frequencies --   2979.2533              3023.6373              3024.8623
 Red. masses --      1.0453                 1.0821                 1.0859
 Frc consts  --      5.4663                 5.8290                 5.8540
 IR Inten    --    225.5302                40.7616               192.1328

                     76                     77                     78
                      A                      A                      A
 Frequencies --   3041.4790              3069.1096              3076.8685
 Red. masses --      1.0868                 1.1010                 1.0820
 Frc consts  --      5.9233                 6.1102                 6.0353
 IR Inten    --     73.6373                30.2113                43.4619

                     79                     80                     81
                      A                      A                      A
 Frequencies --   3081.7287              3083.7573              3102.2777
 Red. masses --      1.1003                 1.0995                 1.0904
 Frc consts  --      6.1568                 6.1606                 6.1830
 IR Inten    --      9.1095                11.4284               145.1875

                     82                     83                     84
                      A                      A                      A
 Frequencies --   3134.6191              3146.4801              3152.3502
 Red. masses --      1.0846                 1.0902                 1.0905
 Frc consts  --      6.2793                 6.3595                 6.3849
 IR Inten    --     59.6552                44.7375                42.8429

 - Thermochemistry -
 -------------------
 Temperature   298.150 Kelvin.  Pressure   1.00000 Atm.
 Atom     1 has atomic number  6 and mass  12.00000

 Molecular mass:   214.09938 amu.
 Principal axes and moments of inertia in atomic units:
                           1         2         3
     Eigenvalues --  1863.323564560.404606026.11517
           X            0.99602   0.04565  -0.07653
           Y           -0.01154   0.91769   0.39713
           Z            0.08836  -0.39466   0.91457
 This molecule is an asymmetric top.
 Rotational symmetry number  1.
 Warning -- assumption of classical behavior for rotation
           may cause significant error
 Rotational temperatures (Kelvin)      0.04648     0.01899     0.01437
 Rotational constants (GHZ):           0.96856     0.39574     0.29949
 Zero-point vibrational energy     624972.9 (Joules/Mol)
                                  149.37210 (Kcal/Mol)
 Warning -- explicit consideration of  23 degrees of freedom as
           vibrations may cause significant error
 Vibrational temperatures:     78.26   100.27   195.74   244.88   261.21
          (Kelvin)            298.43   371.43   386.21   396.94   427.22
                              433.38   461.70   462.28   526.36   548.03
                              599.17   612.74   633.91   679.18   694.01
                              771.22   787.33   890.83   909.76   965.48
                              994.58  1037.26  1063.99  1095.05  1136.48
                             1166.81  1197.66  1201.19  1293.59  1312.36
                             1339.02  1361.09  1368.65  1375.04  1455.39
                             1489.07  1506.81  1559.44  1577.79  1614.89
                             1660.05  1735.51  1737.39  1741.49  1752.92
                             1796.64  1834.14  1904.09  1937.59  1948.14
                             1969.17  1983.83  2025.93  2029.21  2081.93
                             2095.23  2121.94  2134.65  2143.95  2148.80
                             2172.65  2177.09  2197.18  2268.17  2283.38
                             4224.21  4231.98  4286.48  4350.34  4352.10
                             4376.01  4415.76  4426.93  4433.92  4436.84
                             4463.49  4510.02  4527.08  4535.53

 Zero-point correction=                           0.238040 (Hartree/Particle)
 Thermal correction to Energy=                    0.252129
 Thermal correction to Enthalpy=                  0.253073
 Thermal correction to Gibbs Free Energy=         0.198377
 Sum of electronic and zero-point Energies=           -692.292396
 Sum of electronic and thermal Energies=              -692.278307
 Sum of electronic and thermal Enthalpies=            -692.277362
 Sum of electronic and thermal Free Energies=         -692.332058

                     E (Thermal)             CV                S
                      KCal/Mol        Cal/Mol-Kelvin    Cal/Mol-Kelvin
 Total                  158.213             57.483            115.117
 Electronic               0.000              0.000              0.000
 Translational            0.889              2.981             41.987
 Rotational               0.889              2.981             32.304
 Vibrational            156.436             51.521             40.825
 Vibration     1          0.596              1.976              4.651
 Vibration     2          0.598              1.969              4.162
 Vibration     3          0.614              1.917              2.859
 Vibration     4          0.625              1.879              2.433
 Vibration     5          0.630              1.865              2.312
 Vibration     6          0.641              1.829              2.066
 Vibration     7          0.667              1.749              1.674
 Vibration     8          0.673              1.731              1.606
 Vibration     9          0.678              1.718              1.559
 Vibration    10          0.691              1.679              1.434
 Vibration    11          0.693              1.671              1.410
 Vibration    12          0.706              1.634              1.306
 Vibration    13          0.707              1.633              1.303
 Vibration    14          0.739              1.543              1.097
 Vibration    15          0.751              1.511              1.036
 Vibration    16          0.780              1.435              0.904
 Vibration    17          0.788              1.414              0.872
 Vibration    18          0.800              1.382              0.825
 Vibration    19          0.829              1.312              0.732
 Vibration    20          0.839              1.289              0.704
 Vibration    21          0.891              1.170              0.574
 Vibration    22          0.902              1.146              0.550
 Vibration    23          0.979              0.991              0.418

 Optimization completed.
    -- Stationary point found.
 Normal termination of Gaussian 16 at Sun Jan  7 21:55:13 2024.
