 Gaussian 16, Revision A.03,
 Gaussian 16:  ES64L-G16RevA.03 25-Dec-2016

 ----------------------------------------------------------------------
 #P UB3LYP/6-311++G(d,p) nosym opt freq SCRF=(PCM,Solvent=n,n-DiMethylF
 ormamide)
 ----------------------------------------------------------------------

 --------
 Oxidized
 --------
 Symbolic Z-matrix:
 Charge =  0 Multiplicity = 1

 SCF Done:  E(UB3LYP) =  -1431.96369868     A.U. after   18 cycles
 SCF Done:  E(UB3LYP) =  -1431.96252288     A.U. after   17 cycles
 SCF Done:  E(UB3LYP) =  -1431.96206994     A.U. after   18 cycles
 SCF Done:  E(UB3LYP) =  -1431.96103549     A.U. after   17 cycles
 SCF Done:  E(UB3LYP) =  -1431.96391269     A.U. after   14 cycles
 SCF Done:  E(UB3LYP) =  -1431.96426555     A.U. after   17 cycles
 SCF Done:  E(UB3LYP) =  -1431.96439231     A.U. after   14 cycles
 SCF Done:  E(UB3LYP) =  -1431.96440784     A.U. after   15 cycles
 SCF Done:  E(UB3LYP) =  -1431.96436875     A.U. after   14 cycles
 SCF Done:  E(UB3LYP) =  -1431.96438806     A.U. after   14 cycles
 SCF Done:  E(UB3LYP) =  -1431.96440866     A.U. after   17 cycles
 SCF Done:  E(UB3LYP) =  -1431.96443920     A.U. after   15 cycles
 SCF Done:  E(UB3LYP) =  -1431.96443931     A.U. after   13 cycles
 SCF Done:  E(UB3LYP) =  -1431.96444012     A.U. after   12 cycles
 SCF Done:  E(UB3LYP) =  -1431.96444001     A.U. after   12 cycles
 SCF Done:  E(UB3LYP) =  -1431.96444039     A.U. after   12 cycles
 SCF Done:  E(UB3LYP) =  -1431.96444058     A.U. after   11 cycles
 Optimization completed.
    -- Stationary point found.
 Normal termination of Gaussian 16 at Sat Feb 10 15:09:38 2024.

 ----------------------------------------------------------------------
 #P Geom=AllCheck Guess=TCheck SCRF=Check GenChk UB3LYP/6-311++G(d,p) F
 req
 ----------------------------------------------------------------------

 Structure from the checkpoint file:  "068.chk"
 --------
 Oxidized
 --------
 Charge =  0 Multiplicity = 1

                          Input orientation:
 ---------------------------------------------------------------------
 Center     Atomic      Atomic             Coordinates (Angstroms)
 Number     Number       Type             X           Y           Z
 ---------------------------------------------------------------------
      1          6           0        0.893559    0.996175   -1.495827
      2          6           0       -0.313835    0.203585   -1.806207
      3          6           0       -0.558035   -0.960449   -1.197030
      4          6           0        0.375741   -1.511781   -0.198351
      5          6           0        1.565754   -0.672922    0.227044
      6          6           0        1.792281    0.489170   -0.410742
      7          8           0        1.149100    2.018944   -2.106701
      8          8           0        0.217001   -2.624705    0.269206
      9         16           0        3.200522    1.569997    0.039071
     10          6           0        4.252940    1.632260   -1.411550
     11          6           0        5.088076    0.545958   -1.676304
     12          6           0        4.240478    2.772167   -2.212598
     13          6           0        5.094570    2.821671   -3.311501
     14          6           0        5.928308    0.607973   -2.784828
     15          6           0        5.931834    1.742591   -3.597603
     16          8           0        3.922006    0.845962    1.098060
     17          8           0        2.675722    2.909855    0.327877
     18          1           0       -0.967686    0.615538   -2.565747
     19          1           0       -1.424551   -1.569873   -1.424571
     20          1           0        5.088161   -0.323030   -1.030431
     21          1           0        3.579806    3.595428   -1.978310
     22          1           0        5.104380    3.702074   -3.942542
     23          1           0        6.583854   -0.225156   -3.007166
     24          1           0        6.591405    1.786427   -4.456371
     25          6           0        2.458371   -1.372152    1.267578
     26          8           0        3.288427   -2.131075    0.819371
     27          6           0        2.173339   -1.231110    2.773041
     28          6           0        1.310411   -0.000424    3.097278
     29          6           0        1.428092   -2.517346    3.219889
     30          6           0        3.518025   -1.159643    3.525681
     31          1           0        0.342237   -0.027926    2.589381
     32          1           0        1.816837    0.929138    2.831858
     33          1           0        1.110597    0.023835    4.171362
     34          1           0        0.448779   -2.609988    2.749999
     35          1           0        1.288301   -2.475783    4.303155
     36          1           0        2.011499   -3.408839    2.980816
     37          1           0        4.067489   -0.256123    3.262143
     38          1           0        4.139856   -2.026876    3.297088
     39          1           0        3.323563   -1.151536    4.601272
 ---------------------------------------------------------------------

 SCF Done:  E(UB3LYP) =  -1431.96444058     A.U. after    2 cycles

 Alpha  occ. eigenvalues --  -89.07943 -19.16486 -19.16074 -19.14595 -19.14257
 Alpha  occ. eigenvalues --  -19.14172 -10.31356 -10.31194 -10.29949 -10.26114
 Alpha  occ. eigenvalues --  -10.25930 -10.23134 -10.22869 -10.22769 -10.20957
 Alpha  occ. eigenvalues --  -10.20777 -10.20732 -10.20102 -10.19886 -10.19846
 Alpha  occ. eigenvalues --  -10.16757 -10.16747 -10.16162  -8.14316  -6.10578
 Alpha  occ. eigenvalues --   -6.10511  -6.10412  -1.13770  -1.09856  -1.09305
 Alpha  occ. eigenvalues --   -1.08060  -1.03217  -0.89449  -0.89085  -0.83667
 Alpha  occ. eigenvalues --   -0.82577  -0.79717  -0.77776  -0.74827  -0.70769
 Alpha  occ. eigenvalues --   -0.69765  -0.69388  -0.67750  -0.64834  -0.63648
 Alpha  occ. eigenvalues --   -0.62267  -0.60422  -0.56394  -0.56021  -0.54706
 Alpha  occ. eigenvalues --   -0.53020  -0.51299  -0.50245  -0.49898  -0.49362
 Alpha  occ. eigenvalues --   -0.48920  -0.47667  -0.47209  -0.46815  -0.46715
 Alpha  occ. eigenvalues --   -0.46051  -0.45113  -0.44696  -0.44514  -0.44034
 Alpha  occ. eigenvalues --   -0.43376  -0.41864  -0.40134  -0.39681  -0.39231
 Alpha  occ. eigenvalues --   -0.38946  -0.38207  -0.37484  -0.37434  -0.36600
 Alpha  occ. eigenvalues --   -0.35490  -0.34405  -0.34114  -0.33908  -0.33303
 Alpha  occ. eigenvalues --   -0.32868  -0.32295  -0.31319  -0.30577  -0.28773
 Alpha  occ. eigenvalues --   -0.28264  -0.27470
 Alpha virt. eigenvalues --   -0.15738  -0.07438  -0.05314  -0.04968  -0.03677
 Alpha virt. eigenvalues --   -0.02857  -0.00849  -0.00107   0.00447   0.01079
 Alpha virt. eigenvalues --    0.01466   0.01731   0.02093   0.02324   0.02779

  Beta  occ. eigenvalues --  -89.07943 -19.16486 -19.16074 -19.14595 -19.14257
  Beta  occ. eigenvalues --  -19.14172 -10.31356 -10.31194 -10.29949 -10.26114
  Beta  occ. eigenvalues --  -10.25930 -10.23134 -10.22869 -10.22769 -10.20957
  Beta  occ. eigenvalues --  -10.20777 -10.20732 -10.20102 -10.19886 -10.19846
  Beta  occ. eigenvalues --  -10.16757 -10.16747 -10.16162  -8.14316  -6.10578
  Beta  occ. eigenvalues --   -6.10511  -6.10412  -1.13770  -1.09856  -1.09305
  Beta  occ. eigenvalues --   -1.08060  -1.03217  -0.89449  -0.89085  -0.83667
  Beta  occ. eigenvalues --   -0.82577  -0.79717  -0.77776  -0.74827  -0.70769
  Beta  occ. eigenvalues --   -0.69765  -0.69388  -0.67750  -0.64834  -0.63648
  Beta  occ. eigenvalues --   -0.62267  -0.60422  -0.56394  -0.56021  -0.54706
  Beta  occ. eigenvalues --   -0.53020  -0.51299  -0.50245  -0.49898  -0.49362
  Beta  occ. eigenvalues --   -0.48920  -0.47667  -0.47209  -0.46815  -0.46715
  Beta  occ. eigenvalues --   -0.46051  -0.45113  -0.44696  -0.44514  -0.44034
  Beta  occ. eigenvalues --   -0.43376  -0.41864  -0.40134  -0.39681  -0.39231
  Beta  occ. eigenvalues --   -0.38946  -0.38207  -0.37484  -0.37434  -0.36600
  Beta  occ. eigenvalues --   -0.35490  -0.34405  -0.34114  -0.33908  -0.33303
  Beta  occ. eigenvalues --   -0.32868  -0.32295  -0.31319  -0.30577  -0.28773
  Beta  occ. eigenvalues --   -0.28264  -0.27470
  Beta virt. eigenvalues --   -0.15738  -0.07438  -0.05314  -0.04968  -0.03677
  Beta virt. eigenvalues --   -0.02857  -0.00849  -0.00107   0.00447   0.01079
  Beta virt. eigenvalues --    0.01466   0.01731   0.02093   0.02324   0.02779

 Mulliken charges and spin densities:
               1          2
     1  C   -0.289728   0.000000
     2  C   -0.075407  -0.000000
     3  C   -0.009554   0.000000
     4  C   -0.416281  -0.000000
     5  C    0.496319   0.000000
     6  C    0.021960  -0.000000
     7  O   -0.199902   0.000000
     8  O   -0.181400  -0.000000
     9  S    0.205971   0.000000
    10  C    0.797964   0.000000
    11  C   -0.340380  -0.000000
    12  C   -0.007733   0.000000
    13  C   -0.464054  -0.000000
    14  C   -0.520961  -0.000000
    15  C   -0.353576  -0.000000
    16  O   -0.110289  -0.000000
    17  O   -0.098511   0.000000
    18  H    0.263978  -0.000000
    19  H    0.260593   0.000000
    20  H    0.230872  -0.000000
    21  H    0.266104   0.000000
    22  H    0.223164  -0.000000
    23  H    0.229889   0.000000
    24  H    0.202900   0.000000
    25  C   -0.092565  -0.000000
    26  O   -0.206739   0.000000
    27  C    0.271666   0.000000
    28  C   -0.538153  -0.000000
    29  C   -0.557105   0.000000
    30  C   -0.587275  -0.000000
    31  H    0.147089  -0.000000
    32  H    0.214705   0.000000
    33  H    0.186128   0.000000
    34  H    0.170654   0.000000
    35  H    0.165210   0.000000
    36  H    0.185465  -0.000000
    37  H    0.167959  -0.000000
    38  H    0.173301  -0.000000
    39  H    0.167720  -0.000000
 Sum of Mulliken charges =  -0.00000   0.00000

 Dipole moment (field-independent basis, Debye):
    X=             -2.3780    Y=             -0.6174    Z=             -4.3739  Tot=              5.0167
 Quadrupole moment (field-independent basis, Debye-Ang):
   XX=           -134.2075   YY=           -162.8055   ZZ=           -123.0302
   XY=              3.1975   XZ=            -22.1661   YZ=             -6.1323

  Exact polarizability: 291.813  16.301 351.303 -32.123 -71.511 313.934
 Approx polarizability: 317.560   4.909 453.794 -38.054 -92.518 350.097

                      1                      2                      3
                      A                      A                      A
 Frequencies --     19.3893                34.2829                36.8462
 Red. masses --      4.9253                 4.3723                 4.4029
 Frc consts  --      0.0011                 0.0030                 0.0035
 IR Inten    --      2.4926                 1.8664                 0.7525

                      4                      5                      6
                      A                      A                      A
 Frequencies --     44.1456                60.7498                77.8699
 Red. masses --      3.9954                 5.5336                 6.0994
 Frc consts  --      0.0046                 0.0120                 0.0218
 IR Inten    --      1.7817                 7.4670                 4.1756

                      7                      8                      9
                      A                      A                      A
 Frequencies --    101.0779               127.5527               141.4079
 Red. masses --      6.1452                 6.1521                 8.5232
 Frc consts  --      0.0370                 0.0590                 0.1004
 IR Inten    --      8.3338                 3.9452                 1.5104

                     10                     11                     12
                      A                      A                      A
 Frequencies --    170.8237               177.0711               195.1441
 Red. masses --      8.3424                 6.5032                 6.6345
 Frc consts  --      0.1434                 0.1201                 0.1489
 IR Inten    --      2.8001                 4.2518                 6.9507

                     13                     14                     15
                      A                      A                      A
 Frequencies --    209.6631               220.5164               236.6000
 Red. masses --      1.0885                 3.9359                 2.2069
 Frc consts  --      0.0282                 0.1128                 0.0728
 IR Inten    --      0.1258                 6.1618                 0.4319

                     16                     17                     18
                      A                      A                      A
 Frequencies --    243.7150               254.2375               270.1391
 Red. masses --      3.6350                 2.5099                 2.6736
 Frc consts  --      0.1272                 0.0956                 0.1150
 IR Inten    --      0.6317                 5.5557                 1.0168

                     19                     20                     21
                      A                      A                      A
 Frequencies --    277.2542               280.7199               295.3776
 Red. masses --      1.3395                 7.9856                 2.2269
 Frc consts  --      0.0607                 0.3708                 0.1145
 IR Inten    --      1.0587                 1.2712                 9.9782

                     22                     23                     24
                      A                      A                      A
 Frequencies --    306.4417               344.8978               360.9135
 Red. masses --      8.4856                 5.5773                 2.7013
 Frc consts  --      0.4695                 0.3909                 0.2073
 IR Inten    --      6.6212                 3.7444                 1.8412

                     25                     26                     27
                      A                      A                      A
 Frequencies --    371.1533               400.1973               409.6577
 Red. masses --      2.3722                 5.2052                 2.8787
 Frc consts  --      0.1925                 0.4912                 0.2846
 IR Inten    --      4.4726                15.5997                 0.4205

                     28                     29                     30
                      A                      A                      A
 Frequencies --    427.7176               442.9905               452.9345
 Red. masses --      3.8294                10.3938                 5.5076
 Frc consts  --      0.4128                 1.2017                 0.6657
 IR Inten    --      2.2990                28.1410                25.1055

                     31                     32                     33
                      A                      A                      A
 Frequencies --    488.5589               506.3282               540.8467
 Red. masses --      7.5083                 6.9720                 5.6680
 Frc consts  --      1.0559                 1.0531                 0.9769
 IR Inten    --     57.8602                57.9837                72.8869

                     34                     35                     36
                      A                      A                      A
 Frequencies --    583.7658               587.7690               602.1023
 Red. masses --      5.3782                 7.0616                 3.7845
 Frc consts  --      1.0798                 1.4374                 0.8084
 IR Inten    --     59.7506               159.0861                18.7986

                     37                     38                     39
                      A                      A                      A
 Frequencies --    625.0184               635.7065               683.2030
 Red. masses --      6.4356                 3.5038                 6.4407
 Frc consts  --      1.4812                 0.8343                 1.7713
 IR Inten    --      0.0389                21.1879                13.5837

                     40                     41                     42
                      A                      A                      A
 Frequencies --    696.5368               709.8596               720.0662
 Red. masses --      2.1457                 6.1181                 7.2929
 Frc consts  --      0.6133                 1.8164                 2.2279
 IR Inten    --     62.8256                 4.3953                90.4852

                     43                     44                     45
                      A                      A                      A
 Frequencies --    763.6924               789.7249               818.9143
 Red. masses --      1.5753                 4.8142                 5.5205
 Frc consts  --      0.5413                 1.7690                 2.1812
 IR Inten    --     44.2151                17.6299                17.7035

                     46                     47                     48
                      A                      A                      A
 Frequencies --    851.2023               852.7895               865.2171
 Red. masses --      2.9602                 1.2466                 3.2782
 Frc consts  --      1.2637                 0.5341                 1.4459
 IR Inten    --     32.9098                 0.0432                97.2918

                     49                     50                     51
                      A                      A                      A
 Frequencies --    875.2441               930.3257               947.2511
 Red. masses --      6.2052                 1.8809                 1.6150
 Frc consts  --      2.8007                 0.9592                 0.8538
 IR Inten    --     12.4916                 3.5342                 5.2076

                     52                     53                     54
                      A                      A                      A
 Frequencies --    948.8026               970.0648               988.5593
 Red. masses --      1.3356                 1.2088                 4.3478
 Frc consts  --      0.7084                 0.6702                 2.5034
 IR Inten    --      1.3606                 0.2122               170.1851

                     55                     56                     57
                      A                      A                      A
 Frequencies --    999.3801              1011.9449              1018.8230
 Red. masses --      1.3833                 6.0948                 1.2774
 Frc consts  --      0.8140                 3.6772                 0.7812
 IR Inten    --      0.2002                18.4250                 0.5042

                     58                     59                     60
                      A                      A                      A
 Frequencies --   1022.0737              1032.4773              1037.8353
 Red. masses --      1.3234                 1.8586                 2.6298
 Frc consts  --      0.8145                 1.1673                 1.6689
 IR Inten    --      0.1146                45.4553                13.8739

                     61                     62                     63
                      A                      A                      A
 Frequencies --   1048.2173              1064.9589              1100.0661
 Red. masses --      1.6018                 3.0133                 2.9449
 Frc consts  --      1.0369                 2.0135                 2.0997
 IR Inten    --     22.3472               125.6745               101.5108

                     64                     65                     66
                      A                      A                      A
 Frequencies --   1102.8661              1106.9466              1117.1964
 Red. masses --      1.8017                 3.1593                 1.9132
 Frc consts  --      1.2912                 2.2808                 1.4070
 IR Inten    --     51.6289               230.6217               149.5638

                     67                     68                     69
                      A                      A                      A
 Frequencies --   1184.9206              1199.8099              1204.2741
 Red. masses --      1.1135                 1.1577                 2.4816
 Frc consts  --      0.9211                 0.9819                 2.1205
 IR Inten    --      0.3801                 4.5520                 7.7888

                     70                     71                     72
                      A                      A                      A
 Frequencies --   1241.1798              1242.6578              1252.3801
 Red. masses --      7.0333                 4.0742                 3.2281
 Frc consts  --      6.3838                 3.7068                 2.9831
 IR Inten    --    244.8278               118.5400                42.9201

                     73                     74                     75
                      A                      A                      A
 Frequencies --   1263.8854              1278.2166              1332.4892
 Red. masses --      3.1431                 2.7142                 3.3211
 Frc consts  --      2.9582                 2.6128                 3.4742
 IR Inten    --     38.8126               192.9036                 0.4479

                     76                     77                     78
                      A                      A                      A
 Frequencies --   1347.9823              1389.0547              1389.7750
 Red. masses --      1.6904                 1.2814                 1.6242
 Frc consts  --      1.8097                 1.4567                 1.8483
 IR Inten    --      7.9806                 6.4761                 4.7348

                     79                     80                     81
                      A                      A                      A
 Frequencies --   1396.4592              1423.0375              1473.1884
 Red. masses --      1.2040                 1.2197                 1.0477
 Frc consts  --      1.3834                 1.4552                 1.3397
 IR Inten    --     18.9953                10.2519                 1.6527

                     82                     83                     84
                      A                      A                      A
 Frequencies --   1476.1577              1481.1586              1484.3298
 Red. masses --      2.1191                 1.0451                 1.0455
 Frc consts  --      2.7206                 1.3509                 1.3572
 IR Inten    --     29.5549                 4.9351                 2.2694

                     85                     86                     87
                      A                      A                      A
 Frequencies --   1491.6678              1500.0350              1505.0498
 Red. masses --      1.0520                 1.0473                 1.9852
 Frc consts  --      1.3792                 1.3885                 2.6494
 IR Inten    --      7.0595                21.1532                 4.9001

                     88                     89                     90
                      A                      A                      A
 Frequencies --   1513.1946              1615.9685              1618.6604
 Red. masses --      1.0616                 5.4915                10.3026
 Frc consts  --      1.4321                 8.4490                15.9040
 IR Inten    --     39.7127                 6.2312                26.2298

                     91                     92                     93
                      A                      A                      A
 Frequencies --   1621.7808              1679.1044              1708.5894
 Red. masses --      5.8736                 8.5700                12.0590
 Frc consts  --      9.1020                14.2360                20.7413
 IR Inten    --      1.3788                14.2957               880.5719

                     94                     95                     96
                      A                      A                      A
 Frequencies --   1714.1631              1746.7891              3031.3635
 Red. masses --     10.5850                12.6010                 1.0360
 Frc consts  --     18.3251                22.6536                 5.6093
 IR Inten    --     47.1280               326.0001                37.5161

                     97                     98                     99
                      A                      A                      A
 Frequencies --   3035.5582              3041.4832              3090.7637
 Red. masses --      1.0356                 1.0368                 1.1009
 Frc consts  --      5.6224                 5.6507                 6.1961
 IR Inten    --     24.5088                45.2143                45.2352

                    100                    101                    102
                      A                      A                      A
 Frequencies --   3101.6314              3106.2009              3111.1107
 Red. masses --      1.1019                 1.1006                 1.1017
 Frc consts  --      6.2455                 6.2564                 6.2826
 IR Inten    --      6.9299                52.1520                29.0879

                    103                    104                    105
                      A                      A                      A
 Frequencies --   3124.3416              3130.9238              3179.2585
 Red. masses --      1.1016                 1.1019                 1.0872
 Frc consts  --      6.3355                 6.3643                 6.4744
 IR Inten    --     32.2130                22.1856                 0.9668

                    106                    107                    108
                      A                      A                      A
 Frequencies --   3189.8021              3191.2273              3197.4777
 Red. masses --      1.0900                 1.0881                 1.0942
 Frc consts  --      6.5345                 6.5286                 6.5914
 IR Inten    --     12.0210                 0.5431                10.0680

                    109                    110                    111
                      A                      A                      A
 Frequencies --   3206.2765              3206.8017              3219.7973
 Red. masses --      1.1002                 1.0956                 1.0935
 Frc consts  --      6.6640                 6.6380                 6.6794
 IR Inten    --      0.2627                 7.7872                 4.4947

 - Thermochemistry -
 -------------------
 Temperature   298.150 Kelvin.  Pressure   1.00000 Atm.
 Atom     1 has atomic number  6 and mass  12.00000

 Molecular mass:   332.07185 amu.
 Principal axes and moments of inertia in atomic units:
                           1         2         3
     Eigenvalues --  4535.999439270.18122**********
           X           -0.49093   0.81604  -0.30507
           Y           -0.55951  -0.02691   0.82839
           Z            0.66779   0.57737   0.46979
 This molecule is an asymmetric top.
 Rotational symmetry number  1.
 Warning -- assumption of classical behavior for rotation
           may cause significant error
 Rotational temperatures (Kelvin)      0.01909     0.00934     0.00800
 Rotational constants (GHZ):           0.39787     0.19468     0.16671
 Zero-point vibrational energy     775035.4 (Joules/Mol)
                                  185.23791 (Kcal/Mol)
 Warning -- explicit consideration of  36 degrees of freedom as
           vibrations may cause significant error
 Vibrational temperatures:     27.90    49.33    53.01    63.52    87.41
          (Kelvin)            112.04   145.43   183.52   203.45   245.78
                              254.77   280.77   301.66   317.27   340.41
                              350.65   365.79   388.67   398.91   403.89
                              424.98   440.90   496.23   519.27   534.01
                              575.79   589.41   615.39   637.36   651.67
                              702.93   728.49   778.16   839.91   845.67
                              866.29   899.26   914.64   982.98  1002.16
                             1021.33  1036.01  1098.78  1136.24  1178.23
                             1224.69  1226.97  1244.85  1259.28  1338.53
                             1362.88  1365.12  1395.71  1422.32  1437.89
                             1455.96  1465.86  1470.54  1485.50  1493.21
                             1508.15  1532.24  1582.75  1586.78  1592.65
                             1607.40  1704.84  1726.26  1732.68  1785.78
                             1787.91  1801.90  1818.45  1839.07  1917.15
                             1939.45  1998.54  1999.58  2009.19  2047.43
                             2119.59  2123.86  2131.06  2135.62  2146.18
                             2158.22  2165.43  2177.15  2325.02  2328.89
                             2333.38  2415.86  2458.28  2466.30  2513.24
                             4361.46  4367.49  4376.02  4446.92  4462.56
                             4469.13  4476.19  4495.23  4504.70  4574.24
                             4589.41  4591.46  4600.46  4613.12  4613.87
                             4632.57

 Zero-point correction=                           0.295195 (Hartree/Particle)
 Thermal correction to Energy=                    0.317347
 Thermal correction to Enthalpy=                  0.318291
 Thermal correction to Gibbs Free Energy=         0.243114
 Sum of electronic and zero-point Energies=          -1431.669245
 Sum of electronic and thermal Energies=             -1431.647093
 Sum of electronic and thermal Enthalpies=           -1431.646149
 Sum of electronic and thermal Free Energies=        -1431.721327

                     E (Thermal)             CV                S
                      KCal/Mol        Cal/Mol-Kelvin    Cal/Mol-Kelvin
 Total                  199.138             83.744            158.225
 Electronic               0.000              0.000              0.000
 Translational            0.889              2.981             43.296
 Rotational               0.889              2.981             34.475
 Vibrational            197.361             77.782             80.454
 Vibration     1          0.593              1.986              6.696
 Vibration     2          0.594              1.983              5.565
 Vibration     3          0.594              1.982              5.422
 Vibration     4          0.595              1.980              5.064
 Vibration     5          0.597              1.973              4.433
 Vibration     6          0.599              1.964              3.944
 Vibration     7          0.604              1.948              3.433
 Vibration     8          0.611              1.926              2.983
 Vibration     9          0.615              1.912              2.785
 Vibration    10          0.626              1.878              2.426
 Vibration    11          0.628              1.871              2.359
 Vibration    12          0.636              1.847              2.178
 Vibration    13          0.642              1.826              2.047
 Vibration    14          0.647              1.810              1.955
 Vibration    15          0.655              1.785              1.828
 Vibration    16          0.659              1.773              1.776
 Vibration    17          0.665              1.756              1.701
 Vibration    18          0.674              1.728              1.595
 Vibration    19          0.678              1.716              1.551
 Vibration    20          0.680              1.709              1.529
 Vibration    21          0.690              1.682              1.443
 Vibration    22          0.697              1.661              1.381
 Vibration    23          0.723              1.586              1.189
 Vibration    24          0.735              1.553              1.118
 Vibration    25          0.743              1.531              1.075
 Vibration    26          0.766              1.470              0.962
 Vibration    27          0.774              1.449              0.928
 Vibration    28          0.789              1.410              0.866
 Vibration    29          0.803              1.376              0.817
 Vibration    30          0.811              1.354              0.787
 Vibration    31          0.844              1.275              0.687
 Vibration    32          0.862              1.236              0.642
 Vibration    33          0.896              1.160              0.563
 Vibration    34          0.941              1.066              0.478
 Vibration    35          0.945              1.058              0.471
 Vibration    36          0.960              1.027              0.446

                           ! Non-Optimized Parameters !
 Normal termination of Gaussian 16 at Sat Feb 10 18:55:20 2024.
