 Q-Chem 5.4, Q-Chem, Inc., Pleasanton, CA (2021)
 Q-Chem 5.4.0 for Intel X86 EM64T Linux

User input:
--------------------------------------------------------------
$molecule
0 1
C                  5.0426030000     -2.2342860000      0.7457340000
C                  5.8791570000     -1.4129290000     -0.0005450000
C                  5.3435160000     -0.5683430000     -0.9770330000
C                  3.6620320000     -2.2201220000      0.5233190000
C                  3.1231020000     -1.3703100000     -0.4593650000
C                  3.9726640000     -0.5472280000     -1.2049330000
C                  2.7880470000     -3.1135620000      1.3392230000
C                  1.3204010000     -3.0718950000      1.0700910000
C                  0.7840150000     -2.2213360000      0.0875640000
C                  1.6545820000     -1.3267870000     -0.7256560000
C                  0.4728930000     -3.8993620000      1.8103780000
C                 -0.5963000000     -2.2187700000     -0.1333340000
C                 -1.4263270000     -3.0461760000      0.6109090000
O                  3.2558260000     -3.8486460000      2.1938110000
O                  1.1874010000     -0.5865880000     -1.5766000000
H                  5.4358620000     -2.8964660000      1.5071060000
H                  6.9487650000     -1.4280070000      0.1754720000
H                  5.9978440000      0.0715450000     -1.5581420000
H                 -2.4953530000     -3.0395940000      0.4236210000
H                  3.5360100000      0.0991540000     -1.9561700000
H                  0.9181430000     -4.5495160000      2.5550410000
H                 -0.9965610000     -1.5628400000     -0.8966280000
C                 -0.9060120000     -3.8995520000      1.5962530000
C                 -1.8183640000     -4.7707680000      2.4263830000
C                 -2.2671130000     -4.0747880000      3.7128790000
O                 -3.1318910000     -4.9736560000      4.4057960000
H                 -1.3120840000     -5.7009240000      2.6979210000
H                 -2.7099610000     -5.0412690000      1.8539310000
H                 -2.7892110000     -3.1400220000      3.4684490000
H                 -1.3907530000     -3.8235360000      4.3244740000
H                 -3.4051620000     -4.5689810000      5.2344750000
$end
$rem
MAX_SCF_CYCLES=200
BASIS  =  6-311++G(d,p)
GUI  =  2
JOB_TYPE  =  SP
METHOD  =  B3LYP
SOLVENT_METHOD = PCM
$end
$pcm
theory = CPCM
$end
$solvent
dielectric 37.219
opticaldielectric 1.43
$end

--------------------------------------------------------------

             Standard Nuclear Orientation (Angstroms)
    I     Atom           X                Y                Z
 ----------------------------------------------------------------
    1      C       5.0426030000    -2.2342860000     0.7457340000
    2      C       5.8791570000    -1.4129290000    -0.0005450000
    3      C       5.3435160000    -0.5683430000    -0.9770330000
    4      C       3.6620320000    -2.2201220000     0.5233190000
    5      C       3.1231020000    -1.3703100000    -0.4593650000
    6      C       3.9726640000    -0.5472280000    -1.2049330000
    7      C       2.7880470000    -3.1135620000     1.3392230000
    8      C       1.3204010000    -3.0718950000     1.0700910000
    9      C       0.7840150000    -2.2213360000     0.0875640000
   10      C       1.6545820000    -1.3267870000    -0.7256560000
   11      C       0.4728930000    -3.8993620000     1.8103780000
   12      C      -0.5963000000    -2.2187700000    -0.1333340000
   13      C      -1.4263270000    -3.0461760000     0.6109090000
   14      O       3.2558260000    -3.8486460000     2.1938110000
   15      O       1.1874010000    -0.5865880000    -1.5766000000
   16      H       5.4358620000    -2.8964660000     1.5071060000
   17      H       6.9487650000    -1.4280070000     0.1754720000
   18      H       5.9978440000     0.0715450000    -1.5581420000
   19      H      -2.4953530000    -3.0395940000     0.4236210000
   20      H       3.5360100000     0.0991540000    -1.9561700000
   21      H       0.9181430000    -4.5495160000     2.5550410000
   22      H      -0.9965610000    -1.5628400000    -0.8966280000
   23      C      -0.9060120000    -3.8995520000     1.5962530000
   24      C      -1.8183640000    -4.7707680000     2.4263830000
   25      C      -2.2671130000    -4.0747880000     3.7128790000
   26      O      -3.1318910000    -4.9736560000     4.4057960000
   27      H      -1.3120840000    -5.7009240000     2.6979210000
   28      H      -2.7099610000    -5.0412690000     1.8539310000
   29      H      -2.7892110000    -3.1400220000     3.4684490000
   30      H      -1.3907530000    -3.8235360000     4.3244740000
   31      H      -3.4051620000    -4.5689810000     5.2344750000
 ----------------------------------------------------------------

    8    -842.8646098025      8.19e-06  Convergence criterion met
 Total energy in the final basis set =     -842.8646098025

                    Orbital Energies (a.u.)
 --------------------------------------------------------------

 Alpha MOs
 -- Occupied --
-19.1319 -19.1310 -19.1302 -10.2837 -10.2829 -10.2215 -10.2080 -10.2075
-10.2072 -10.2064 -10.2055 -10.1969 -10.1965 -10.1961 -10.1959 -10.1956
-10.1943 -10.1939 -10.1781  -1.0673  -1.0654  -1.0299  -0.8943  -0.8826
 -0.8214  -0.7902  -0.7778  -0.7734  -0.7421  -0.6876  -0.6674  -0.6453
 -0.6205  -0.6074  -0.5855  -0.5593  -0.5494  -0.5227  -0.5059  -0.4950
 -0.4848  -0.4676  -0.4665  -0.4593  -0.4557  -0.4507  -0.4462  -0.4404
 -0.4321  -0.4274  -0.4203  -0.3900  -0.3886  -0.3783  -0.3707  -0.3678
 -0.3670  -0.3578  -0.3455  -0.2891  -0.2887  -0.2869  -0.2787  -0.2759
 -0.2754  -0.2693

          Ground-State Mulliken Net Atomic Charges

     Atom                 Charge (a.u.)
  ----------------------------------------
      1 C                     0.156351
      2 C                    -0.438179
      3 C                    -0.450258
      4 C                     0.326001
      5 C                     0.083006
      6 C                     0.193505
      7 C                    -0.707483
      8 C                     0.349049
      9 C                     0.053498
     10 C                    -0.714396
     11 C                    -0.091504
     12 C                     0.122179
     13 C                    -0.575671
     14 O                    -0.281196
     15 O                    -0.289385
     16 H                     0.195073
     17 H                     0.225302
     18 H                     0.223724
     19 H                     0.224398
     20 H                     0.196843
     21 H                     0.199793
     22 H                     0.204867
     23 C                     0.642080
     24 C                     0.036320
     25 C                    -0.539495
     26 O                    -0.367460
     27 H                     0.188348
     28 H                     0.188482
     29 H                     0.173788
     30 H                     0.173483
     31 H                     0.298929
  ----------------------------------------
  Sum of atomic charges =    -0.000006

                    Cartesian Multipole Moments
 -----------------------------------------------------------------
    Charge (ESU x 10^10)
                -0.0000
    Dipole Moment (Debye)
         X       0.1862      Y       1.6060      Z       1.0917
       Tot       1.9508
    Quadrupole Moments (Debye-Ang)
        XX     -86.7503     XY       6.3067     YY    -129.1827
        XZ     -11.7950     YZ       5.6880     ZZ    -106.6811

 Total job time:  53.74s(wall), 383.30s(cpu)
        *  Thank you very much for using Q-Chem.  Have a nice day.  *
