 Gaussian 16, Revision A.03,
 Gaussian 16:  ES64L-G16RevA.03 25-Dec-2016

 ----------------------------------------------------------------------
 #P UB3LYP/6-311++G(d,p) nosym opt freq SCRF=(PCM,Solvent=n,n-DiMethylF
 ormamide)
 ----------------------------------------------------------------------

 -------
 Reduced
 -------
 Symbolic Z-matrix:
 Charge = -2 Multiplicity = 1

 SCF Done:  E(UB3LYP) =  -841.461652422     A.U. after   17 cycles
 SCF Done:  E(UB3LYP) =  -841.462274821     A.U. after   13 cycles
 SCF Done:  E(UB3LYP) =  -841.462408585     A.U. after   13 cycles
 SCF Done:  E(UB3LYP) =  -841.462419733     A.U. after   12 cycles
 Optimization completed.
    -- Stationary point found.
 Normal termination of Gaussian 16 at Sat Feb 10 10:13:37 2024.

 ----------------------------------------------------------------------
 #P Geom=AllCheck Guess=TCheck SCRF=Check GenChk UB3LYP/6-311++G(d,p) F
 req
 ----------------------------------------------------------------------

 Structure from the checkpoint file:  "003-an.chk"
 -------
 Reduced
 -------
 Charge = -2 Multiplicity = 1

                          Input orientation:
 ---------------------------------------------------------------------
 Center     Atomic      Atomic             Coordinates (Angstroms)
 Number     Number       Type             X           Y           Z
 ---------------------------------------------------------------------
      1         17           0        3.099677   -0.147508    0.030810
      2          6           0        1.295275   -0.099572    0.012901
      3          6           0        0.699777    1.164637    0.011244
      4          6           0       -0.713886    1.330992   -0.002547
      5          8           0       -1.292644    2.509436   -0.004536
      6          6           0       -1.435680    0.100584   -0.014670
      7          6           0       -0.809714   -1.145934   -0.012242
      8          6           0        0.605934   -1.342306    0.001771
      9          8           0        1.168987   -2.521266    0.004439
     10          1           0        1.327750    2.049946    0.021036
     11          1           0       -2.523366    0.146783   -0.026221
     12          1           0       -1.422109   -2.045794   -0.021985
 ---------------------------------------------------------------------

 SCF Done:  E(UB3LYP) =  -841.462419733     A.U. after    1 cycles

 Alpha  occ. eigenvalues -- -101.52454 -19.01683 -19.01423 -10.18329 -10.17729
 Alpha  occ. eigenvalues --  -10.17280 -10.13012 -10.13000 -10.12637  -9.43895
 Alpha  occ. eigenvalues --   -7.20268  -7.19437  -7.19394  -0.92726  -0.91897
 Alpha  occ. eigenvalues --   -0.83176  -0.77389  -0.69292  -0.65169  -0.56454
 Alpha  occ. eigenvalues --   -0.52959  -0.43953  -0.43133  -0.41396  -0.38063
 Alpha  occ. eigenvalues --   -0.37013  -0.35695  -0.33185  -0.32617  -0.32038
 Alpha  occ. eigenvalues --   -0.30245  -0.28990  -0.22479  -0.21478  -0.19909
 Alpha  occ. eigenvalues --   -0.19531  -0.12435
 Alpha virt. eigenvalues --    0.00629   0.01433   0.01731   0.02108   0.03229
 Alpha virt. eigenvalues --    0.05310   0.05532   0.06209   0.06846   0.07402
 Alpha virt. eigenvalues --    0.09018   0.09161   0.09295   0.09570   0.11686

  Beta  occ. eigenvalues -- -101.52454 -19.01683 -19.01423 -10.18329 -10.17729
  Beta  occ. eigenvalues --  -10.17280 -10.13012 -10.13000 -10.12637  -9.43895
  Beta  occ. eigenvalues --   -7.20268  -7.19437  -7.19394  -0.92726  -0.91897
  Beta  occ. eigenvalues --   -0.83176  -0.77389  -0.69292  -0.65169  -0.56454
  Beta  occ. eigenvalues --   -0.52959  -0.43953  -0.43133  -0.41396  -0.38063
  Beta  occ. eigenvalues --   -0.37013  -0.35695  -0.33185  -0.32617  -0.32038
  Beta  occ. eigenvalues --   -0.30245  -0.28990  -0.22479  -0.21478  -0.19909
  Beta  occ. eigenvalues --   -0.19531  -0.12435
  Beta virt. eigenvalues --    0.00629   0.01433   0.01731   0.02108   0.03229
  Beta virt. eigenvalues --    0.05310   0.05532   0.06209   0.06846   0.07402
  Beta virt. eigenvalues --    0.09018   0.09161   0.09295   0.09570   0.11686

 Mulliken charges and spin densities:
               1          2
     1  Cl   0.053908   0.000000
     2  C    1.137409  -0.000000
     3  C   -0.504971   0.000000
     4  C   -0.637068  -0.000000
     5  O   -0.752996   0.000000
     6  C    0.006121   0.000000
     7  C   -0.121898   0.000000
     8  C   -0.895359   0.000000
     9  O   -0.707886   0.000000
    10  H    0.138299  -0.000000
    11  H    0.139214  -0.000000
    12  H    0.145228  -0.000000
 Sum of Mulliken charges =  -2.00000  -0.00000

 Dipole moment (field-independent basis, Debye):
    X=             -2.7861    Y=             -0.0974    Z=             -0.0327  Tot=              2.7880
 Quadrupole moment (field-independent basis, Debye-Ang):
   XX=            -90.2105   YY=           -117.2632   ZZ=            -67.8339
   XY=             26.0204   XZ=             -0.1405   YZ=              0.1073

  Exact polarizability: 195.243 -16.950 191.204   1.029   0.174  88.817
 Approx polarizability: 211.545 -17.399 213.152   1.143   0.223  94.087

                      1                      2                      3
                      A                      A                      A
 Frequencies --    136.7593               181.2872               237.9431
 Red. masses --      7.7916                 7.2597                16.7954
 Frc consts  --      0.0859                 0.1406                 0.5603
 IR Inten    --     23.2042                 1.6759                 2.7761

                      4                      5                      6
                      A                      A                      A
 Frequencies --    325.3791               343.7337               424.9041
 Red. masses --     20.0423                 8.0609                 9.5862
 Frc consts  --      1.2502                 0.5612                 1.0197
 IR Inten    --      0.9075                 0.0584                12.6827

                      7                      8                      9
                      A                      A                      A
 Frequencies --    449.9395               486.8115               552.4790
 Red. masses --      3.2565                12.3780                 5.2554
 Frc consts  --      0.3884                 1.7283                 0.9451
 IR Inten    --      4.2778                 5.5976                 9.6129

                     10                     11                     12
                      A                      A                      A
 Frequencies --    595.1927               678.9868               705.8930
 Red. masses --      2.3652                 7.8777                 2.5238
 Frc consts  --      0.4937                 2.1398                 0.7409
 IR Inten    --     20.7700                22.5520                 0.2020

                     13                     14                     15
                      A                      A                      A
 Frequencies --    793.7587               804.2550               821.9351
 Red. masses --      1.7505                 6.9941                 2.0072
 Frc consts  --      0.6498                 2.6654                 0.7990
 IR Inten    --      8.2925               348.0121               102.8591

                     16                     17                     18
                      A                      A                      A
 Frequencies --    872.0936               902.3574               995.2505
 Red. masses --      8.1053                 1.3167                 2.4418
 Frc consts  --      3.6320                 0.6317                 1.4250
 IR Inten    --     90.3155                 0.7838               122.8136

                     19                     20                     21
                      A                      A                      A
 Frequencies --   1115.3829              1183.8703              1222.1769
 Red. masses --      1.5899                 3.5712                 1.5391
 Frc consts  --      1.1654                 2.9490                 1.3545
 IR Inten    --      1.3084               223.6790               161.4035

                     22                     23                     24
                      A                      A                      A
 Frequencies --   1281.1001              1323.9243              1393.8578
 Red. masses --      2.7112                10.0381                 3.8898
 Frc consts  --      2.6217                10.3664                 4.4526
 IR Inten    --    987.8355                13.3751               115.6288

                     25                     26                     27
                      A                      A                      A
 Frequencies --   1444.7263              1479.3554              1609.4697
 Red. masses --      3.5114                 4.0073                 7.2127
 Frc consts  --      4.3182                 5.1670                11.0082
 IR Inten    --   1341.3689               197.1480                27.0232

                     28                     29                     30
                      A                      A                      A
 Frequencies --   3108.7352              3131.1919              3154.6840
 Red. masses --      1.0841                 1.0921                 1.0891
 Frc consts  --      6.1731                 6.3087                 6.3861
 IR Inten    --     71.0903               107.6058                32.1183

 - Thermochemistry -
 -------------------
 Temperature   298.150 Kelvin.  Pressure   1.00000 Atm.
 Atom     1 has atomic number 17 and mass  34.96885

 Molecular mass:   141.98216 amu.
 Principal axes and moments of inertia in atomic units:
                           1         2         3
     Eigenvalues --   779.463141651.995242431.45822
           X            0.84868   0.52881  -0.01014
           Y           -0.52886   0.84870  -0.00327
           Z            0.00688   0.00813   0.99994
 This molecule is an asymmetric top.
 Rotational symmetry number  1.
 Warning -- assumption of classical behavior for rotation
           may cause significant error
 Rotational temperatures (Kelvin)      0.11112     0.05243     0.03562
 Rotational constants (GHZ):           2.31536     1.09246     0.74225
 Zero-point vibrational energy     189951.6 (Joules/Mol)
                                   45.39953 (Kcal/Mol)
 Warning -- explicit consideration of  10 degrees of freedom as
           vibrations may cause significant error
 Vibrational temperatures:    196.77   260.83   342.35   468.15   494.56
          (Kelvin)            611.34   647.36   700.41   794.89   856.35
                              976.91  1015.62  1142.04  1157.14  1182.58
                             1254.75  1298.29  1431.94  1604.79  1703.33
                             1758.44  1843.22  1904.83  2005.45  2078.64
                             2128.46  2315.67  4472.78  4505.09  4538.89

 Zero-point correction=                           0.072349 (Hartree/Particle)
 Thermal correction to Energy=                    0.079548
 Thermal correction to Enthalpy=                  0.080492
 Thermal correction to Gibbs Free Energy=         0.040113
 Sum of electronic and zero-point Energies=           -841.390071
 Sum of electronic and thermal Energies=              -841.382872
 Sum of electronic and thermal Enthalpies=            -841.381928
 Sum of electronic and thermal Free Energies=         -841.422307

                     E (Thermal)             CV                S
                      KCal/Mol        Cal/Mol-Kelvin    Cal/Mol-Kelvin
 Total                   49.917             27.296             84.986
 Electronic               0.000              0.000              0.000
 Translational            0.889              2.981             40.763
 Rotational               0.889              2.981             29.528
 Vibrational             48.140             21.335             14.696
 Vibration     1          0.614              1.917              2.849
 Vibration     2          0.630              1.865              2.315
 Vibration     3          0.656              1.783              1.818
 Vibration     4          0.709              1.625              1.283
 Vibration     5          0.722              1.588              1.195
 Vibration     6          0.787              1.416              0.875
 Vibration     7          0.809              1.361              0.796
 Vibration     8          0.843              1.279              0.692
 Vibration     9          0.908              1.134              0.539
 Vibration    10          0.953              1.042              0.458

 Optimization completed.
    -- Stationary point found.
 Normal termination of Gaussian 16 at Sat Feb 10 10:21:49 2024.
