 Gaussian 16, Revision A.03,
 Gaussian 16:  ES64L-G16RevA.03 25-Dec-2016

 ----------------------------------------------------------------
 #P UB3LYP/6-311++G(d,p) SCRF=(PCM,Solvent=n,n-DiMethylFormamide)
 ----------------------------------------------------------------

 ------------------
 Quinone PCM in DMF
 ------------------
 Symbolic Z-matrix:
 Charge =  0 Multiplicity = 1

                         Standard orientation:
 ---------------------------------------------------------------------
 Center     Atomic      Atomic             Coordinates (Angstroms)
 Number     Number       Type             X           Y           Z
 ---------------------------------------------------------------------
      1          8           0       -0.000052    2.592692   -0.000065
      2          6           0        0.000006    1.369204   -0.000091
      3          6           0       -1.241582    0.567770   -0.000138
      4          6           0       -2.502905    1.186464   -0.000151
      5          6           0       -3.661194    0.430591    0.000017
      6          6           0       -3.577557   -0.970312    0.000201
      7          6           0       -2.346453   -1.605815    0.000179
      8          6           0       -1.182500   -0.832348   -0.000027
      9          8           0       -0.000027   -1.517622   -0.000109
     10          6           0        1.182570   -0.832222   -0.000123
     11          6           0        2.346344   -1.605937   -0.000188
     12          6           0        3.577502   -0.970301   -0.000030
     13          6           0        3.661156    0.430478    0.000214
     14          6           0        2.502888    1.186569    0.000219
     15          6           0        1.241707    0.567902    0.000019
     16          1           0       -2.529599    2.269543   -0.000247
     17          1           0       -4.629923    0.915636    0.000029
     18          1           0       -4.483260   -1.566053    0.000371
     19          1           0       -2.260952   -2.685429    0.000299
     20          1           0        2.261035   -2.685530   -0.000322
     21          1           0        4.483316   -1.565891   -0.000073
     22          1           0        4.630020    0.915296    0.000363
     23          1           0        2.530101    2.269608    0.000378
 ---------------------------------------------------------------------

 SCF Done:  E(UB3LYP) =  -650.840880191     A.U. after   14 cycles

 The electronic state is 1-A.
 Alpha  occ. eigenvalues --  -19.20698 -19.11663 -10.27493 -10.26796 -10.26794
 Alpha  occ. eigenvalues --  -10.20229 -10.20227 -10.19927 -10.19926 -10.19634
 Alpha  occ. eigenvalues --  -10.19633 -10.19457 -10.19455 -10.18973 -10.18973
 Alpha  occ. eigenvalues --   -1.12884  -1.05257  -0.88976  -0.87784  -0.80269
 Alpha  occ. eigenvalues --   -0.79431  -0.77252  -0.75439  -0.67696  -0.66945
 Alpha  occ. eigenvalues --   -0.61979  -0.61950  -0.58304  -0.57069  -0.52349
 Alpha  occ. eigenvalues --   -0.50689  -0.49026  -0.48696  -0.48569  -0.45629
 Alpha  occ. eigenvalues --   -0.45398  -0.44767  -0.44687  -0.41850  -0.41474
 Alpha  occ. eigenvalues --   -0.40031  -0.39565  -0.37878  -0.37656  -0.35957
 Alpha  occ. eigenvalues --   -0.35708  -0.28399  -0.28132  -0.27680  -0.27475
 Alpha  occ. eigenvalues --   -0.24615
 Alpha virt. eigenvalues --   -0.08675  -0.03905  -0.02738  -0.01679  -0.00622
 Alpha virt. eigenvalues --    0.00162   0.00966   0.01736   0.02161   0.03402
 Alpha virt. eigenvalues --    0.03477   0.04176   0.04236   0.04283   0.06139

  Beta  occ. eigenvalues --  -19.20698 -19.11663 -10.27493 -10.26796 -10.26794
  Beta  occ. eigenvalues --  -10.20229 -10.20227 -10.19927 -10.19926 -10.19634
  Beta  occ. eigenvalues --  -10.19633 -10.19457 -10.19455 -10.18973 -10.18973
  Beta  occ. eigenvalues --   -1.12884  -1.05257  -0.88976  -0.87784  -0.80269
  Beta  occ. eigenvalues --   -0.79431  -0.77252  -0.75439  -0.67696  -0.66945
  Beta  occ. eigenvalues --   -0.61979  -0.61950  -0.58304  -0.57069  -0.52349
  Beta  occ. eigenvalues --   -0.50689  -0.49026  -0.48696  -0.48569  -0.45629
  Beta  occ. eigenvalues --   -0.45398  -0.44767  -0.44687  -0.41850  -0.41474
  Beta  occ. eigenvalues --   -0.40031  -0.39565  -0.37878  -0.37656  -0.35957
  Beta  occ. eigenvalues --   -0.35708  -0.28399  -0.28132  -0.27680  -0.27475
  Beta  occ. eigenvalues --   -0.24615
  Beta virt. eigenvalues --   -0.08675  -0.03905  -0.02738  -0.01679  -0.00622
  Beta virt. eigenvalues --    0.00162   0.00966   0.01736   0.02161   0.03402
  Beta virt. eigenvalues --    0.03477   0.04176   0.04236   0.04283   0.06139

 Mulliken charges and spin densities:
               1          2
     1  O   -0.347967  -0.000000
     2  C   -0.348305   0.000000
     3  C    1.188910  -0.000000
     4  C    0.404671   0.000000
     5  C   -0.309903  -0.000000
     6  C   -0.343323   0.000000
     7  C   -0.370867   0.000000
     8  C   -1.012029  -0.000000
     9  O   -0.039428  -0.000000
    10  C   -1.012346   0.000000
    11  C   -0.370381  -0.000000
    12  C   -0.343382   0.000000
    13  C   -0.309607   0.000000
    14  C    0.404484  -0.000000
    15  C    1.188395   0.000000
    16  H    0.194817   0.000000
    17  H    0.198297   0.000000
    18  H    0.205657   0.000000
    19  H    0.211744   0.000000
    20  H    0.211769   0.000000
    21  H    0.205649   0.000000
    22  H    0.198306   0.000000
    23  H    0.194839  -0.000000
 Sum of Mulliken charges =  -0.00000   0.00000

 Dipole moment (field-independent basis, Debye):
    X=              0.0017    Y=             -4.4339    Z=              0.0003  Tot=              4.4339
 Quadrupole moment (field-independent basis, Debye-Ang):
   XX=            -61.1732   YY=            -90.2220   ZZ=            -90.3018
   XY=              0.0010   XZ=             -0.0004   YZ=              0.0003

 Normal termination of Gaussian 16 at Sat Jan 13 19:17:40 2024.
