 Q-Chem 5.4, Q-Chem, Inc., Pleasanton, CA (2021)
 Q-Chem 5.4.0 for Intel X86 EM64T Linux

User input:
--------------------------------------------------------------
$molecule
0 1
C                  4.9992020000     -2.4917050000      0.2019770000
C                  5.6902840000     -1.6503070000     -0.6615490000
C                  4.9904480000     -0.8018400000     -1.5244350000
C                  3.6009030000     -2.4938430000      0.2120170000
C                  2.8966880000     -1.6400500000     -0.6562850000
C                  3.6009660000     -0.7967190000     -1.5218110000
C                  2.8865350000     -3.4084100000      1.1504980000
C                  1.3928380000     -3.3825630000      1.1318280000
C                  0.6888360000     -2.5291820000      0.2638050000
C                  1.4063260000     -1.6134210000     -0.6751030000
C                  0.6903390000     -4.2242880000      1.9953080000
C                 -0.7090530000     -2.5310480000      0.2728540000
C                 -1.4032280000     -3.3699510000      1.1332360000
O                  3.4967110000     -4.1480040000      1.9031490000
O                  0.7912570000     -0.8746440000     -1.4259270000
H                  5.5211690000     -3.1568440000      0.8786540000
H                 -2.4850100000     -3.3722830000      1.1410640000
H                  3.0387470000     -0.1477010000     -2.1816820000
H                  1.2347580000     -4.8800820000      2.6625710000
H                 -1.2314810000     -1.8662080000     -0.4035200000
C                 -0.7036180000     -4.2220820000      2.0001770000
H                  5.5319130000     -0.1464680000     -2.1970720000
C                 -1.4029380000     -5.1450990000      2.9469710000
O                 -0.8392650000     -5.8931270000      3.7098690000
O                 -2.7448660000     -5.0498510000      2.8548400000
C                 -3.4977190000     -5.9069890000      3.7346640000
H                 -4.5426020000     -5.6947180000      3.5204160000
H                 -3.2634300000     -5.6812870000      4.7756020000
H                 -3.2670760000     -6.9536480000      3.5329830000
H                  6.7743250000     -1.6525790000     -0.6653400000
$end
$rem
MAX_SCF_CYCLES=200
BASIS  =  6-311++G(d,p)
GUI  =  2
JOB_TYPE  =  SP
METHOD  =  B3LYP
SOLVENT_METHOD = COSMO
$end
$solvent
dielectric 37.219
opticaldielectric 1.43
$end

--------------------------------------------------------------

             Standard Nuclear Orientation (Angstroms)
    I     Atom           X                Y                Z
 ----------------------------------------------------------------
    1      C       3.5606191053    -1.6886541106    -0.0004444487
    2      C       4.8650370389    -1.2093672876    -0.0007154322
    3      C       5.1068820164     0.1674950572    -0.0005882545
    4      C       2.4839339937    -0.7964128306    -0.0000770297
    5      C       2.7273075796     0.5890830725     0.0000513552
    6      C       4.0436216714     1.0620176213    -0.0001889861
    7      C       1.0943435337    -1.3409670214     0.0002557897
    8      C      -0.0296432110    -0.3566900496     0.0001877216
    9      C       0.2135803771     1.0282952071     0.0002176442
   10      C       1.6062938048     1.5717173224     0.0004507992
   11      C      -1.3429317292    -0.8287883420     0.0001509844
   12      C      -0.8622117242     1.9209599597     0.0000877014
   13      C      -2.1664315026     1.4467183491    -0.0000690720
   14      O       0.8834142855    -2.5415112157     0.0004869643
   15      O       1.8122664076     2.7739706643     0.0008958997
   16      H       3.3505030951    -2.7510111419    -0.0004778570
   17      H      -2.9997311638     2.1365956288    -0.0002268636
   18      H       4.2079344727     2.1324126854    -0.0000668449
   19      H      -1.5273229688    -1.8954174152     0.0002924097
   20      H      -0.6527224798     2.9832872559     0.0001177134
   21      C      -2.4119605986     0.0658188069     0.0000212480
   22      H       6.1253500271     0.5387903593    -0.0008081866
   23      C      -3.7976422512    -0.4974875517     0.0001861377
   24      O      -4.0526957773    -1.6782638863     0.0013879786
   25      O      -4.7404146547     0.4666232038    -0.0011200616
   26      C      -6.1067144150     0.0096895241    -0.0009223645
   27      H      -6.7132251460     0.9123978542    -0.0029399111
   28      H      -6.3064272961    -0.5876742418     0.8893899090
   29      H      -6.3055663404    -0.5911228178    -0.8890940388
   30      H       5.6961435764    -1.9053746559    -0.0010153388
 ----------------------------------------------------------------

    9    -916.8980125013      5.94e-06  Convergence criterion met
 Total energy in the final basis set =     -916.8980125013
    5    -916.9170159503      2.96e-06  Convergence criterion met
 Total energy in the final basis set =     -916.9170159503

                    Orbital Energies (a.u.)
 --------------------------------------------------------------

 Alpha MOs
 -- Occupied --
-19.1841 -19.1373 -19.1361 -19.1326 -10.3239 -10.2890 -10.2882 -10.2248
-10.2186 -10.2179 -10.2156 -10.2109 -10.2104 -10.2079 -10.2078 -10.2031
-10.1984 -10.1982 -10.1977 -10.1975  -1.1270  -1.0728  -1.0710  -1.0422
 -0.9015  -0.8870  -0.8237  -0.7909  -0.7811  -0.7792  -0.7405  -0.6968
 -0.6738  -0.6537  -0.6229  -0.5990  -0.5898  -0.5647  -0.5617  -0.5268
 -0.5068  -0.5043  -0.4978  -0.4899  -0.4824  -0.4665  -0.4601  -0.4600
 -0.4576  -0.4505  -0.4457  -0.4349  -0.4253  -0.4215  -0.4103  -0.3925
 -0.3866  -0.3808  -0.3721  -0.3714  -0.3669  -0.3259  -0.3073  -0.2954
 -0.2940  -0.2864  -0.2811  -0.2803  -0.2797

          Ground-State Mulliken Net Atomic Charges

     Atom                 Charge (a.u.)
  ----------------------------------------
      1 C                     0.133734
      2 C                    -0.425965
      3 C                    -0.463276
      4 C                     0.403157
      5 C                     0.301687
      6 C                     0.131010
      7 C                    -0.697096
      8 C                     0.389533
      9 C                     0.314020
     10 C                    -0.756659
     11 C                     0.051455
     12 C                    -0.011776
     13 C                    -0.639964
     14 O                    -0.281787
     15 O                    -0.276934
     16 H                     0.199480
     17 H                     0.243578
     18 H                     0.201988
     19 H                     0.194302
     20 H                     0.211752
     21 C                     0.307435
     22 H                     0.227555
     23 C                     0.164513
     24 O                    -0.330974
     25 O                    -0.131539
     26 C                    -0.267375
     27 H                     0.180463
     28 H                     0.198680
     29 H                     0.198551
     30 H                     0.230452
  ----------------------------------------
  Sum of atomic charges =    -0.000002

                    Cartesian Multipole Moments
 -----------------------------------------------------------------
    Charge (ESU x 10^10)
                -0.0000
    Dipole Moment (Debye)
         X       0.6549      Y       2.5529      Z      -0.0054
       Tot       2.6355
    Quadrupole Moments (Debye-Ang)
        XX     -68.6833     XY     -17.6260     YY    -131.6248
        XZ       0.0036     YZ       0.0067     ZZ    -115.2648

 Total job time:  90.14s(wall), 589.00s(cpu)
        *  Thank you very much for using Q-Chem.  Have a nice day.  *
