 Gaussian 16, Revision A.03,
 Gaussian 16:  ES64L-G16RevA.03 25-Dec-2016

 --------------------------------------
 #P UB3LYP/6-311++G(d,p) nosym opt freq
 --------------------------------------

 -------
 Radical
 -------
 Symbolic Z-matrix:
 Charge = -1 Multiplicity = 2

 SCF Done:  E(UB3LYP) =  -473.926052853     A.U. after   20 cycles
 Optimization completed.
    -- Stationary point found.
 Normal termination of Gaussian 16 at Sat Jan  6 05:39:14 2024.

 ----------------------------------------------------------------------
 #P Geom=AllCheck Guess=TCheck SCRF=Check GenChk UB3LYP/6-311++G(d,p) F
 req
 ----------------------------------------------------------------------

 Structure from the checkpoint file:  "000-rad.chk"
 -------
 Radical
 -------
 Charge = -1 Multiplicity = 2

                          Input orientation:
 ---------------------------------------------------------------------
 Center     Atomic      Atomic             Coordinates (Angstroms)
 Number     Number       Type             X           Y           Z
 ---------------------------------------------------------------------
      1          6           0       -0.303857    1.174784   -0.273337
      2          6           0       -1.368947    0.300786   -0.743028
      3          6           0       -1.310427   -1.057416   -0.654112
      4          6           0       -0.171609   -1.756566   -0.078618
      5          6           0        0.894154   -0.909931    0.392566
      6          6           0        0.843825    0.473745    0.306409
      7          8           0       -0.373504    2.421477   -0.362490
      8          8           0       -0.124459   -3.016222    0.000543
      9          6           0        1.938158    1.247058    0.794516
     10          7           0        2.846569    1.841402    1.201607
     11          1           0       -2.229939    0.801008   -1.176884
     12          1           0       -2.125249   -1.678870   -1.015538
     13          1           0        1.758405   -1.400586    0.827406
 ---------------------------------------------------------------------

 SCF Done:  E(UB3LYP) =  -473.926052853     A.U. after    1 cycles

 Alpha  occ. eigenvalues --  -18.95632 -18.95499 -14.17975 -10.10906 -10.09996
 Alpha  occ. eigenvalues --  -10.08102 -10.07498 -10.05788 -10.05318 -10.05183
 Alpha  occ. eigenvalues --   -0.88268  -0.87495  -0.77956  -0.71195  -0.64602
 Alpha  occ. eigenvalues --   -0.57410  -0.51192  -0.46810  -0.38500  -0.36081
 Alpha  occ. eigenvalues --   -0.34718  -0.31395  -0.29553  -0.28269  -0.26383
 Alpha  occ. eigenvalues --   -0.25527  -0.25319  -0.23974  -0.23138  -0.20655
 Alpha  occ. eigenvalues --   -0.16100  -0.14406  -0.11958  -0.11647  -0.04540
 Alpha virt. eigenvalues --    0.08072   0.09686   0.11333   0.12094   0.13759
 Alpha virt. eigenvalues --    0.14727   0.15738   0.15943   0.16588   0.17796
 Alpha virt. eigenvalues --    0.18372   0.18890   0.19435   0.19618   0.20693

  Beta  occ. eigenvalues --  -18.94966 -18.94680 -14.17910 -10.10854 -10.09928
  Beta  occ. eigenvalues --  -10.08124 -10.07377 -10.05550 -10.05258 -10.05088
  Beta  occ. eigenvalues --   -0.87140  -0.86076  -0.77840  -0.70573  -0.64314
  Beta  occ. eigenvalues --   -0.56383  -0.50792  -0.46448  -0.38118  -0.35869
  Beta  occ. eigenvalues --   -0.34349  -0.31215  -0.28017  -0.27514  -0.25923
  Beta  occ. eigenvalues --   -0.25074  -0.23834  -0.23230  -0.21814  -0.20577
  Beta  occ. eigenvalues --   -0.13620  -0.12485  -0.11302  -0.10913
  Beta virt. eigenvalues --    0.02710   0.09544   0.09700   0.11349   0.12115
  Beta virt. eigenvalues --    0.14746   0.14976   0.15810   0.15984   0.17337
  Beta virt. eigenvalues --    0.17859   0.18414   0.18974   0.19625   0.19887

 Mulliken charges and spin densities:
               1          2
     1  C   -1.232025   0.008216
     2  C    0.251326   0.079843
     3  C    0.142493   0.043044
     4  C   -0.511965   0.067605
     5  C   -0.396554   0.164781
     6  C    2.127678   0.086816
     7  O   -0.373917   0.243807
     8  O   -0.404124   0.292235
     9  C   -0.793679   0.003797
    10  N   -0.296900   0.033008
    11  H    0.160672  -0.006435
    12  H    0.157883  -0.004218
    13  H    0.169114  -0.012501
 Sum of Mulliken charges =  -1.00000   1.00000

 Dipole moment (field-independent basis, Debye):
    X=             -3.4233    Y=             -1.4764    Z=             -1.2068  Tot=              3.9186
 Quadrupole moment (field-independent basis, Debye-Ang):
   XX=            -73.1564   YY=           -100.6484   ZZ=            -62.5774
   XY=             -8.9391   XZ=             -5.5704   YZ=             -2.3388

  Exact polarizability: 115.583  16.803 157.553  28.535   3.391  67.750
 Approx polarizability: 169.903  22.471 280.675  41.972   1.722  99.901

                      1                      2                      3
                      A                      A                      A
 Frequencies --    104.5630               147.4584               150.3585
 Red. masses --      6.7446                 8.9331                12.2745
 Frc consts  --      0.0434                 0.1144                 0.1635
 IR Inten    --      3.2626                13.4103                 2.0174

                      4                      5                      6
                      A                      A                      A
 Frequencies --    306.6067               353.8701               379.6822
 Red. masses --      6.5255                13.5995                 4.3683
 Frc consts  --      0.3614                 1.0034                 0.3710
 IR Inten    --      0.1488                 2.8728                 0.4036

                      7                      8                      9
                      A                      A                      A
 Frequencies --    429.7588               455.2049               502.5165
 Red. masses --      7.3764                11.7527                 3.1285
 Frc consts  --      0.8027                 1.4348                 0.4655
 IR Inten    --      1.0867                 2.2254                 9.2581

                     10                     11                     12
                      A                      A                      A
 Frequencies --    514.6202               621.3074               630.5771
 Red. masses --     11.0281                 5.4127                 3.9242
 Frc consts  --      1.7208                 1.2310                 0.9193
 IR Inten    --      2.6215                 0.0089                 0.5032

                     13                     14                     15
                      A                      A                      A
 Frequencies --    694.4346               746.6906               820.0519
 Red. masses --      7.7542                 3.4133                 5.9172
 Frc consts  --      2.2032                 1.1213                 2.3445
 IR Inten    --      5.4386                 0.0057                30.4767

                     16                     17                     18
                      A                      A                      A
 Frequencies --    830.2182               877.7684               912.5916
 Red. masses --      1.9254                 1.6283                 3.6535
 Frc consts  --      0.7819                 0.7392                 1.7927
 IR Inten    --     17.7233                35.7560                 0.5681

                     19                     20                     21
                      A                      A                      A
 Frequencies --    964.7551              1075.5757              1142.1141
 Red. masses --      1.2648                 2.8663                 1.6663
 Frc consts  --      0.6936                 1.9537                 1.2806
 IR Inten    --      0.1119                13.3073                22.2742

                     22                     23                     24
                      A                      A                      A
 Frequencies --   1212.7197              1245.6818              1343.7132
 Red. masses --      2.4814                 1.8046                 2.2758
 Frc consts  --      2.1502                 1.6498                 2.4210
 IR Inten    --     16.1250                29.3388                 6.8191

                     25                     26                     27
                      A                      A                      A
 Frequencies --   1418.9693              1479.6339              1513.1488
 Red. masses --      4.1984                 6.4921                 6.3782
 Frc consts  --      4.9805                 8.3742                 8.6042
 IR Inten    --     32.0728                98.1880               106.7290

                     28                     29                     30
                      A                      A                      A
 Frequencies --   1548.5964              1639.5635              2290.4844
 Red. masses --      8.3709                 6.8646                12.6856
 Frc consts  --     11.8277                10.8723                39.2116
 IR Inten    --    323.9521                 9.5821               196.5464

                     31                     32                     33
                      A                      A                      A
 Frequencies --   3138.4746              3160.6134              3170.5930
 Red. masses --      1.0855                 1.0949                 1.0902
 Frc consts  --      6.2996                 6.4441                 6.4574
 IR Inten    --     15.7912                37.6817                 6.3066

 - Thermochemistry -
 -------------------
 Temperature   298.150 Kelvin.  Pressure   1.00000 Atm.
 Atom     1 has atomic number  6 and mass  12.00000

 Molecular mass:   133.01638 amu.
 Principal axes and moments of inertia in atomic units:
                           1         2         3
     Eigenvalues --   775.218611604.875562380.09416
           X            0.46434   0.77388  -0.43070
           Y            0.86656  -0.49742   0.04047
           Z            0.18292   0.39202   0.90159
 This molecule is an asymmetric top.
 Rotational symmetry number  1.
 Warning -- assumption of classical behavior for rotation
           may cause significant error
 Rotational temperatures (Kelvin)      0.11173     0.05397     0.03639
 Rotational constants (GHZ):           2.32804     1.12454     0.75826
 Zero-point vibrational energy     214268.6 (Joules/Mol)
                                   51.21143 (Kcal/Mol)
 Warning -- explicit consideration of  10 degrees of freedom as
           vibrations may cause significant error
 Vibrational temperatures:    150.44   212.16   216.33   441.14   509.14
          (Kelvin)            546.28   618.33   654.94   723.01   740.42
                              893.92   907.26   999.14  1074.32  1179.87
                             1194.50  1262.91  1313.02  1388.07  1547.51
                             1643.25  1744.83  1792.26  1933.30  2041.58
                             2128.86  2177.08  2228.08  2358.97  3295.50
                             4515.57  4547.42  4561.78

 Zero-point correction=                           0.081611 (Hartree/Particle)
 Thermal correction to Energy=                    0.089444
 Thermal correction to Enthalpy=                  0.090389
 Thermal correction to Gibbs Free Energy=         0.048070
 Sum of electronic and zero-point Energies=           -473.844442
 Sum of electronic and thermal Energies=              -473.836608
 Sum of electronic and thermal Enthalpies=            -473.835664
 Sum of electronic and thermal Free Energies=         -473.877983

                     E (Thermal)             CV                S
                      KCal/Mol        Cal/Mol-Kelvin    Cal/Mol-Kelvin
 Total                   56.127             29.276             89.068
 Electronic               0.000              0.000              1.377
 Translational            0.889              2.981             40.568
 Rotational               0.889              2.981             29.472
 Vibrational             54.350             23.314             17.650
 Vibration     1          0.605              1.946              3.367
 Vibration     2          0.617              1.905              2.705
 Vibration     3          0.618              1.902              2.668
 Vibration     4          0.697              1.661              1.381
 Vibration     5          0.730              1.567              1.149
 Vibration     6          0.750              1.513              1.040
 Vibration     7          0.791              1.405              0.859
 Vibration     8          0.814              1.349              0.780
 Vibration     9          0.858              1.244              0.652
 Vibration    10          0.870              1.218              0.623

 Optimization completed.
    -- Stationary point found.
 Normal termination of Gaussian 16 at Sat Jan  6 05:49:24 2024.
