 Gaussian 16, Revision A.03,
 Gaussian 16:  ES64L-G16RevA.03 25-Dec-2016

 ----------------------------------------------------------------
 #P UB3LYP/6-311++G(d,p) SCRF=(PCM,Solvent=n,n-DiMethylFormamide)
 ----------------------------------------------------------------

 ------------------
 Radical PCM in DMF
 ------------------
 Symbolic Z-matrix:
 Charge = -1 Multiplicity = 2

                         Standard orientation:
 ---------------------------------------------------------------------
 Center     Atomic      Atomic             Coordinates (Angstroms)
 Number     Number       Type             X           Y           Z
 ---------------------------------------------------------------------
      1          6           0       -0.648870    1.123938   -0.000025
      2          6           0        0.701134    1.668352    0.000072
      3          6           0        1.817968    0.888143    0.000080
      4          6           0        1.758145   -0.565588    0.000016
      5          6           0        0.430941   -1.125218   -0.000029
      6          6           0       -0.712155   -0.339186   -0.000028
      7          8           0       -1.664905    1.855180   -0.000099
      8          8           0        2.798005   -1.282466   -0.000066
      9          6           0       -1.993611   -0.965042   -0.000058
     10          7           0       -3.017007   -1.509872    0.000120
     11          1           0        0.770392    2.752309    0.000150
     12          1           0        2.810796    1.329799    0.000138
     13          1           0        0.351743   -2.207108    0.000022
 ---------------------------------------------------------------------

 SCF Done:  E(UB3LYP) =  -474.003132484     A.U. after   20 cycles

 The electronic state is 2-A.
 Alpha  occ. eigenvalues --  -19.09454 -19.09190 -14.31568 -10.24458 -10.23389
 Alpha  occ. eigenvalues --  -10.21819 -10.20736 -10.18911 -10.18009 -10.17882
 Alpha  occ. eigenvalues --   -1.02101  -1.01189  -0.91635  -0.84364  -0.77529
 Alpha  occ. eigenvalues --   -0.70700  -0.64269  -0.59783  -0.51837  -0.49318
 Alpha  occ. eigenvalues --   -0.47774  -0.44148  -0.42983  -0.42104  -0.39937
 Alpha  occ. eigenvalues --   -0.39207  -0.38526  -0.37558  -0.36778  -0.34365
 Alpha  occ. eigenvalues --   -0.29528  -0.27391  -0.25869  -0.25379  -0.18044
 Alpha virt. eigenvalues --   -0.04947   0.00104   0.00754   0.01422   0.01905
 Alpha virt. eigenvalues --    0.02360   0.04264   0.04523   0.05046   0.06135
 Alpha virt. eigenvalues --    0.06723   0.07464   0.08159   0.08626   0.08911

  Beta  occ. eigenvalues --  -19.08834 -19.08406 -14.31507 -10.24374 -10.23293
  Beta  occ. eigenvalues --  -10.21839 -10.20625 -10.18658 -10.17959 -10.17795
  Beta  occ. eigenvalues --   -1.01037  -0.99815  -0.91528  -0.83736  -0.77250
  Beta  occ. eigenvalues --   -0.69638  -0.63860  -0.59400  -0.51433  -0.49092
  Beta  occ. eigenvalues --   -0.47391  -0.43918  -0.41440  -0.41391  -0.39516
  Beta  occ. eigenvalues --   -0.38346  -0.37382  -0.36785  -0.35545  -0.34284
  Beta  occ. eigenvalues --   -0.26560  -0.26172  -0.25265  -0.24678
  Beta virt. eigenvalues --   -0.10849  -0.03471   0.00138   0.01435   0.01956
  Beta virt. eigenvalues --    0.02416   0.02472   0.04287   0.04583   0.05381
  Beta virt. eigenvalues --    0.06215   0.07430   0.07503   0.08257   0.08635

 Mulliken charges and spin densities:
               1          2
     1  C   -1.077457   0.033498
     2  C    0.162046   0.072176
     3  C    0.059061   0.034541
     4  C   -0.347527   0.091546
     5  C   -0.421121   0.172342
     6  C    2.112521   0.079336
     7  O   -0.458117   0.224302
     8  O   -0.478365   0.276874
     9  C   -0.825638   0.005670
    10  N   -0.339763   0.031324
    11  H    0.205011  -0.005638
    12  H    0.204013  -0.003425
    13  H    0.205337  -0.012545
 Sum of Mulliken charges =  -1.00000   1.00000

 Dipole moment (field-independent basis, Debye):
    X=              3.1381    Y=              1.7026    Z=              0.0002  Tot=              3.5702
 Quadrupole moment (field-independent basis, Debye-Ang):
   XX=           -103.2256   YY=            -72.5735   ZZ=            -59.8329
   XY=              9.8740   XZ=              0.0012   YZ=              0.0008

 Normal termination of Gaussian 16 at Sun Jan 21 07:06:26 2024.
