 Gaussian 16, Revision A.03,
 Gaussian 16:  ES64L-G16RevA.03 25-Dec-2016

 ----------------------------------------------------------------------
 #P UB3LYP/6-311++G(d,p) nosym opt freq SCRF=(PCM,Solvent=n,n-DiMethylF
 ormamide)
 ----------------------------------------------------------------------

 -------
 Reduced
 -------
 Symbolic Z-matrix:
 Charge = -2 Multiplicity = 1

 SCF Done:  E(UB3LYP) =  -770.241320263     A.U. after   18 cycles
 SCF Done:  E(UB3LYP) =  -770.242924430     A.U. after   15 cycles
 SCF Done:  E(UB3LYP) =  -770.243176533     A.U. after   13 cycles
 SCF Done:  E(UB3LYP) =  -770.243229439     A.U. after   12 cycles
 SCF Done:  E(UB3LYP) =  -770.243273027     A.U. after   11 cycles
 SCF Done:  E(UB3LYP) =  -770.243274687     A.U. after   11 cycles
 SCF Done:  E(UB3LYP) =  -770.243275211     A.U. after   10 cycles
 Optimization completed.
    -- Stationary point found.
 Normal termination of Gaussian 16 at Sun Feb 11 03:00:43 2024.

 ----------------------------------------------------------------------
 #P Geom=AllCheck Guess=TCheck SCRF=Check GenChk UB3LYP/6-311++G(d,p) F
 req
 ----------------------------------------------------------------------

 Structure from the checkpoint file:  "240-an.chk"
 -------
 Reduced
 -------
 Charge = -2 Multiplicity = 1

                          Input orientation:
 ---------------------------------------------------------------------
 Center     Atomic      Atomic             Coordinates (Angstroms)
 Number     Number       Type             X           Y           Z
 ---------------------------------------------------------------------
      1          8           0        2.782659   -2.782361   -1.414594
      2          6           0        2.214043   -1.749452   -0.833495
      3          6           0        0.822579   -1.569522   -0.750587
      4          6           0        0.161347   -0.472068   -0.135158
      5          6           0       -1.362181   -0.472803   -0.149920
      6          6           0       -1.962474    0.705711   -0.949486
      7          6           0       -3.497910    0.674789   -0.976124
      8          6           0       -4.087592    0.624100    0.440154
      9          6           0       -3.517338   -0.560219    1.232883
     10          6           0       -1.981859   -0.535693    1.264655
     11          6           0        0.894324    0.580506    0.470086
     12          8           0        0.346136    1.621047    1.050194
     13          6           0        2.343097    0.438475    0.412335
     14          6           0        3.171415    1.435711    0.991756
     15          6           0        4.549914    1.356752    0.971566
     16          6           0        5.180977    0.247327    0.356198
     17          6           0        4.407681   -0.741798   -0.218118
     18          6           0        2.989857   -0.690159   -0.216699
     19          1           0        0.202004   -2.345340   -1.200391
     20          1           0       -1.674524   -1.391973   -0.668402
     21          1           0       -1.613303    1.637720   -0.495168
     22          1           0       -1.571994    0.681339   -1.973917
     23          1           0       -3.884078    1.547454   -1.516048
     24          1           0       -3.836348   -0.209821   -1.533765
     25          1           0       -3.847156    1.558697    0.964364
     26          1           0       -5.181047    0.562141    0.396205
     27          1           0       -3.858524   -1.495860    0.767874
     28          1           0       -3.916193   -0.559086    2.254244
     29          1           0       -1.606764   -1.426387    1.782942
     30          1           0       -1.629847    0.333914    1.827426
     31          1           0        2.675627    2.278317    1.461259
     32          1           0        5.149837    2.140227    1.425532
     33          1           0        6.264662    0.177766    0.337910
     34          1           0        4.872971   -1.599450   -0.692304
 ---------------------------------------------------------------------

 SCF Done:  E(UB3LYP) =  -770.243275210     A.U. after    1 cycles

 Alpha  occ. eigenvalues --  -19.01009 -19.00407 -10.16287 -10.16114 -10.15030
 Alpha  occ. eigenvalues --  -10.14856 -10.14853 -10.14695 -10.14647 -10.14480
 Alpha  occ. eigenvalues --  -10.14357 -10.14230 -10.13757 -10.13741 -10.13415
 Alpha  occ. eigenvalues --  -10.13376 -10.12093 -10.11308  -0.91639  -0.91181
 Alpha  occ. eigenvalues --   -0.82108  -0.81316  -0.76512  -0.72946  -0.72143
 Alpha  occ. eigenvalues --   -0.71866  -0.68738  -0.63536  -0.59912  -0.59003
 Alpha  occ. eigenvalues --   -0.57865  -0.55738  -0.53545  -0.51490  -0.47090
 Alpha  occ. eigenvalues --   -0.46842  -0.44655  -0.42742  -0.42302  -0.41837
 Alpha  occ. eigenvalues --   -0.41804  -0.39739  -0.38676  -0.37411  -0.36936
 Alpha  occ. eigenvalues --   -0.36344  -0.36000  -0.35624  -0.34601  -0.33631
 Alpha  occ. eigenvalues --   -0.32642  -0.32143  -0.31382  -0.31032  -0.30345
 Alpha  occ. eigenvalues --   -0.29825  -0.29486  -0.28192  -0.27792  -0.22514
 Alpha  occ. eigenvalues --   -0.21535  -0.20405  -0.19022  -0.18232  -0.10857
 Alpha virt. eigenvalues --   -0.00456  -0.00068   0.00528   0.01111   0.01253
 Alpha virt. eigenvalues --    0.01907   0.02027   0.02241   0.03583   0.04044
 Alpha virt. eigenvalues --    0.04192   0.04416   0.04675   0.05177   0.06273

  Beta  occ. eigenvalues --  -19.01009 -19.00407 -10.16287 -10.16114 -10.15030
  Beta  occ. eigenvalues --  -10.14856 -10.14853 -10.14695 -10.14647 -10.14480
  Beta  occ. eigenvalues --  -10.14357 -10.14230 -10.13757 -10.13741 -10.13415
  Beta  occ. eigenvalues --  -10.13376 -10.12093 -10.11308  -0.91639  -0.91181
  Beta  occ. eigenvalues --   -0.82108  -0.81316  -0.76512  -0.72946  -0.72143
  Beta  occ. eigenvalues --   -0.71866  -0.68738  -0.63536  -0.59912  -0.59003
  Beta  occ. eigenvalues --   -0.57865  -0.55738  -0.53545  -0.51490  -0.47090
  Beta  occ. eigenvalues --   -0.46842  -0.44655  -0.42742  -0.42302  -0.41837
  Beta  occ. eigenvalues --   -0.41804  -0.39739  -0.38676  -0.37411  -0.36936
  Beta  occ. eigenvalues --   -0.36344  -0.36000  -0.35624  -0.34601  -0.33631
  Beta  occ. eigenvalues --   -0.32642  -0.32143  -0.31382  -0.31032  -0.30345
  Beta  occ. eigenvalues --   -0.29825  -0.29486  -0.28192  -0.27792  -0.22514
  Beta  occ. eigenvalues --   -0.21535  -0.20405  -0.19022  -0.18232  -0.10857
  Beta virt. eigenvalues --   -0.00456  -0.00068   0.00528   0.01111   0.01253
  Beta virt. eigenvalues --    0.01907   0.02027   0.02241   0.03583   0.04044
  Beta virt. eigenvalues --    0.04192   0.04416   0.04675   0.05177   0.06273

 Mulliken charges and spin densities:
               1          2
     1  O   -0.737608   0.000000
     2  C   -0.642744  -0.000000
     3  C   -0.279294   0.000000
     4  C    0.569697  -0.000000
     5  C    0.762004   0.000000
     6  C   -0.532872   0.000000
     7  C   -0.345033  -0.000000
     8  C   -0.404758  -0.000000
     9  C   -0.347138  -0.000000
    10  C   -0.533826   0.000000
    11  C   -0.853441  -0.000000
    12  O   -0.669084   0.000000
    13  C   -0.085512  -0.000000
    14  C    0.012498   0.000000
    15  C   -0.523552   0.000000
    16  C   -0.377526   0.000000
    17  C   -0.047775   0.000000
    18  C    0.688732   0.000000
    19  H    0.125889  -0.000000
    20  H    0.149017   0.000000
    21  H    0.180470  -0.000000
    22  H    0.145498   0.000000
    23  H    0.159976   0.000000
    24  H    0.116514   0.000000
    25  H    0.106511  -0.000000
    26  H    0.165574  -0.000000
    27  H    0.116890  -0.000000
    28  H    0.159785   0.000000
    29  H    0.144907   0.000000
    30  H    0.180684  -0.000000
    31  H    0.144770  -0.000000
    32  H    0.154879  -0.000000
    33  H    0.156205  -0.000000
    34  H    0.139665  -0.000000
 Sum of Mulliken charges =  -2.00000   0.00000

 Dipole moment (field-independent basis, Debye):
    X=            -16.8478    Y=              5.2994    Z=              1.5520  Tot=             17.7297
 Quadrupole moment (field-independent basis, Debye-Ang):
   XX=           -170.5379   YY=           -160.0555   ZZ=           -132.9662
   XY=             26.8777   XZ=             12.4489   YZ=            -20.8646

  Exact polarizability: 433.862  12.289 324.107  10.489  65.087 247.085
 Approx polarizability: 456.057  14.186 366.876  11.820  81.923 269.668

                      1                      2                      3
                      A                      A                      A
 Frequencies --     31.7588                46.1359                72.1447
 Red. masses --      3.5513                 4.8326                 3.6001
 Frc consts  --      0.0021                 0.0061                 0.0110
 IR Inten    --      0.0707                12.3636                 3.1684

                      4                      5                      6
                      A                      A                      A
 Frequencies --    130.1778               142.6720               185.6735
 Red. masses --      5.0907                 4.6933                 2.9998
 Frc consts  --      0.0508                 0.0563                 0.0609
 IR Inten    --     14.0055                 4.8189                10.9805

                      7                      8                      9
                      A                      A                      A
 Frequencies --    199.0903               223.0979               226.2057
 Red. masses --      6.2336                 1.7970                 5.3231
 Frc consts  --      0.1456                 0.0527                 0.1605
 IR Inten    --      1.3457                 0.0849                12.2627

                     10                     11                     12
                      A                      A                      A
 Frequencies --    277.1137               286.5127               333.9696
 Red. masses --      6.3173                 4.6204                 1.7941
 Frc consts  --      0.2858                 0.2235                 0.1179
 IR Inten    --     11.7411                 0.3899                 1.0277

                     13                     14                     15
                      A                      A                      A
 Frequencies --    356.7345               416.4519               427.8486
 Red. masses --     10.7801                 4.9401                 2.4302
 Frc consts  --      0.8083                 0.5048                 0.2621
 IR Inten    --     14.2834                 1.9648                 1.6002

                     16                     17                     18
                      A                      A                      A
 Frequencies --    440.9295               446.1025               467.3827
 Red. masses --      3.0976                 3.6401                 3.0691
 Frc consts  --      0.3548                 0.4268                 0.3950
 IR Inten    --      2.1623                 3.8957                 0.9098

                     19                     20                     21
                      A                      A                      A
 Frequencies --    480.8293               507.2265               544.4603
 Red. masses --      6.7623                 3.4358                 3.9913
 Frc consts  --      0.9211                 0.5208                 0.6971
 IR Inten    --      0.3438                 6.2869                 0.9231

                     22                     23                     24
                      A                      A                      A
 Frequencies --    571.5981               643.1290               645.5988
 Red. masses --      4.4430                 3.4042                 3.5005
 Frc consts  --      0.8553                 0.8296                 0.8596
 IR Inten    --      6.5403                 6.4915                 6.0850

                     25                     26                     27
                      A                      A                      A
 Frequencies --    695.2062               706.7393               739.2688
 Red. masses --      5.0600                 3.2217                 4.9139
 Frc consts  --      1.4409                 0.9481                 1.5823
 IR Inten    --      0.7784                58.9470               129.1192

                     28                     29                     30
                      A                      A                      A
 Frequencies --    769.9782               789.0516               791.4907
 Red. masses --      1.6787                 3.4037                 1.8094
 Frc consts  --      0.5864                 1.2486                 0.6678
 IR Inten    --     92.5698                 0.6060                18.5449

                     31                     32                     33
                      A                      A                      A
 Frequencies --    792.2408               831.2663               841.7343
 Red. masses --      2.3703                 3.9077                 1.6836
 Frc consts  --      0.8765                 1.5909                 0.7028
 IR Inten    --     41.9843                41.4474                42.3881

                     34                     35                     36
                      A                      A                      A
 Frequencies --    846.7739               860.8175               892.2367
 Red. masses --      2.1067                 1.6200                 1.7680
 Frc consts  --      0.8900                 0.7073                 0.8293
 IR Inten    --      2.8974                 0.1189                 7.7750

                     37                     38                     39
                      A                      A                      A
 Frequencies --    896.7450               925.5248               947.3170
 Red. masses --      1.8315                 1.5863                 3.5846
 Frc consts  --      0.8678                 0.8006                 1.8953
 IR Inten    --      0.1227                 0.4472                74.8832

                     40                     41                     42
                      A                      A                      A
 Frequencies --    970.6244               983.1045              1018.9810
 Red. masses --      1.3425                 1.2569                 2.5175
 Frc consts  --      0.7452                 0.7157                 1.5401
 IR Inten    --      3.9216                 1.1798                50.7088

                     43                     44                     45
                      A                      A                      A
 Frequencies --   1029.3499              1032.1275              1049.9774
 Red. masses --      1.7963                 2.3950                 1.4835
 Frc consts  --      1.1214                 1.5032                 0.9636
 IR Inten    --      7.1459                37.7293                 0.5572

                     46                     47                     48
                      A                      A                      A
 Frequencies --   1078.5200              1085.6708              1088.1640
 Red. masses --      1.2842                 3.2949                 2.1301
 Frc consts  --      0.8801                 2.2881                 1.4861
 IR Inten    --      0.0809               168.3422                 0.0026

                     49                     50                     51
                      A                      A                      A
 Frequencies --   1104.3793              1143.8686              1152.7541
 Red. masses --      2.0360                 1.6249                 2.0688
 Frc consts  --      1.4630                 1.2527                 1.6197
 IR Inten    --    182.7143                 1.2549                78.0412

                     52                     53                     54
                      A                      A                      A
 Frequencies --   1175.4763              1189.5768              1208.9834
 Red. masses --      1.7072                 1.4464                 1.6666
 Frc consts  --      1.3898                 1.2059                 1.4352
 IR Inten    --     19.5783                 0.1522               505.1081

                     55                     56                     57
                      A                      A                      A
 Frequencies --   1226.1403              1237.4053              1270.6616
 Red. masses --      3.1813                 1.7609                 1.6110
 Frc consts  --      2.8180                 1.5886                 1.5326
 IR Inten    --    126.2849               109.6012                60.8190

                     58                     59                     60
                      A                      A                      A
 Frequencies --   1276.1408              1279.4296              1316.4866
 Red. masses --      1.2962                 1.5694                 1.6398
 Frc consts  --      1.2438                 1.5136                 1.6745
 IR Inten    --      4.0952                 1.9441               545.0838

                     61                     62                     63
                      A                      A                      A
 Frequencies --   1319.5416              1321.3907              1353.6380
 Red. masses --      4.1949                 1.3339                 1.2900
 Frc consts  --      4.3035                 1.3723                 1.3927
 IR Inten    --    209.2393                 3.9416                 4.8046

                     64                     65                     66
                      A                      A                      A
 Frequencies --   1357.8232              1360.5624              1366.6436
 Red. masses --      2.4436                 1.3610                 3.9156
 Frc consts  --      2.6544                 1.4844                 4.3088
 IR Inten    --    173.8825                 0.2455               929.3961

                     67                     68                     69
                      A                      A                      A
 Frequencies --   1368.3373              1372.9326              1388.6615
 Red. masses --      1.4504                 1.5673                 2.0980
 Frc consts  --      1.6000                 1.7406                 2.3837
 IR Inten    --      0.2715               103.1869               147.0080

                     70                     71                     72
                      A                      A                      A
 Frequencies --   1427.6708              1446.2522              1476.6955
 Red. masses --      2.5838                 2.6139                 1.0901
 Frc consts  --      3.1029                 3.2213                 1.4005
 IR Inten    --     69.0724                34.8814                 2.7995

                     73                     74                     75
                      A                      A                      A
 Frequencies --   1477.9788              1481.0773              1486.1342
 Red. masses --      1.0924                 1.0860                 1.0934
 Frc consts  --      1.4060                 1.4036                 1.4229
 IR Inten    --      1.7614                11.9037                 6.4730

                     76                     77                     78
                      A                      A                      A
 Frequencies --   1494.0025              1503.6812              1530.1185
 Red. masses --      1.1054                 3.4964                 5.1318
 Frc consts  --      1.4537                 4.6579                 7.0789
 IR Inten    --      0.3520                50.5699               280.0860

                     79                     80                     81
                      A                      A                      A
 Frequencies --   1587.1473              1606.3702              2956.7141
 Red. masses --      7.0951                 5.4395                 1.0815
 Frc consts  --     10.5303                 8.2699                 5.5707
 IR Inten    --     30.2899                 1.8179                90.4234

                     82                     83                     84
                      A                      A                      A
 Frequencies --   2980.6177              2981.6423              2990.5773
 Red. masses --      1.0651                 1.0679                 1.0628
 Frc consts  --      5.5750                 5.5936                 5.6004
 IR Inten    --     32.7518               109.9266                42.4974

                     85                     86                     87
                      A                      A                      A
 Frequencies --   3002.0101              3006.5694              3021.2220
 Red. masses --      1.0643                 1.0674                 1.0953
 Frc consts  --      5.6511                 5.6846                 5.8905
 IR Inten    --    106.5505                63.8656               190.4143

                     88                     89                     90
                      A                      A                      A
 Frequencies --   3026.8986              3031.5466              3051.6888
 Red. masses --      1.0889                 1.1016                 1.1006
 Frc consts  --      5.8780                 5.9650                 6.0391
 IR Inten    --     95.9078               136.6543                24.5103

                     91                     92                     93
                      A                      A                      A
 Frequencies --   3061.0897              3090.7403              3134.5889
 Red. masses --      1.0975                 1.0862                 1.0844
 Frc consts  --      6.0593                 6.1137                 6.2779
 IR Inten    --    109.8720               160.3024                17.9275

                     94                     95                     96
                      A                      A                      A
 Frequencies --   3150.2847              3167.2965              3171.6080
 Red. masses --      1.0890                 1.0908                 1.0938
 Frc consts  --      6.3676                 6.4471                 6.4827
 IR Inten    --     35.2258                44.5536                73.7440

 - Thermochemistry -
 -------------------
 Temperature   298.150 Kelvin.  Pressure   1.00000 Atm.
 Atom     1 has atomic number  8 and mass  15.99491

 Molecular mass:   240.11503 amu.
 Principal axes and moments of inertia in atomic units:
                           1         2         3
     Eigenvalues --  1917.745307591.546048774.18910
           X            0.99832   0.05672  -0.01182
           Y           -0.05511   0.86657  -0.49601
           Z           -0.01789   0.49583   0.86824
 This molecule is an asymmetric top.
 Rotational symmetry number  1.
 Warning -- assumption of classical behavior for rotation
           may cause significant error
 Rotational temperatures (Kelvin)      0.04516     0.01141     0.00987
 Rotational constants (GHZ):           0.94107     0.23773     0.20569
 Zero-point vibrational energy     729116.8 (Joules/Mol)
                                  174.26310 (Kcal/Mol)
 Warning -- explicit consideration of  22 degrees of freedom as
           vibrations may cause significant error
 Vibrational temperatures:     45.69    66.38   103.80   187.30   205.27
          (Kelvin)            267.14   286.45   320.99   325.46   398.70
                              412.23   480.51   513.26   599.18   615.58
                              634.40   641.84   672.46   691.81   729.79
                              783.36   822.40   925.32   928.87  1000.25
                             1016.84  1063.64  1107.83  1135.27  1138.78
                             1139.86  1196.01  1211.07  1218.32  1238.52
                             1283.73  1290.22  1331.62  1362.98  1396.51
                             1414.47  1466.09  1481.00  1485.00  1510.68
                             1551.75  1562.04  1565.63  1588.96  1645.77
                             1658.56  1691.25  1711.54  1739.46  1764.14
                             1780.35  1828.20  1836.08  1840.81  1894.13
                             1898.53  1901.19  1947.58  1953.60  1957.55
                             1966.30  1968.73  1975.34  1997.97  2054.10
                             2080.83  2124.64  2126.48  2130.94  2138.22
                             2149.54  2163.46  2201.50  2283.55  2311.21
                             4254.05  4288.44  4289.92  4302.77  4319.22
                             4325.78  4346.86  4355.03  4361.72  4390.70
                             4404.23  4446.89  4509.97  4532.56  4557.03
                             4563.24

 Zero-point correction=                           0.277706 (Hartree/Particle)
 Thermal correction to Energy=                    0.292401
 Thermal correction to Enthalpy=                  0.293345
 Thermal correction to Gibbs Free Energy=         0.235597
 Sum of electronic and zero-point Energies=           -769.965569
 Sum of electronic and thermal Energies=              -769.950874
 Sum of electronic and thermal Enthalpies=            -769.949930
 Sum of electronic and thermal Free Energies=         -770.007678

                     E (Thermal)             CV                S
                      KCal/Mol        Cal/Mol-Kelvin    Cal/Mol-Kelvin
 Total                  183.484             59.913            121.540
 Electronic               0.000              0.000              0.000
 Translational            0.889              2.981             42.329
 Rotational               0.889              2.981             33.213
 Vibrational            181.707             53.951             45.999
 Vibration     1          0.594              1.983              5.716
 Vibration     2          0.595              1.979              4.977
 Vibration     3          0.598              1.967              4.094
 Vibration     4          0.612              1.923              2.943
 Vibration     5          0.616              1.911              2.768
 Vibration     6          0.632              1.859              2.271
 Vibration     7          0.637              1.841              2.141
 Vibration     8          0.649              1.806              1.934
 Vibration     9          0.650              1.801              1.909
 Vibration    10          0.678              1.716              1.551
 Vibration    11          0.684              1.699              1.494
 Vibration    12          0.715              1.608              1.241
 Vibration    13          0.732              1.561              1.136
 Vibration    14          0.780              1.435              0.904
 Vibration    15          0.789              1.410              0.866
 Vibration    16          0.801              1.381              0.824
 Vibration    17          0.805              1.369              0.808
 Vibration    18          0.825              1.322              0.745
 Vibration    19          0.837              1.293              0.708
 Vibration    20          0.862              1.234              0.640
 Vibration    21          0.900              1.152              0.556
 Vibration    22          0.928              1.093              0.501

 Optimization completed.
    -- Stationary point found.
 Normal termination of Gaussian 16 at Sun Feb 11 04:39:22 2024.
