 Q-Chem 5.4, Q-Chem, Inc., Pleasanton, CA (2021)
 Q-Chem 5.4.0 for Intel X86 EM64T Linux

User input:
--------------------------------------------------------------
$molecule
-1 2
C                  5.7605270000     -5.7373100000      0.4403700000
C                  5.8406390000     -5.9356710000     -0.9266300000
C                  5.1043590000     -5.1111980000     -1.8005910000
C                  4.9501990000     -4.7185340000      0.9802950000
C                  4.2095100000     -3.8893080000      0.1005400000
C                  4.3032400000     -4.1060280000     -1.2886870000
C                  4.8854840000     -4.5317630000      2.4377660000
C                  4.0296900000     -3.4654360000      2.9213050000
C                  3.3105300000     -2.6472620000      2.0560170000
C                  3.3508840000     -2.8151990000      0.6184050000
O                  5.5498320000     -5.2738730000      3.2147000000
O                  2.6836560000     -2.0781590000     -0.1617920000
H                  6.4698950000     -6.7255830000     -1.3268790000
C                  2.4174260000     -1.5362490000      2.5610150000
H                  5.1664820000     -5.2658140000     -2.8740810000
C                  3.9710830000     -3.2831490000      4.4207720000
C                  0.9384980000     -1.9532780000      2.6827880000
C                  0.0251480000     -0.8124720000      3.1447390000
C                 -1.4505110000     -1.2121810000      3.2593770000
H                  6.3154650000     -6.3554850000      1.1368290000
H                  3.7245010000     -3.4564910000     -1.9355970000
H                  2.4739050000     -0.7068760000      1.8490040000
H                  2.7690150000     -1.1689880000      3.5308280000
H                  4.5088160000     -4.1023990000      4.8986760000
H                  2.9414950000     -3.2672290000      4.7947430000
H                  4.4407720000     -2.3417510000      4.7348250000
H                  0.8523070000     -2.7960680000      3.3805170000
H                  0.6066160000     -2.3166650000      1.7050830000
H                  0.1181330000      0.0261870000      2.4422200000
H                  0.3729520000     -0.4357590000      4.1169680000
H                 -1.5440910000     -2.0529530000      3.9596780000
H                 -1.7966290000     -1.5878210000      2.2878140000
C                 -2.3681250000     -0.0718720000      3.7159180000
C                 -3.8435310000     -0.4727930000      3.8291010000
C                 -4.7612180000      0.6676070000      4.2847370000
C                 -6.2363640000      0.2657050000      4.3972610000
C                 -7.1540040000      1.4056330000      4.8533110000
H                 -2.2751960000      0.7682390000      3.0150210000
H                 -2.0210560000      0.3048910000      4.6874310000
H                 -3.9366910000     -1.3131260000      4.5296870000
H                 -4.1903370000     -0.8493620000      2.8578930000
H                 -4.6683240000      1.5077550000      3.5840000000
H                 -4.4144980000      1.0443170000      5.2561180000
H                 -6.3292920000     -0.5748230000      5.0975300000
H                 -6.5831490000     -0.1104060000      3.4258480000
H                 -7.0620220000      2.2467070000      4.1533640000
H                 -6.8083480000      1.7821750000      5.8252200000
C                 -8.6292440000      1.0042850000      4.9656010000
C                 -9.5378100000      2.1499310000      5.4220150000
H                 -8.7219190000      0.1644670000      5.6652280000
H                 -8.9753730000      0.6290120000      3.9946930000
H                 -9.2381440000      2.5236770000      6.4065250000
H                -10.5820870000      1.8311680000      5.4917330000
H                 -9.4934140000      2.9917210000      4.7233550000
$end

$rem
BASIS  =  6-311++G(d,p)
GUI  =  2
JOB_TYPE  =  SP
METHOD  =  B3LYP
SCF_CONVERGENCE  = 8
SOLVENT_METHOD = sm12
$end

$smx
solvent dimethylformamide
charges CM5
$end

--------------------------------------------------------------

             Standard Nuclear Orientation (Angstroms)
    I     Atom           X                Y                Z
 ----------------------------------------------------------------
    1      C       5.7605270000    -5.7373100000     0.4403700000
    2      C       5.8406390000    -5.9356710000    -0.9266300000
    3      C       5.1043590000    -5.1111980000    -1.8005910000
    4      C       4.9501990000    -4.7185340000     0.9802950000
    5      C       4.2095100000    -3.8893080000     0.1005400000
    6      C       4.3032400000    -4.1060280000    -1.2886870000
    7      C       4.8854840000    -4.5317630000     2.4377660000
    8      C       4.0296900000    -3.4654360000     2.9213050000
    9      C       3.3105300000    -2.6472620000     2.0560170000
   10      C       3.3508840000    -2.8151990000     0.6184050000
   11      O       5.5498320000    -5.2738730000     3.2147000000
   12      O       2.6836560000    -2.0781590000    -0.1617920000
   13      H       6.4698950000    -6.7255830000    -1.3268790000
   14      C       2.4174260000    -1.5362490000     2.5610150000
   15      H       5.1664820000    -5.2658140000    -2.8740810000
   16      C       3.9710830000    -3.2831490000     4.4207720000
   17      C       0.9384980000    -1.9532780000     2.6827880000
   18      C       0.0251480000    -0.8124720000     3.1447390000
   19      C      -1.4505110000    -1.2121810000     3.2593770000
   20      H       6.3154650000    -6.3554850000     1.1368290000
   21      H       3.7245010000    -3.4564910000    -1.9355970000
   22      H       2.4739050000    -0.7068760000     1.8490040000
   23      H       2.7690150000    -1.1689880000     3.5308280000
   24      H       4.5088160000    -4.1023990000     4.8986760000
   25      H       2.9414950000    -3.2672290000     4.7947430000
   26      H       4.4407720000    -2.3417510000     4.7348250000
   27      H       0.8523070000    -2.7960680000     3.3805170000
   28      H       0.6066160000    -2.3166650000     1.7050830000
   29      H       0.1181330000     0.0261870000     2.4422200000
   30      H       0.3729520000    -0.4357590000     4.1169680000
   31      H      -1.5440910000    -2.0529530000     3.9596780000
   32      H      -1.7966290000    -1.5878210000     2.2878140000
   33      C      -2.3681250000    -0.0718720000     3.7159180000
   34      C      -3.8435310000    -0.4727930000     3.8291010000
   35      C      -4.7612180000     0.6676070000     4.2847370000
   36      C      -6.2363640000     0.2657050000     4.3972610000
   37      C      -7.1540040000     1.4056330000     4.8533110000
   38      H      -2.2751960000     0.7682390000     3.0150210000
   39      H      -2.0210560000     0.3048910000     4.6874310000
   40      H      -3.9366910000    -1.3131260000     4.5296870000
   41      H      -4.1903370000    -0.8493620000     2.8578930000
   42      H      -4.6683240000     1.5077550000     3.5840000000
   43      H      -4.4144980000     1.0443170000     5.2561180000
   44      H      -6.3292920000    -0.5748230000     5.0975300000
   45      H      -6.5831490000    -0.1104060000     3.4258480000
   46      H      -7.0620220000     2.2467070000     4.1533640000
   47      H      -6.8083480000     1.7821750000     5.8252200000
   48      C      -8.6292440000     1.0042850000     4.9656010000
   49      C      -9.5378100000     2.1499310000     5.4220150000
   50      H      -8.7219190000     0.1644670000     5.6652280000
   51      H      -8.9753730000     0.6290120000     3.9946930000
   52      H      -9.2381440000     2.5236770000     6.4065250000
   53      H     -10.5820870000     1.8311680000     5.4917330000
   54      H      -9.4934140000     2.9917210000     4.7233550000
 ----------------------------------------------------------------

   17   -1007.2254205871      9.00e-09  Convergence criterion met
 Total energy in the final basis set =    -1007.3163172955

                    Orbital Energies (a.u.)
 --------------------------------------------------------------

 Alpha MOs
 -- Occupied --
-19.0724 -19.0716 -10.2187 -10.2174 -10.1812 -10.1807 -10.1768 -10.1767
-10.1762 -10.1756 -10.1718 -10.1681 -10.1647 -10.1636 -10.1632 -10.1628
-10.1628 -10.1623 -10.1622 -10.1620 -10.1619 -10.1616 -10.1615 -10.1573
 -0.9966  -0.9940  -0.8619  -0.8250  -0.8144  -0.8007  -0.7808  -0.7625
 -0.7549  -0.7489  -0.7228  -0.6973  -0.6724  -0.6579  -0.6353  -0.6078
 -0.5984  -0.5831  -0.5802  -0.5747  -0.5734  -0.5550  -0.5188  -0.4948
 -0.4880  -0.4763  -0.4681  -0.4607  -0.4508  -0.4372  -0.4350  -0.4318
 -0.4289  -0.4235  -0.4198  -0.4115  -0.4073  -0.4036  -0.4008  -0.3998
 -0.3858  -0.3834  -0.3817  -0.3754  -0.3692  -0.3673  -0.3580  -0.3543
 -0.3489  -0.3456  -0.3407  -0.3395  -0.3319  -0.3302  -0.3287  -0.3249
 -0.3245  -0.3225  -0.3223  -0.3005  -0.2689  -0.2617  -0.2453  -0.2423
 -0.2315  -0.1504

 Beta MOs
 -- Occupied --
-19.0659 -19.0651 -10.2173 -10.2160 -10.1808 -10.1803 -10.1767 -10.1767
-10.1756 -10.1750 -10.1705 -10.1668 -10.1647 -10.1637 -10.1631 -10.1628
-10.1628 -10.1623 -10.1622 -10.1620 -10.1619 -10.1616 -10.1616 -10.1573
 -0.9854  -0.9826  -0.8599  -0.8222  -0.8138  -0.8000  -0.7800  -0.7611
 -0.7533  -0.7478  -0.7214  -0.6956  -0.6713  -0.6520  -0.6344  -0.6072
 -0.5969  -0.5815  -0.5799  -0.5746  -0.5730  -0.5525  -0.5169  -0.4926
 -0.4879  -0.4761  -0.4658  -0.4602  -0.4502  -0.4359  -0.4325  -0.4314
 -0.4279  -0.4204  -0.4185  -0.4092  -0.4042  -0.4002  -0.3997  -0.3941
 -0.3839  -0.3816  -0.3803  -0.3749  -0.3671  -0.3576  -0.3545  -0.3471
 -0.3432  -0.3415  -0.3394  -0.3364  -0.3311  -0.3289  -0.3283  -0.3244
 -0.3242  -0.3223  -0.3222  -0.2998  -0.2551  -0.2480  -0.2365  -0.2323
 -0.2256

          Ground-State Mulliken Net Atomic Charges

     Atom                 Charge (a.u.)    Spin (a.u.)
  --------------------------------------------------------
      1 C                     0.060003       0.034390
      2 C                     0.997854       0.028083
      3 C                     0.856960       0.028033
      4 C                    -1.629907       0.018967
      5 C                    -0.941337       0.026817
      6 C                     0.056989       0.035348
      7 C                    -2.159262       0.064551
      8 C                    -0.551198       0.090822
      9 C                     0.531669       0.091952
     10 C                    -2.000476       0.074068
     11 O                    -0.322784       0.244125
     12 O                    -0.261854       0.244707
     13 H                     0.361593      -0.002292
     14 C                    -0.399453       0.016049
     15 H                     0.351196      -0.002205
     16 C                     0.586516      -0.000447
     17 C                    -2.857951      -0.000272
     18 C                    -1.205160       0.007154
     19 C                    -0.017534      -0.005924
     20 H                     0.143852      -0.002413
     21 H                     0.146789      -0.002723
     22 H                     0.115456       0.003287
     23 H                     0.268310       0.000421
     24 H                     0.197541      -0.001829
     25 H                     0.240584       0.004637
     26 H                     0.199636       0.006027
     27 H                     0.022641      -0.000833
     28 H                     0.117293      -0.000335
     29 H                     0.167061       0.000309
     30 H                     0.177403      -0.000500
     31 H                     0.157691       0.000180
     32 H                     0.102379      -0.000179
     33 C                     0.800713      -0.000192
     34 C                     1.108877       0.000035
     35 C                     1.214448       0.000174
     36 C                     0.726425       0.000008
     37 C                     0.282786      -0.000001
     38 H                     0.115707      -0.000000
     39 H                     0.112716       0.000001
     40 H                     0.110251      -0.000005
     41 H                     0.116010       0.000005
     42 H                     0.114558       0.000001
     43 H                     0.121315      -0.000001
     44 H                     0.117782      -0.000000
     45 H                     0.114871      -0.000001
     46 H                     0.107384      -0.000001
     47 H                     0.108812       0.000000
     48 C                    -0.060649      -0.000005
     49 C                    -0.448964       0.000004
     50 H                     0.125705      -0.000000
     51 H                     0.124851      -0.000000
     52 H                     0.141912       0.000000
     53 H                     0.190556      -0.000000
     54 H                     0.141433      -0.000000
  --------------------------------------------------------
  Sum of atomic charges =    -1.000002

                    Cartesian Multipole Moments
 -----------------------------------------------------------------
    Charge (ESU x 10^10)
                -4.8032
    Dipole Moment (Debye)
         X     -20.0997      Y      18.1344      Z      -6.7304
       Tot      27.8954
    Quadrupole Moments (Debye-Ang)
        XX    -253.5230     XY      87.3305     YY    -238.3512
        XZ     -36.2634     YZ      35.1896     ZZ    -177.7766

 Total job time:  3108.44s(wall), 22688.18s(cpu)
        *  Thank you very much for using Q-Chem.  Have a nice day.  *
