 Gaussian 16, Revision A.03,
 Gaussian 16:  ES64L-G16RevA.03 25-Dec-2016

 ----------------------------------------------------------------------
 #P UB3LYP/genecp nosym opt freq SCRF=(PCM,Solvent=n,n-DiMethylFormamid
 e)
 ----------------------------------------------------------------------

 --------
 Oxidized
 --------
 Symbolic Z-matrix:
 Charge =  0 Multiplicity = 1

 SCF Done:  E(UB3LYP) =  -1133.25399869     A.U. after   15 cycles
 SCF Done:  E(UB3LYP) =  -1133.25404163     A.U. after   11 cycles
 SCF Done:  E(UB3LYP) =  -1133.25405125     A.U. after   11 cycles
 SCF Done:  E(UB3LYP) =  -1133.25405731     A.U. after   11 cycles
 SCF Done:  E(UB3LYP) =  -1133.25405755     A.U. after   11 cycles
 SCF Done:  E(UB3LYP) =  -1133.25405950     A.U. after   10 cycles
 SCF Done:  E(UB3LYP) =  -1133.25405990     A.U. after    9 cycles
 Optimization completed.
    -- Stationary point found.
 Normal termination of Gaussian 16 at Sat Feb 10 10:35:17 2024.

 ------------------------------------------------------------------
 #P Geom=AllCheck Guess=TCheck SCRF=Check GenChk UB3LYP/GenECP Freq
 ------------------------------------------------------------------

 Structure from the checkpoint file:  "016.chk"
 --------
 Oxidized
 --------
 Charge =  0 Multiplicity = 1

                          Input orientation:
 ---------------------------------------------------------------------
 Center     Atomic      Atomic             Coordinates (Angstroms)
 Number     Number       Type             X           Y           Z
 ---------------------------------------------------------------------
      1          6           0       -1.746740    1.451187    1.014209
      2          6           0       -2.985046    0.685114    0.790736
      3          6           0       -3.039489   -0.522979    0.205179
      4          6           0       -1.742890   -1.133100   -0.254770
      5          6           0       -0.459618   -0.362235   -0.037190
      6          6           0       -0.454696    0.847575    0.554892
      7          8           0       -1.704311   -2.222369   -0.792429
      8          8           0       -1.788690    2.541926    1.559369
      9         53           0        1.245757    2.015615    0.914023
     10         53           0        1.259191   -1.341843   -0.731820
     11          1           0       -3.871193    1.190960    1.148925
     12          6           0       -4.348086   -1.292209   -0.008897
     13          6           0       -5.553112   -0.496514    0.528151
     14          6           0       -4.294083   -2.643115    0.748536
     15          6           0       -4.575141   -1.535473   -1.522454
     16          1           0       -5.672580    0.462237    0.016530
     17          1           0       -5.476568   -0.310832    1.602832
     18          1           0       -6.462675   -1.076778    0.357772
     19          1           0       -4.133288   -2.482201    1.818266
     20          1           0       -3.504808   -3.290751    0.370300
     21          1           0       -5.250379   -3.158988    0.626779
     22          1           0       -4.613075   -0.587556   -2.066626
     23          1           0       -5.534161   -2.041555   -1.662618
     24          1           0       -3.793575   -2.156494   -1.957013
 ---------------------------------------------------------------------

 SCF Done:  E(UB3LYP) =  -1133.25405990     A.U. after    1 cycles

 Alpha  occ. eigenvalues --  -19.15329 -19.15078 -10.30573 -10.30101 -10.26139
 Alpha  occ. eigenvalues --  -10.25962 -10.22854 -10.21193 -10.20918 -10.16530
 Alpha  occ. eigenvalues --  -10.16323 -10.16320  -6.86392  -6.86331  -4.88888
 Alpha  occ. eigenvalues --   -4.88828  -4.87703  -4.87643  -4.87557  -4.87494
 Alpha  occ. eigenvalues --   -1.93702  -1.93641  -1.93328  -1.93269  -1.93216
 Alpha  occ. eigenvalues --   -1.93155  -1.92191  -1.92188  -1.92130  -1.92126
 Alpha  occ. eigenvalues --   -1.08902  -1.08253  -0.88376  -0.84664  -0.79310
 Alpha  occ. eigenvalues --   -0.74745  -0.70983  -0.70536  -0.69348  -0.69001
 Alpha  occ. eigenvalues --   -0.62766  -0.61073  -0.55889  -0.54268  -0.50364
 Alpha  occ. eigenvalues --   -0.48408  -0.46869  -0.46748  -0.44855  -0.44740
 Alpha  occ. eigenvalues --   -0.43605  -0.43104  -0.41642  -0.39436  -0.38836
 Alpha  occ. eigenvalues --   -0.38654  -0.37358  -0.36527  -0.35452  -0.34732
 Alpha  occ. eigenvalues --   -0.34361  -0.30567  -0.30206  -0.29664  -0.29138
 Alpha  occ. eigenvalues --   -0.29088  -0.26206  -0.25856
 Alpha virt. eigenvalues --   -0.14460  -0.07281  -0.04287  -0.02295  -0.01620
 Alpha virt. eigenvalues --   -0.00699   0.01069   0.01406   0.01881   0.03291
 Alpha virt. eigenvalues --    0.03715   0.03810   0.03825   0.05433   0.05774

  Beta  occ. eigenvalues --  -19.15329 -19.15078 -10.30573 -10.30101 -10.26139
  Beta  occ. eigenvalues --  -10.25962 -10.22854 -10.21193 -10.20918 -10.16530
  Beta  occ. eigenvalues --  -10.16323 -10.16320  -6.86392  -6.86331  -4.88888
  Beta  occ. eigenvalues --   -4.88828  -4.87703  -4.87643  -4.87557  -4.87494
  Beta  occ. eigenvalues --   -1.93702  -1.93641  -1.93328  -1.93269  -1.93216
  Beta  occ. eigenvalues --   -1.93155  -1.92191  -1.92188  -1.92130  -1.92126
  Beta  occ. eigenvalues --   -1.08902  -1.08253  -0.88376  -0.84664  -0.79310
  Beta  occ. eigenvalues --   -0.74745  -0.70983  -0.70536  -0.69348  -0.69001
  Beta  occ. eigenvalues --   -0.62766  -0.61073  -0.55889  -0.54268  -0.50364
  Beta  occ. eigenvalues --   -0.48408  -0.46869  -0.46748  -0.44855  -0.44740
  Beta  occ. eigenvalues --   -0.43605  -0.43104  -0.41642  -0.39436  -0.38836
  Beta  occ. eigenvalues --   -0.38654  -0.37358  -0.36527  -0.35452  -0.34732
  Beta  occ. eigenvalues --   -0.34361  -0.30567  -0.30206  -0.29664  -0.29138
  Beta  occ. eigenvalues --   -0.29088  -0.26206  -0.25856
  Beta virt. eigenvalues --   -0.14460  -0.07281  -0.04287  -0.02295  -0.01620
  Beta virt. eigenvalues --   -0.00699   0.01069   0.01406   0.01881   0.03291
  Beta virt. eigenvalues --    0.03715   0.03810   0.03825   0.05433   0.05774

 Mulliken charges and spin densities:
               1          2
     1  C   -1.146616  -0.000000
     2  C   -0.277293  -0.000000
     3  C    1.343217   0.000000
     4  C   -1.014698   0.000000
     5  C    0.104258   0.000000
     6  C    1.001570  -0.000000
     7  O   -0.157223   0.000000
     8  O   -0.214442   0.000000
     9  I   -0.000915   0.000000
    10  I   -0.005083  -0.000000
    11  H    0.242912  -0.000000
    12  C    0.515330   0.000000
    13  C   -0.476866  -0.000000
    14  C   -0.691280   0.000000
    15  C   -0.690523   0.000000
    16  H    0.144390  -0.000000
    17  H    0.144139  -0.000000
    18  H    0.186051   0.000000
    19  H    0.150318  -0.000000
    20  H    0.176717  -0.000000
    21  H    0.169543  -0.000000
    22  H    0.150370   0.000000
    23  H    0.169469  -0.000000
    24  H    0.176655   0.000000
 Sum of Mulliken charges =  -0.00000  -0.00000

 Dipole moment (field-independent basis, Debye):
    X=             -2.1807    Y=             -1.1903    Z=             -0.3241  Tot=              2.5054
 Quadrupole moment (field-independent basis, Debye-Ang):
   XX=           -103.5616   YY=           -137.4280   ZZ=           -128.0206
   XY=              5.0212   XZ=             -0.3159   YZ=             -7.0709

  Exact polarizability: 291.591  17.215 330.435  -5.341  70.988 216.861
 Approx polarizability: 312.426  11.119 417.703  -7.608 101.491 258.773

                      1                      2                      3
                      A                      A                      A
 Frequencies --     18.9421                35.5909                74.2982
 Red. masses --      5.1060                 6.9711                 5.0603
 Frc consts  --      0.0011                 0.0052                 0.0165
 IR Inten    --      3.3196                 0.5564                 0.0063

                      4                      5                      6
                      A                      A                      A
 Frequencies --     97.1316               120.6198               127.3461
 Red. masses --     59.9221                 7.7936                 4.1157
 Frc consts  --      0.3331                 0.0668                 0.0393
 IR Inten    --      0.7839                 1.0656                 7.8248

                      7                      8                      9
                      A                      A                      A
 Frequencies --    178.8492               199.6929               207.2865
 Red. masses --      7.4550                 1.9106                 2.6236
 Frc consts  --      0.1405                 0.0449                 0.0664
 IR Inten    --      0.2784                 0.8444                 0.2897

                     10                     11                     12
                      A                      A                      A
 Frequencies --    224.3118               248.0528               262.2965
 Red. masses --      3.2009                 1.2715                 9.7490
 Frc consts  --      0.0949                 0.0461                 0.3952
 IR Inten    --      0.0873                 0.0497                 0.4593

                     13                     14                     15
                      A                      A                      A
 Frequencies --    265.5001               296.9159               331.8480
 Red. masses --      2.3860                 3.0012                 1.0557
 Frc consts  --      0.0991                 0.1559                 0.0685
 IR Inten    --      0.0086                 0.2932                 0.1382

                     16                     17                     18
                      A                      A                      A
 Frequencies --    348.7984               375.1735               415.7943
 Red. masses --      5.1611                 2.4006                 2.7096
 Frc consts  --      0.3699                 0.1991                 0.2760
 IR Inten    --     11.5922                 0.1908                 0.8125

                     19                     20                     21
                      A                      A                      A
 Frequencies --    439.7926               466.8605               496.7545
 Red. masses --      6.6323                 8.4814                 4.5355
 Frc consts  --      0.7558                 1.0892                 0.6594
 IR Inten    --      0.0676                 0.2548                75.3343

                     22                     23                     24
                      A                      A                      A
 Frequencies --    523.0958               559.6867               677.9721
 Red. masses --      4.3400                 4.5082                 6.5081
 Frc consts  --      0.6997                 0.8320                 1.7625
 IR Inten    --      0.1512                19.5922                11.6397

                     25                     26                     27
                      A                      A                      A
 Frequencies --    709.3871               716.2298               796.9097
 Red. masses --      7.3854                 6.2153                 8.9422
 Frc consts  --      2.1897                 1.8785                 3.3459
 IR Inten    --     27.1353                12.7652                 8.8497

                     28                     29                     30
                      A                      A                      A
 Frequencies --    812.4665               821.2365               915.1925
 Red. masses --      3.5383                 7.9044                 1.6250
 Frc consts  --      1.3761                 3.1409                 0.8019
 IR Inten    --     17.4026                15.3272                26.7866

                     31                     32                     33
                      A                      A                      A
 Frequencies --    924.7803               934.7591               936.8155
 Red. masses --      4.4853                 1.6419                 1.7669
 Frc consts  --      2.2600                 0.8453                 0.9136
 IR Inten    --     31.3584                11.7285                 7.3211

                     34                     35                     36
                      A                      A                      A
 Frequencies --    965.9605              1015.0567              1045.7234
 Red. masses --      1.1968                 3.5914                 1.3818
 Frc consts  --      0.6580                 2.1802                 0.8903
 IR Inten    --      0.0596               504.3475                 0.0753

                     37                     38                     39
                      A                      A                      A
 Frequencies --   1054.4345              1165.0027              1213.4476
 Red. masses --      1.5899                 3.6087                 2.6843
 Frc consts  --      1.0415                 2.8857                 2.3288
 IR Inten    --    102.6041               174.1847                 5.4564

                     40                     41                     42
                      A                      A                      A
 Frequencies --   1214.9519              1250.1923              1272.3513
 Red. masses --      3.3613                 4.1742                 2.6649
 Frc consts  --      2.9233                 3.8440                 2.5419
 IR Inten    --     78.3618               232.6012                20.3310

                     43                     44                     45
                      A                      A                      A
 Frequencies --   1342.3514              1389.0834              1395.2570
 Red. masses --      1.7596                 1.1943                 1.2227
 Frc consts  --      1.8681                 1.3577                 1.4024
 IR Inten    --     25.0798                 9.4580                14.2934

                     46                     47                     48
                      A                      A                      A
 Frequencies --   1422.1568              1475.1706              1488.8405
 Red. masses --      1.2163                 1.0461                 1.0449
 Frc consts  --      1.4494                 1.3413                 1.3647
 IR Inten    --      4.7293                 0.0056                 0.2896

                     49                     50                     51
                      A                      A                      A
 Frequencies --   1489.2005              1491.9659              1502.0672
 Red. masses --      1.0465                 1.0539                 1.0484
 Frc consts  --      1.3674                 1.3822                 1.3936
 IR Inten    --      0.7693                23.8644                13.7716

                     52                     53                     54
                      A                      A                      A
 Frequencies --   1517.4126              1562.7472              1666.9527
 Red. masses --      1.0604                11.7706                 8.5854
 Frc consts  --      1.4385                16.9365                14.0558
 IR Inten    --     23.8998               339.2389                14.8485

                     55                     56                     57
                      A                      A                      A
 Frequencies --   1690.8503              1708.8351              3025.0886
 Red. masses --     11.7504                12.6495                 1.0355
 Frc consts  --     19.7931                21.7633                 5.5830
 IR Inten    --    807.5284               294.4365                25.0874

                     58                     59                     60
                      A                      A                      A
 Frequencies --   3028.5955              3034.0070              3087.1033
 Red. masses --      1.0376                 1.0384                 1.1026
 Frc consts  --      5.6072                 5.6318                 6.1913
 IR Inten    --     59.8156                39.2596                11.6820

                     61                     62                     63
                      A                      A                      A
 Frequencies --   3087.6475              3092.4144              3098.2992
 Red. masses --      1.1022                 1.1027                 1.1009
 Frc consts  --      6.1913                 6.2131                 6.2267
 IR Inten    --     29.9974                56.0299                83.1450

                     64                     65                     66
                      A                      A                      A
 Frequencies --   3132.9171              3135.0107              3213.0808
 Red. masses --      1.0989                 1.0983                 1.0911
 Frc consts  --      6.3546                 6.3596                 6.6365
 IR Inten    --      0.0667                39.4660                 1.0011

 - Thermochemistry -
 -------------------
 Temperature   298.150 Kelvin.  Pressure   1.00000 Atm.
 Atom     1 has atomic number  6 and mass  12.00000

 Molecular mass:   415.86888 amu.
 Principal axes and moments of inertia in atomic units:
                           1         2         3
     Eigenvalues --  4435.619338321.46566**********
           X            0.90359  -0.41365   0.11145
           Y            0.41836   0.79602  -0.43742
           Z            0.09222   0.44187   0.89232
 This molecule is an asymmetric top.
 Rotational symmetry number  1.
 Warning -- assumption of classical behavior for rotation
           may cause significant error
 Rotational temperatures (Kelvin)      0.01953     0.01041     0.00701
 Rotational constants (GHZ):           0.40687     0.21688     0.14610
 Zero-point vibrational energy     459572.8 (Joules/Mol)
                                  109.84052 (Kcal/Mol)
 Warning -- explicit consideration of  23 degrees of freedom as
           vibrations may cause significant error
 Vibrational temperatures:     27.25    51.21   106.90   139.75   173.54
          (Kelvin)            183.22   257.32   287.31   298.24   322.73
                              356.89   377.39   382.00   427.20   477.46
                              501.84   539.79   598.24   632.76   671.71
                              714.72   752.62   805.26   975.45  1020.65
                             1030.50  1146.58  1168.96  1181.58  1316.76
                             1330.55  1344.91  1347.87  1389.80  1460.44
                             1504.56  1517.10  1676.18  1745.88  1748.04
                             1798.75  1830.63  1931.34  1998.58  2007.46
                             2046.17  2122.44  2142.11  2142.63  2146.61
                             2161.14  2183.22  2248.44  2398.37  2432.76
                             2458.63  4352.43  4357.47  4365.26  4441.65
                             4442.44  4449.29  4457.76  4507.57  4510.58
                             4622.91

 Zero-point correction=                           0.175042 (Hartree/Particle)
 Thermal correction to Energy=                    0.190181
 Thermal correction to Enthalpy=                  0.191125
 Thermal correction to Gibbs Free Energy=         0.129502
 Sum of electronic and zero-point Energies=          -1133.079018
 Sum of electronic and thermal Energies=             -1133.063879
 Sum of electronic and thermal Enthalpies=           -1133.062935
 Sum of electronic and thermal Free Energies=        -1133.124558

                     E (Thermal)             CV                S
                      KCal/Mol        Cal/Mol-Kelvin    Cal/Mol-Kelvin
 Total                  119.340             54.102            129.698
 Electronic               0.000              0.000              0.000
 Translational            0.889              2.981             43.966
 Rotational               0.889              2.981             34.477
 Vibrational            117.563             48.141             51.255
 Vibration     1          0.593              1.986              6.742
 Vibration     2          0.594              1.982              5.491
 Vibration     3          0.599              1.966              4.036
 Vibration     4          0.603              1.951              3.511
 Vibration     5          0.609              1.932              3.090
 Vibration     6          0.611              1.926              2.986
 Vibration     7          0.629              1.868              2.340
 Vibration     8          0.638              1.840              2.136
 Vibration     9          0.641              1.829              2.067
 Vibration    10          0.649              1.804              1.924
 Vibration    11          0.662              1.766              1.744
 Vibration    12          0.670              1.742              1.646
 Vibration    13          0.671              1.736              1.625
 Vibration    14          0.691              1.679              1.434
 Vibration    15          0.714              1.612              1.251
 Vibration    16          0.726              1.578              1.172
 Vibration    17          0.746              1.523              1.059
 Vibration    18          0.779              1.436              0.906
 Vibration    19          0.800              1.383              0.827
 Vibration    20          0.824              1.324              0.746
 Vibration    21          0.852              1.257              0.666
 Vibration    22          0.878              1.199              0.603
 Vibration    23          0.915              1.119              0.524

                           ! Non-Optimized Parameters !
 Normal termination of Gaussian 16 at Sat Feb 10 11:01:06 2024.
