 Gaussian 16, Revision A.03,
 Gaussian 16:  ES64L-G16RevA.03 25-Dec-2016

 ----------------------------------------------------------------
 #P UB3LYP/6-311++G(d,p) SCRF=(PCM,Solvent=n,n-DiMethylFormamide)
 ----------------------------------------------------------------

 -------
 Reduced
 -------
 Symbolic Z-matrix:
 Charge = -2 Multiplicity = 1

                         Standard orientation:
 ---------------------------------------------------------------------
 Center     Atomic      Atomic             Coordinates (Angstroms)
 Number     Number       Type             X           Y           Z
 ---------------------------------------------------------------------
      1          6           0       -0.790524   -1.300047   -0.660285
      2          6           0       -2.003650   -2.038600   -0.409647
      3          6           0       -3.153266   -1.434616    0.038850
      4          6           0       -3.263608   -0.023202    0.327684
      5          6           0       -2.059089    0.727850    0.148827
      6          8           0        0.216341   -1.850470   -1.221054
      7          8           0       -4.380755    0.478274    0.748947
      8          1           0       -1.977601   -3.102956   -0.639782
      9          6           0       -0.843784    0.112802   -0.293864
     10          6           0        0.369801    0.903635   -0.490460
     11          6           0        1.723657    0.328359   -0.111205
     12          6           0        2.877873    0.893722   -0.673306
     13          6           0        1.888334   -0.630412    0.899055
     14          6           0        4.151311    0.508831   -0.253586
     15          6           0        4.301102   -0.441465    0.756656
     16          6           0        3.156152   -1.006553    1.331693
     17          8           0        0.380649    2.084750   -0.893296
     18          6           0       -2.120002    2.181850    0.554543
     19          1           0        2.747785    1.651377   -1.437687
     20          1           0        1.002847   -1.076168    1.336465
     21          1           0        5.032761    0.959614   -0.706390
     22          1           0        5.292913   -0.728174    1.100908
     23          1           0        3.257350   -1.749239    2.119201
     24          1           0       -4.058137   -2.022316    0.196928
     25          1           0       -2.219128    2.853396   -0.308968
     26          1           0       -1.215337    2.502012    1.082315
     27          1           0       -2.999185    2.319090    1.190501
 ---------------------------------------------------------------------

 SCF Done:  E(UB3LYP) =  -765.630640397     A.U. after   19 cycles

 The electronic state is 1-A.
 Alpha  occ. eigenvalues --  -19.07690 -19.02465 -19.01101 -10.22837 -10.18350
 Alpha  occ. eigenvalues --  -10.17174 -10.17074 -10.16984 -10.16874 -10.16678
 Alpha  occ. eigenvalues --  -10.16577 -10.16562 -10.13282 -10.13030 -10.12977
 Alpha  occ. eigenvalues --  -10.12947 -10.12643  -1.00226  -0.94608  -0.92571
 Alpha  occ. eigenvalues --   -0.84993  -0.78396  -0.75091  -0.74031  -0.72846
 Alpha  occ. eigenvalues --   -0.68316  -0.62731  -0.61733  -0.59900  -0.57462
 Alpha  occ. eigenvalues --   -0.52868  -0.52196  -0.48902  -0.45257  -0.44575
 Alpha  occ. eigenvalues --   -0.44240  -0.42641  -0.42025  -0.41466  -0.40699
 Alpha  occ. eigenvalues --   -0.38856  -0.37709  -0.37289  -0.36240  -0.35604
 Alpha  occ. eigenvalues --   -0.35154  -0.35049  -0.34004  -0.33185  -0.32110
 Alpha  occ. eigenvalues --   -0.31518  -0.30964  -0.25246  -0.25223  -0.23136
 Alpha  occ. eigenvalues --   -0.22699  -0.21228  -0.19664  -0.19049  -0.11912
 Alpha virt. eigenvalues --   -0.04531  -0.00693  -0.00041   0.00504   0.00886
 Alpha virt. eigenvalues --    0.01426   0.02055   0.02652   0.03516   0.03930
 Alpha virt. eigenvalues --    0.04367   0.04656   0.04929   0.05632   0.06119

  Beta  occ. eigenvalues --  -19.07690 -19.02465 -19.01101 -10.22837 -10.18350
  Beta  occ. eigenvalues --  -10.17174 -10.17074 -10.16984 -10.16874 -10.16678
  Beta  occ. eigenvalues --  -10.16577 -10.16562 -10.13282 -10.13030 -10.12977
  Beta  occ. eigenvalues --  -10.12947 -10.12643  -1.00226  -0.94608  -0.92571
  Beta  occ. eigenvalues --   -0.84993  -0.78396  -0.75091  -0.74031  -0.72846
  Beta  occ. eigenvalues --   -0.68316  -0.62731  -0.61733  -0.59900  -0.57462
  Beta  occ. eigenvalues --   -0.52868  -0.52196  -0.48902  -0.45257  -0.44575
  Beta  occ. eigenvalues --   -0.44240  -0.42641  -0.42025  -0.41466  -0.40699
  Beta  occ. eigenvalues --   -0.38856  -0.37709  -0.37289  -0.36240  -0.35604
  Beta  occ. eigenvalues --   -0.35154  -0.35049  -0.34004  -0.33185  -0.32110
  Beta  occ. eigenvalues --   -0.31518  -0.30964  -0.25246  -0.25223  -0.23136
  Beta  occ. eigenvalues --   -0.22699  -0.21228  -0.19664  -0.19049  -0.11912
  Beta virt. eigenvalues --   -0.04531  -0.00693  -0.00041   0.00504   0.00886
  Beta virt. eigenvalues --    0.01426   0.02055   0.02652   0.03516   0.03930
  Beta virt. eigenvalues --    0.04367   0.04656   0.04929   0.05632   0.06119

 Mulliken charges and spin densities:
               1          2
     1  C   -0.757437  -0.000000
     2  C   -0.155238   0.000000
     3  C   -0.003118   0.000000
     4  C   -0.582420   0.000000
     5  C    0.855887   0.000000
     6  O   -0.573375   0.000000
     7  O   -0.716692   0.000000
     8  H    0.148783   0.000000
     9  C    0.940436   0.000000
    10  C   -1.381823  -0.000000
    11  C    1.307766   0.000000
    12  C    0.664430  -0.000000
    13  C   -1.065373   0.000000
    14  C   -0.509132   0.000000
    15  C   -0.289397   0.000000
    16  C   -0.502317  -0.000000
    17  O   -0.350421   0.000000
    18  C   -0.526851  -0.000000
    19  H    0.198668  -0.000000
    20  H    0.163463  -0.000000
    21  H    0.185335  -0.000000
    22  H    0.172159   0.000000
    23  H    0.190534  -0.000000
    24  H    0.145472   0.000000
    25  H    0.149422   0.000000
    26  H    0.146728   0.000000
    27  H    0.144512   0.000000
 Sum of Mulliken charges =  -2.00000   0.00000

 Dipole moment (field-independent basis, Debye):
    X=             16.5403    Y=             -0.0679    Z=              3.0512  Tot=             16.8195
 Quadrupole moment (field-independent basis, Debye-Ang):
   XX=           -183.7702   YY=           -131.9501   ZZ=           -116.3056
   XY=              7.8247   XZ=             14.0927   YZ=             -8.5142

 Normal termination of Gaussian 16 at Wed Jan 24 22:53:21 2024.
