 Gaussian 16, Revision A.03,
 Gaussian 16:  ES64L-G16RevA.03 25-Dec-2016

 ----------------------------------------------------------------------
 #P UB3LYP/6-311++G(d,p) nosym opt freq SCRF=(PCM,Solvent=n,n-DiMethylF
 ormamide)
 ----------------------------------------------------------------------

 -------
 Radical
 -------
 Symbolic Z-matrix:
 Charge = -1 Multiplicity = 2

 SCF Done:  E(UB3LYP) =  -807.294240495     A.U. after   20 cycles
 SCF Done:  E(UB3LYP) =  -807.294488886     A.U. after   16 cycles
 SCF Done:  E(UB3LYP) =  -807.294541073     A.U. after   15 cycles
 SCF Done:  E(UB3LYP) =  -807.294560950     A.U. after   15 cycles
 SCF Done:  E(UB3LYP) =  -807.294574536     A.U. after   15 cycles
 SCF Done:  E(UB3LYP) =  -807.294580509     A.U. after   12 cycles
 SCF Done:  E(UB3LYP) =  -807.294581159     A.U. after   11 cycles
 SCF Done:  E(UB3LYP) =  -807.294581251     A.U. after   11 cycles
 SCF Done:  E(UB3LYP) =  -807.294581349     A.U. after   10 cycles
 Optimization completed.
    -- Stationary point found.
 Normal termination of Gaussian 16 at Sun Feb 11 02:58:24 2024.

 ----------------------------------------------------------------------
 #P Geom=AllCheck Guess=TCheck SCRF=Check GenChk UB3LYP/6-311++G(d,p) F
 req
 ----------------------------------------------------------------------

 Structure from the checkpoint file:  "283-rad.chk"
 -------
 Radical
 -------
 Charge = -1 Multiplicity = 2

                          Input orientation:
 ---------------------------------------------------------------------
 Center     Atomic      Atomic             Coordinates (Angstroms)
 Number     Number       Type             X           Y           Z
 ---------------------------------------------------------------------
      1          6           0       -1.921560    3.082448    0.239628
      2          6           0       -2.895645    2.283145    0.810482
      3          6           0       -2.640519    0.917295    1.037501
      4          6           0       -0.665833    2.547836   -0.121682
      5          6           0       -0.405025    1.166911    0.106921
      6          6           0       -1.413460    0.376164    0.688605
      7          6           0        0.354927    3.383254   -0.720409
      8          6           0        1.604244    2.748245   -1.057700
      9          6           0        1.890362    1.412108   -0.855461
     10          6           0        0.892651    0.559722   -0.253429
     11          8           0        0.224492    4.630574   -0.968118
     12          8           0        1.106398   -0.669334   -0.040613
     13          1           0       -2.105526    4.134858    0.058376
     14          1           0       -3.855948    2.707559    1.083197
     15          1           0       -3.404186    0.290314    1.484814
     16          1           0       -1.204233   -0.673288    0.857522
     17          6           0        3.231374    0.836326   -1.235704
     18          8           0        2.522011    3.588287   -1.618871
     19          1           0        3.608303    1.346360   -2.127888
     20          1           0        3.096193   -0.218484   -1.490195
     21          1           0        2.051617    4.447622   -1.646406
     22          6           0        4.290387    0.944413   -0.119548
     23          6           0        5.646419    0.354020   -0.520396
     24          6           0        6.711399    0.457919    0.577409
     25          6           0        8.064560   -0.130770    0.166402
     26          1           0        3.919129    0.433085    0.776153
     27          1           0        4.418179    1.998521    0.153489
     28          1           0        6.009839    0.862605   -1.423307
     29          1           0        5.515137   -0.700694   -0.796296
     30          1           0        6.350401   -0.052309    1.478801
     31          1           0        6.841244    1.511347    0.854292
     32          1           0        7.973164   -1.192690   -0.083949
     33          1           0        8.800784   -0.040934    0.970424
     34          1           0        8.467450    0.382825   -0.712603
 ---------------------------------------------------------------------

 SCF Done:  E(UB3LYP) =  -807.294581349     A.U. after    2 cycles

 Alpha  occ. eigenvalues --  -19.14340 -19.08423 -19.07232 -10.22227 -10.22084
 Alpha  occ. eigenvalues --  -10.21998 -10.17454 -10.17259 -10.17236 -10.17120
 Alpha  occ. eigenvalues --  -10.17085 -10.16947 -10.16223 -10.15968 -10.15770
 Alpha  occ. eigenvalues --  -10.15685 -10.15659 -10.15367  -1.06231  -0.99501
 Alpha  occ. eigenvalues --   -0.99305  -0.85809  -0.81314  -0.79299  -0.76096
 Alpha  occ. eigenvalues --   -0.75019  -0.72755  -0.68518  -0.65939  -0.62177
 Alpha  occ. eigenvalues --   -0.61029  -0.58167  -0.57217  -0.56897  -0.53583
 Alpha  occ. eigenvalues --   -0.50463  -0.48332  -0.47103  -0.45777  -0.45236
 Alpha  occ. eigenvalues --   -0.43697  -0.42925  -0.42644  -0.42134  -0.41395
 Alpha  occ. eigenvalues --   -0.40295  -0.40028  -0.39049  -0.38616  -0.37851
 Alpha  occ. eigenvalues --   -0.36783  -0.36600  -0.35290  -0.34614  -0.34212
 Alpha  occ. eigenvalues --   -0.33793  -0.32871  -0.32430  -0.31774  -0.31677
 Alpha  occ. eigenvalues --   -0.26640  -0.25771  -0.25709  -0.23824  -0.22735
 Alpha  occ. eigenvalues --   -0.15088
 Alpha virt. eigenvalues --   -0.03273  -0.00843  -0.00446   0.00143   0.00764
 Alpha virt. eigenvalues --    0.01355   0.01481   0.02175   0.02811   0.03422
 Alpha virt. eigenvalues --    0.03708   0.04240   0.04786   0.04933   0.05230

  Beta  occ. eigenvalues --  -19.14292 -19.07787 -19.06688 -10.22092 -10.21981
  Beta  occ. eigenvalues --  -10.21714 -10.17439 -10.17232 -10.17150 -10.17043
  Beta  occ. eigenvalues --  -10.17035 -10.16967 -10.16144 -10.15968 -10.15777
  Beta  occ. eigenvalues --  -10.15679 -10.15656 -10.15367  -1.06023  -0.98548
  Beta  occ. eigenvalues --   -0.98220  -0.85576  -0.81084  -0.79132  -0.75929
  Beta  occ. eigenvalues --   -0.74811  -0.72652  -0.68083  -0.65389  -0.62033
  Beta  occ. eigenvalues --   -0.60835  -0.58030  -0.57184  -0.56662  -0.53410
  Beta  occ. eigenvalues --   -0.50235  -0.48105  -0.46984  -0.45674  -0.45135
  Beta  occ. eigenvalues --   -0.43203  -0.42583  -0.42367  -0.41975  -0.40875
  Beta  occ. eigenvalues --   -0.39928  -0.39750  -0.38923  -0.37774  -0.37592
  Beta  occ. eigenvalues --   -0.36542  -0.35763  -0.34972  -0.34080  -0.33650
  Beta  occ. eigenvalues --   -0.32980  -0.32557  -0.32371  -0.31724  -0.31528
  Beta  occ. eigenvalues --   -0.25208  -0.25007  -0.24650  -0.23310  -0.21798
  Beta virt. eigenvalues --   -0.08529  -0.02525  -0.00466   0.00138   0.00277
  Beta virt. eigenvalues --    0.00788   0.01375   0.01488   0.02180   0.02829
  Beta virt. eigenvalues --    0.03438   0.03729   0.04286   0.04814   0.05191

 Mulliken charges and spin densities:
               1          2
     1  C    0.107773   0.073187
     2  C   -0.397860  -0.000545
     3  C   -0.409814   0.069105
     4  C    0.297263  -0.004781
     5  C    0.093616   0.058937
     6  C    0.092487   0.003075
     7  C   -0.825362   0.163806
     8  C   -0.609849   0.063249
     9  C    1.951209   0.052421
    10  C   -0.792193   0.074437
    11  O   -0.528200   0.232404
    12  O   -0.465667   0.201031
    13  H    0.167265  -0.004058
    14  H    0.181900  -0.000610
    15  H    0.178200  -0.004946
    16  H    0.165920  -0.000420
    17  C   -0.361953   0.009790
    18  O   -0.278394   0.016366
    19  H    0.203508  -0.000186
    20  H    0.198033   0.001735
    21  H    0.289962  -0.003538
    22  C   -0.456930  -0.002822
    23  C   -0.183012   0.002905
    24  C   -0.173378  -0.001498
    25  C   -0.662905   0.000049
    26  H    0.161741  -0.001489
    27  H    0.156180   0.002244
    28  H    0.109677  -0.000348
    29  H    0.108550   0.000444
    30  H    0.128876  -0.000045
    31  H    0.129475   0.000057
    32  H    0.140486  -0.000026
    33  H    0.143311   0.000068
    34  H    0.140086   0.000002
 Sum of Mulliken charges =  -1.00000   1.00000

 Dipole moment (field-independent basis, Debye):
    X=             -4.0832    Y=             -8.8765    Z=              2.6821  Tot=             10.1321
 Quadrupole moment (field-independent basis, Debye-Ang):
   XX=           -118.9078   YY=           -158.2936   ZZ=           -116.7121
   XY=             -2.5490   XZ=              1.3802   YZ=              9.5265

  Exact polarizability: 351.899 -19.022 343.121 -56.006 -36.445 202.651
 Approx polarizability: 356.585 -14.534 405.005 -59.948 -45.954 225.915

                      1                      2                      3
                      A                      A                      A
 Frequencies --     25.8499                36.2957                54.1872
 Red. masses --      4.7446                 5.2239                 1.6118
 Frc consts  --      0.0019                 0.0041                 0.0028
 IR Inten    --      1.1632                 3.2157                 0.1467

                      4                      5                      6
                      A                      A                      A
 Frequencies --     88.4340               100.5967               116.1438
 Red. masses --      6.3434                 2.7132                 4.1611
 Frc consts  --      0.0292                 0.0162                 0.0331
 IR Inten    --     10.4831                 1.3634                 0.2804

                      7                      8                      9
                      A                      A                      A
 Frequencies --    141.7479               148.8543               163.6385
 Red. masses --      1.8370                 4.7338                 5.4805
 Frc consts  --      0.0217                 0.0618                 0.0865
 IR Inten    --      0.0277                 0.0781                 1.7880

                     10                     11                     12
                      A                      A                      A
 Frequencies --    192.1225               243.6364               254.9987
 Red. masses --      6.1269                 1.1225                 4.3802
 Frc consts  --      0.1332                 0.0393                 0.1678
 IR Inten    --      1.1376                 0.1030                 4.8685

                     13                     14                     15
                      A                      A                      A
 Frequencies --    289.0975               304.1148               336.6782
 Red. masses --      4.6864                 2.7907                 5.6044
 Frc consts  --      0.2308                 0.1521                 0.3743
 IR Inten    --      2.0712                 5.4503                27.0098

                     16                     17                     18
                      A                      A                      A
 Frequencies --    352.4998               377.9241               408.8241
 Red. masses --      3.6858                 9.9039                 4.0821
 Frc consts  --      0.2698                 0.8334                 0.4020
 IR Inten    --      5.2431                26.4218                 0.5129

                     19                     20                     21
                      A                      A                      A
 Frequencies --    429.6786               439.0607               451.2692
 Red. masses --      9.0489                 4.9756                 3.8903
 Frc consts  --      0.9843                 0.5651                 0.4668
 IR Inten    --      3.0078                 5.1962                 6.2632

                     22                     23                     24
                      A                      A                      A
 Frequencies --    488.4016               530.7880               574.2028
 Red. masses --      5.4257                 7.1683                 5.3360
 Frc consts  --      0.7625                 1.1899                 1.0366
 IR Inten    --      4.8664                 1.4148                 3.3931

                     25                     26                     27
                      A                      A                      A
 Frequencies --    642.6318               654.8113               674.2654
 Red. masses --      6.1451                 1.1157                 5.8043
 Frc consts  --      1.4952                 0.2818                 1.5548
 IR Inten    --     33.7865               136.4480                 9.6732

                     28                     29                     30
                      A                      A                      A
 Frequencies --    697.3597               706.0962               712.3969
 Red. masses --      3.1807                 3.3375                 5.3027
 Frc consts  --      0.9113                 0.9804                 1.5856
 IR Inten    --      3.1591                74.0741                19.6743

                     31                     32                     33
                      A                      A                      A
 Frequencies --    730.4572               754.4730               761.0015
 Red. masses --      1.1302                 1.2975                 3.5945
 Frc consts  --      0.3553                 0.4352                 1.2265
 IR Inten    --     11.0506                 0.0799                26.4273

                     34                     35                     36
                      A                      A                      A
 Frequencies --    786.1301               824.0156               878.7067
 Red. masses --      2.0783                 1.5788                 1.3852
 Frc consts  --      0.7567                 0.6316                 0.6302
 IR Inten    --     28.4802                 5.4448                 0.0166

                     37                     38                     39
                      A                      A                      A
 Frequencies --    886.0664               893.2562               945.7646
 Red. masses --      2.2520                 2.1151                 4.2805
 Frc consts  --      1.0417                 0.9943                 2.2559
 IR Inten    --     48.3458                 6.6194                44.5605

                     40                     41                     42
                      A                      A                      A
 Frequencies --    974.9168               979.7437               995.4231
 Red. masses --      1.4381                 1.3691                 1.2838
 Frc consts  --      0.8053                 0.7743                 0.7495
 IR Inten    --      4.2034                 2.5965                 0.0860

                     43                     44                     45
                      A                      A                      A
 Frequencies --   1002.0719              1027.3268              1040.5386
 Red. masses --      3.6807                 3.2509                 2.0813
 Frc consts  --      2.1776                 2.0215                 1.3277
 IR Inten    --      7.5621                34.0519                23.0538

                     46                     47                     48
                      A                      A                      A
 Frequencies --   1052.2459              1061.1290              1109.0445
 Red. masses --      2.8270                 2.3449                 2.1500
 Frc consts  --      1.8442                 1.5556                 1.5581
 IR Inten    --     80.0149                 1.3197                 6.0267

                     49                     50                     51
                      A                      A                      A
 Frequencies --   1121.6230              1125.8388              1153.4793
 Red. masses --      1.9799                 2.0407                 1.3292
 Frc consts  --      1.4675                 1.5240                 1.0420
 IR Inten    --     83.6251                80.6085                 3.3488

                     52                     53                     54
                      A                      A                      A
 Frequencies --   1193.4609              1201.9008              1225.3694
 Red. masses --      2.5592                 2.1498                 1.6567
 Frc consts  --      2.1477                 1.8298                 1.4657
 IR Inten    --     39.6540                22.5417                27.5289

                     55                     56                     57
                      A                      A                      A
 Frequencies --   1253.4920              1260.6879              1283.6259
 Red. masses --      2.4059                 1.3124                 1.9610
 Frc consts  --      2.2272                 1.2289                 1.9038
 IR Inten    --    104.6866                 2.9967                80.9850

                     58                     59                     60
                      A                      A                      A
 Frequencies --   1300.2674              1321.5186              1326.7146
 Red. masses --      1.5191                 1.5746                 1.0452
 Frc consts  --      1.5132                 1.6202                 1.0840
 IR Inten    --     55.6972               201.7501                 0.6923

                     61                     62                     63
                      A                      A                      A
 Frequencies --   1328.9017              1334.7243              1350.4152
 Red. masses --      1.2151                 1.4860                 9.0114
 Frc consts  --      1.2643                 1.5597                 9.6822
 IR Inten    --      6.6227                29.8425                50.8719

                     64                     65                     66
                      A                      A                      A
 Frequencies --   1369.7940              1389.8444              1402.5339
 Red. masses --      1.4787                 1.5968                 1.2405
 Frc consts  --      1.6347                 1.8173                 1.4377
 IR Inten    --      1.7898                 1.8334                 2.9924

                     67                     68                     69
                      A                      A                      A
 Frequencies --   1422.6511              1453.9113              1458.5592
 Red. masses --      2.8028                 1.8189                 2.2987
 Frc consts  --      3.3422                 2.2654                 2.8813
 IR Inten    --    743.3372               371.5737                48.9811

                     70                     71                     72
                      A                      A                      A
 Frequencies --   1471.9413              1477.4862              1482.1115
 Red. masses --      1.0732                 1.9787                 1.1360
 Frc consts  --      1.3700                 2.5450                 1.4702
 IR Inten    --      6.3842               130.8634                11.9232

                     73                     74                     75
                      A                      A                      A
 Frequencies --   1487.8405              1494.0152              1499.5495
 Red. masses --      1.0402                 1.0997                 4.0893
 Frc consts  --      1.3567                 1.4462                 5.4178
 IR Inten    --      9.8595                12.2989               968.3070

                     76                     77                     78
                      A                      A                      A
 Frequencies --   1504.6237              1529.1098              1571.9737
 Red. masses --      1.0976                 5.2371                 5.3467
 Frc consts  --      1.4641                 7.2147                 7.7844
 IR Inten    --     15.9494                17.5473                17.3814

                     79                     80                     81
                      A                      A                      A
 Frequencies --   1622.8511              1631.2415              2988.4474
 Red. masses --      5.9147                 6.5789                 1.0576
 Frc consts  --      9.1778                10.3143                 5.5647
 IR Inten    --      8.2317                 6.4434                31.2298

                     82                     83                     84
                      A                      A                      A
 Frequencies --   3000.9664              3008.2881              3009.7286
 Red. masses --      1.0589                 1.0927                 1.0645
 Frc consts  --      5.6187                 5.8262                 5.6814
 IR Inten    --     46.6472                15.7173                67.3665

                     85                     86                     87
                      A                      A                      A
 Frequencies --   3012.6840              3027.9092              3030.4602
 Red. masses --      1.0358                 1.0696                 1.0929
 Frc consts  --      5.5391                 5.7779                 5.9133
 IR Inten    --     54.3156                92.8779                41.4505

                     88                     89                     90
                      A                      A                      A
 Frequencies --   3044.9364              3071.3928              3074.2899
 Red. masses --      1.1033                 1.1027                 1.1042
 Frc consts  --      6.0271                 6.1288                 6.1486
 IR Inten    --     85.4665                89.1268                92.6280

                     91                     92                     93
                      A                      A                      A
 Frequencies --   3076.0107              3158.6203              3172.5170
 Red. masses --      1.1011                 1.0859                 1.0901
 Frc consts  --      6.1385                 6.3830                 6.4641
 IR Inten    --     73.8977                 9.3962                21.4279

                     94                     95                     96
                      A                      A                      A
 Frequencies --   3187.2277              3191.6855              3531.8758
 Red. masses --      1.0922                 1.0942                 1.0640
 Frc consts  --      6.5372                 6.5671                 7.8199
 IR Inten    --     21.4739                32.7225               195.9223

 - Thermochemistry -
 -------------------
 Temperature   298.150 Kelvin.  Pressure   1.00000 Atm.
 Atom     1 has atomic number  6 and mass  12.00000

 Molecular mass:   244.10994 amu.
 Principal axes and moments of inertia in atomic units:
                           1         2         3
     Eigenvalues --  2139.929069059.01177**********
           X            0.97383   0.18702   0.12912
           Y           -0.22195   0.90484   0.36331
           Z           -0.04889  -0.38247   0.92268
 This molecule is an asymmetric top.
 Rotational symmetry number  1.
 Warning -- assumption of classical behavior for rotation
           may cause significant error
 Rotational temperatures (Kelvin)      0.04048     0.00956     0.00813
 Rotational constants (GHZ):           0.84336     0.19922     0.16942
 Zero-point vibrational energy     723609.2 (Joules/Mol)
                                  172.94676 (Kcal/Mol)
 Warning -- explicit consideration of  24 degrees of freedom as
           vibrations may cause significant error
 Vibrational temperatures:     37.19    52.22    77.96   127.24   144.74
          (Kelvin)            167.11   203.94   214.17   235.44   276.42
                              350.54   366.89   415.95   437.55   484.40
                              507.17   543.75   588.21   618.21   631.71
                              649.28   702.70   763.69   826.15   924.60
                              942.13   970.12  1003.35  1015.91  1024.98
                             1050.97  1085.52  1094.91  1131.07  1185.57
                             1264.26  1274.85  1285.20  1360.74  1402.69
                             1409.63  1432.19  1441.76  1478.09  1497.10
                             1513.95  1526.73  1595.67  1613.77  1619.83
                             1659.60  1717.12  1729.27  1763.03  1803.50
                             1813.85  1846.85  1870.79  1901.37  1908.85
                             1911.99  1920.37  1942.95  1970.83  1999.68
                             2017.93  2046.88  2091.85  2098.54  2117.80
                             2125.77  2132.43  2140.67  2149.55  2157.52
                             2164.82  2200.05  2261.72  2334.92  2346.99
                             4299.71  4317.72  4328.26  4330.33  4334.58
                             4356.49  4360.16  4380.98  4419.05  4423.22
                             4425.69  4544.55  4564.54  4585.71  4592.12
                             5081.58

 Zero-point correction=                           0.275608 (Hartree/Particle)
 Thermal correction to Energy=                    0.292314
 Thermal correction to Enthalpy=                  0.293258
 Thermal correction to Gibbs Free Energy=         0.229428
 Sum of electronic and zero-point Energies=           -807.018973
 Sum of electronic and thermal Energies=              -807.002267
 Sum of electronic and thermal Enthalpies=            -807.001323
 Sum of electronic and thermal Free Energies=         -807.065154

                     E (Thermal)             CV                S
                      KCal/Mol        Cal/Mol-Kelvin    Cal/Mol-Kelvin
 Total                  183.430             63.922            134.343
 Electronic               0.000              0.000              1.377
 Translational            0.889              2.981             42.378
 Rotational               0.889              2.981             33.690
 Vibrational            181.653             57.960             56.898
 Vibration     1          0.593              1.985              6.125
 Vibration     2          0.594              1.982              5.452
 Vibration     3          0.596              1.976              4.658
 Vibration     4          0.601              1.957              3.694
 Vibration     5          0.604              1.949              3.443
 Vibration     6          0.608              1.936              3.164
 Vibration     7          0.615              1.911              2.780
 Vibration     8          0.618              1.904              2.687
 Vibration     9          0.623              1.887              2.507
 Vibration    10          0.634              1.851              2.207
 Vibration    11          0.659              1.773              1.776
 Vibration    12          0.665              1.754              1.696
 Vibration    13          0.686              1.694              1.479
 Vibration    14          0.695              1.666              1.394
 Vibration    15          0.717              1.602              1.228
 Vibration    16          0.729              1.570              1.155
 Vibration    17          0.748              1.517              1.047
 Vibration    18          0.773              1.451              0.931
 Vibration    19          0.791              1.406              0.860
 Vibration    20          0.799              1.385              0.830
 Vibration    21          0.810              1.358              0.792
 Vibration    22          0.844              1.276              0.688
 Vibration    23          0.886              1.182              0.585
 Vibration    24          0.931              1.087              0.496

 Optimization completed.
    -- Stationary point found.
 Normal termination of Gaussian 16 at Sun Feb 11 04:32:37 2024.
