 Q-Chem 5.4, Q-Chem, Inc., Pleasanton, CA (2021)
 Q-Chem 5.4.0 for Intel X86 EM64T Linux

User input:
--------------------------------------------------------------
$molecule
-1 2
C                  0.6439000000      1.4196060000     -0.5095210000
C                 -0.4767000000      0.5420660000     -0.2626090000
C                 -0.3388120000     -0.7511990000      0.1684740000
C                  0.9830050000     -1.3182800000      0.4003600000
C                  2.1258600000     -0.4447050000      0.1587720000
C                  1.9695220000      0.8566600000     -0.2737070000
C                  3.1568630000      1.7535960000     -0.5220460000
C                  3.4966090000     -1.0282910000      0.4028500000
O                  0.4750000000      2.6106680000     -0.9091460000
O                  1.1230640000     -2.5169290000      0.7921150000
C                 -1.5230880000     -1.6744790000      0.4002720000
C                 -2.8041820000     -0.9796410000      0.7579730000
C                 -3.9837630000     -0.9990750000      0.1224110000
C                 -4.2562110000     -1.7442150000     -1.1609310000
C                 -5.1705390000     -0.2345850000      0.6603890000
H                 -1.4605550000      0.9665880000     -0.4417180000
H                  3.7599510000      1.8918440000      0.3847590000
H                  2.8047200000      2.7292460000     -0.8593750000
H                  3.8285620000      1.3388510000     -1.2848080000
H                  3.3950040000     -2.0585760000      0.7452740000
H                  4.0516370000     -0.4583800000      1.1590600000
H                  4.1095480000     -1.0199920000     -0.5077910000
H                 -1.2371080000     -2.3548570000      1.2114260000
H                 -1.6508360000     -2.3246160000     -0.4728290000
H                 -2.7436490000     -0.3751790000      1.6630620000
H                 -3.3726700000     -2.2483930000     -1.5511840000
H                 -4.6207870000     -1.0567040000     -1.9349170000
H                 -5.0418510000     -2.4982480000     -1.0174370000
H                 -4.9241660000      0.2906390000      1.5860600000
H                 -6.0180710000     -0.9036210000      0.8628950000
H                 -5.5259150000      0.5077330000     -0.0663830000
$end
$rem
MAX_SCF_CYCLES=200
BASIS  =  6-311++G(d,p)
GUI  =  2
JOB_TYPE  =  SP
METHOD  =  B3LYP
SOLVENT_METHOD = PCM
$end
$pcm
theory = CPCM
$end
$solvent
dielectric 37.219
opticaldielectric 1.43
$end

--------------------------------------------------------------

             Standard Nuclear Orientation (Angstroms)
    I     Atom           X                Y                Z
 ----------------------------------------------------------------
    1      C       0.6439000000     1.4196060000    -0.5095210000
    2      C      -0.4767000000     0.5420660000    -0.2626090000
    3      C      -0.3388120000    -0.7511990000     0.1684740000
    4      C       0.9830050000    -1.3182800000     0.4003600000
    5      C       2.1258600000    -0.4447050000     0.1587720000
    6      C       1.9695220000     0.8566600000    -0.2737070000
    7      C       3.1568630000     1.7535960000    -0.5220460000
    8      C       3.4966090000    -1.0282910000     0.4028500000
    9      O       0.4750000000     2.6106680000    -0.9091460000
   10      O       1.1230640000    -2.5169290000     0.7921150000
   11      C      -1.5230880000    -1.6744790000     0.4002720000
   12      C      -2.8041820000    -0.9796410000     0.7579730000
   13      C      -3.9837630000    -0.9990750000     0.1224110000
   14      C      -4.2562110000    -1.7442150000    -1.1609310000
   15      C      -5.1705390000    -0.2345850000     0.6603890000
   16      H      -1.4605550000     0.9665880000    -0.4417180000
   17      H       3.7599510000     1.8918440000     0.3847590000
   18      H       2.8047200000     2.7292460000    -0.8593750000
   19      H       3.8285620000     1.3388510000    -1.2848080000
   20      H       3.3950040000    -2.0585760000     0.7452740000
   21      H       4.0516370000    -0.4583800000     1.1590600000
   22      H       4.1095480000    -1.0199920000    -0.5077910000
   23      H      -1.2371080000    -2.3548570000     1.2114260000
   24      H      -1.6508360000    -2.3246160000    -0.4728290000
   25      H      -2.7436490000    -0.3751790000     1.6630620000
   26      H      -3.3726700000    -2.2483930000    -1.5511840000
   27      H      -4.6207870000    -1.0567040000    -1.9349170000
   28      H      -5.0418510000    -2.4982480000    -1.0174370000
   29      H      -4.9241660000     0.2906390000     1.5860600000
   30      H      -6.0180710000    -0.9036210000     0.8628950000
   31      H      -5.5259150000     0.5077330000    -0.0663830000
 ----------------------------------------------------------------

    8    -655.7755266520      7.98e-06  Convergence criterion met
 Total energy in the final basis set =     -655.7755266520

                    Orbital Energies (a.u.)
 --------------------------------------------------------------

 Alpha MOs
 -- Occupied --
-19.0728 -19.0714 -10.2127 -10.2126 -10.1708 -10.1660 -10.1624 -10.1613
-10.1608 -10.1556 -10.1554 -10.1548 -10.1506 -10.1490 -10.1488  -0.9944
 -0.9915  -0.8271  -0.8093  -0.7781  -0.7235  -0.7182  -0.6859  -0.6633
 -0.6559  -0.6195  -0.5572  -0.5380  -0.5107  -0.4869  -0.4607  -0.4504
 -0.4308  -0.4280  -0.4259  -0.4182  -0.3998  -0.3927  -0.3899  -0.3853
 -0.3827  -0.3795  -0.3786  -0.3708  -0.3638  -0.3598  -0.3533  -0.3436
 -0.3333  -0.3220  -0.2703  -0.2448  -0.2392  -0.2329  -0.2242  -0.1552

 Beta MOs
 -- Occupied --
-19.0663 -19.0650 -10.2110 -10.2107 -10.1708 -10.1647 -10.1615 -10.1609
-10.1602 -10.1555 -10.1554 -10.1547 -10.1496 -10.1490 -10.1489  -0.9829
 -0.9799  -0.8227  -0.8081  -0.7764  -0.7215  -0.7155  -0.6859  -0.6592
 -0.6525  -0.6158  -0.5537  -0.5339  -0.5102  -0.4851  -0.4596  -0.4471
 -0.4286  -0.4256  -0.4227  -0.4139  -0.3962  -0.3886  -0.3861  -0.3828
 -0.3798  -0.3788  -0.3785  -0.3639  -0.3585  -0.3531  -0.3413  -0.3368
 -0.3292  -0.3208  -0.2443  -0.2391  -0.2335  -0.2254  -0.2201

          Ground-State Mulliken Net Atomic Charges

     Atom                 Charge (a.u.)    Spin (a.u.)
  --------------------------------------------------------
      1 C                    -0.952320       0.115565
      2 C                    -0.786553       0.023436
      3 C                     1.158256       0.075599
      4 C                    -0.969644       0.135728
      5 C                     0.175506       0.034044
      6 C                     0.959369       0.116313
      7 C                    -0.458077       0.008694
      8 C                    -0.513726      -0.006674
      9 O                    -0.523655       0.231244
     10 O                    -0.504007       0.239074
     11 C                    -0.523658       0.018646
     12 C                     0.329921      -0.004047
     13 C                     0.243506       0.000218
     14 C                    -0.630514      -0.000619
     15 C                    -0.640251       0.000158
     16 H                     0.175144      -0.007439
     17 H                     0.157284       0.003751
     18 H                     0.175806      -0.001784
     19 H                     0.157740       0.003676
     20 H                     0.183142      -0.001615
     21 H                     0.156368       0.002784
     22 H                     0.158122       0.002825
     23 H                     0.195435       0.001313
     24 H                     0.178449       0.009517
     25 H                     0.179150       0.000276
     26 H                     0.143816      -0.000577
     27 H                     0.155605      -0.000006
     28 H                     0.155857       0.000009
     29 H                     0.157769      -0.000084
     30 H                     0.149596      -0.000025
     31 H                     0.156565      -0.000000
  --------------------------------------------------------
  Sum of atomic charges =    -1.000000

                    Cartesian Multipole Moments
 -----------------------------------------------------------------
    Charge (ESU x 10^10)
                -4.8032
    Dipole Moment (Debye)
         X      -3.4969      Y      -0.7804      Z       0.1105
       Tot       3.5846
    Quadrupole Moments (Debye-Ang)
        XX     -92.0029     XY       5.2190     YY    -132.2052
        XZ       0.2568     YZ      13.5304     ZZ     -98.8673

 Total job time:  55.01s(wall), 342.46s(cpu)
        *  Thank you very much for using Q-Chem.  Have a nice day.  *
