 Q-Chem 5.4, Q-Chem, Inc., Pleasanton, CA (2021)
 Q-Chem 5.4.0 for Intel X86 EM64T Linux

User input:
--------------------------------------------------------------
$molecule
-1 2
C                 -0.8683380000     -1.8018550000      3.5669150000
C                  0.2241100000     -2.4627700000      2.8805740000
C                  0.3236380000     -2.3495980000      1.5095010000
C                 -0.6098090000     -1.6042570000      0.6889970000
C                 -1.7034720000     -0.9689110000      1.3791910000
C                 -1.8444950000     -1.0579600000      2.7445920000
O                 -1.0334870000     -1.8155440000      4.8320470000
O                 -0.4670360000     -1.5272380000     -0.5661660000
N                 -2.8724470000     -0.5229130000      3.5144980000
C                 -3.6724930000      0.6737650000      3.2334370000
C                 -4.3784190000      1.0339150000      4.5532110000
C                 -4.7551250000      0.3752790000      2.1738240000
C                 -2.8025360000      1.8707290000      2.7887960000
H                 -2.4084480000     -0.4329080000      0.7564700000
H                 -2.6304700000     -0.6660670000      4.4932680000
H                 -3.6466110000      1.2675920000      5.3328570000
H                 -4.9916730000      0.1968220000      4.8997590000
H                 -5.0253370000      1.9057540000      4.4198670000
H                 -5.3684210000     -0.4695340000      2.4983550000
H                 -4.3190320000      0.1194660000      1.2082440000
H                 -5.4040880000      1.2467900000      2.0324670000
H                 -2.0821600000      2.1233470000      3.5722120000
H                 -3.4248640000      2.7509050000      2.5926990000
H                 -2.2409090000      1.6367860000      1.8834150000
C                  1.2479720000     -3.2615610000      3.7107220000
C                  0.5287180000     -4.3935370000      4.4836770000
C                  2.3349380000     -3.9117040000      2.8335120000
C                  1.9556880000     -2.3224720000      4.7176680000
H                  1.1270650000     -2.8234110000      0.9588810000
H                 -0.2371700000     -3.9794440000      5.1390510000
H                  1.2492780000     -4.9598240000      5.0878920000
H                  0.0524060000     -5.0889390000      3.7846120000
H                  1.9085040000     -4.6131630000      2.1105990000
H                  3.0307680000     -4.4681490000      3.4713830000
H                  2.9120990000     -3.1654740000      2.2799410000
H                  1.2259620000     -1.8560640000      5.3791640000
H                  2.5002050000     -1.5351350000      4.1858360000
H                  2.6783180000     -2.8863380000      5.3217830000
$end
$rem
MAX_SCF_CYCLES=200
BASIS  =  6-311++G(d,p)
GUI  =  2
JOB_TYPE  =  SP
METHOD  =  B3LYP
SOLVENT_METHOD = PCM
$end
$pcm
theory = CPCM
$end
$solvent
dielectric 37.219
opticaldielectric 1.43
$end

--------------------------------------------------------------

             Standard Nuclear Orientation (Angstroms)
    I     Atom           X                Y                Z
 ----------------------------------------------------------------
    1      C      -0.8683380000    -1.8018550000     3.5669150000
    2      C       0.2241100000    -2.4627700000     2.8805740000
    3      C       0.3236380000    -2.3495980000     1.5095010000
    4      C      -0.6098090000    -1.6042570000     0.6889970000
    5      C      -1.7034720000    -0.9689110000     1.3791910000
    6      C      -1.8444950000    -1.0579600000     2.7445920000
    7      O      -1.0334870000    -1.8155440000     4.8320470000
    8      O      -0.4670360000    -1.5272380000    -0.5661660000
    9      N      -2.8724470000    -0.5229130000     3.5144980000
   10      C      -3.6724930000     0.6737650000     3.2334370000
   11      C      -4.3784190000     1.0339150000     4.5532110000
   12      C      -4.7551250000     0.3752790000     2.1738240000
   13      C      -2.8025360000     1.8707290000     2.7887960000
   14      H      -2.4084480000    -0.4329080000     0.7564700000
   15      H      -2.6304700000    -0.6660670000     4.4932680000
   16      H      -3.6466110000     1.2675920000     5.3328570000
   17      H      -4.9916730000     0.1968220000     4.8997590000
   18      H      -5.0253370000     1.9057540000     4.4198670000
   19      H      -5.3684210000    -0.4695340000     2.4983550000
   20      H      -4.3190320000     0.1194660000     1.2082440000
   21      H      -5.4040880000     1.2467900000     2.0324670000
   22      H      -2.0821600000     2.1233470000     3.5722120000
   23      H      -3.4248640000     2.7509050000     2.5926990000
   24      H      -2.2409090000     1.6367860000     1.8834150000
   25      C       1.2479720000    -3.2615610000     3.7107220000
   26      C       0.5287180000    -4.3935370000     4.4836770000
   27      C       2.3349380000    -3.9117040000     2.8335120000
   28      C       1.9556880000    -2.3224720000     4.7176680000
   29      H       1.1270650000    -2.8234110000     0.9588810000
   30      H      -0.2371700000    -3.9794440000     5.1390510000
   31      H       1.2492780000    -4.9598240000     5.0878920000
   32      H       0.0524060000    -5.0889390000     3.7846120000
   33      H       1.9085040000    -4.6131630000     2.1105990000
   34      H       3.0307680000    -4.4681490000     3.4713830000
   35      H       2.9120990000    -3.1654740000     2.2799410000
   36      H       1.2259620000    -1.8560640000     5.3791640000
   37      H       2.5002050000    -1.5351350000     4.1858360000
   38      H       2.6783180000    -2.8863380000     5.3217830000
 ----------------------------------------------------------------

    8    -751.6918012216      8.77e-06  Convergence criterion met
 Total energy in the final basis set =     -751.6918012216

                    Orbital Energies (a.u.)
 --------------------------------------------------------------

 Alpha MOs
 -- Occupied --
-19.0740 -19.0657 -14.3060 -10.2143 -10.2113 -10.2113 -10.1999 -10.1775
-10.1645 -10.1532 -10.1497 -10.1491 -10.1483 -10.1459 -10.1423 -10.1423
-10.1392  -0.9987  -0.9872  -0.9189  -0.8257  -0.8001  -0.7711  -0.7160
 -0.6829  -0.6821  -0.6780  -0.6719  -0.6637  -0.6073  -0.5724  -0.5512
 -0.5168  -0.4918  -0.4745  -0.4582  -0.4531  -0.4434  -0.4387  -0.4280
 -0.4210  -0.4147  -0.4124  -0.4019  -0.3901  -0.3852  -0.3785  -0.3769
 -0.3661  -0.3646  -0.3635  -0.3612  -0.3538  -0.3519  -0.3384  -0.3254
 -0.3234  -0.3219  -0.3147  -0.2962  -0.2621  -0.2402  -0.2305  -0.2051
 -0.1503

 Beta MOs
 -- Occupied --
-19.0677 -19.0605 -14.3049 -10.2115 -10.2114 -10.2100 -10.1988 -10.1775
-10.1639 -10.1532 -10.1496 -10.1491 -10.1461 -10.1459 -10.1423 -10.1422
-10.1394  -0.9877  -0.9779  -0.9161  -0.8224  -0.7986  -0.7686  -0.7142
 -0.6826  -0.6819  -0.6758  -0.6717  -0.6552  -0.6047  -0.5693  -0.5492
 -0.5154  -0.4893  -0.4734  -0.4546  -0.4524  -0.4424  -0.4373  -0.4268
 -0.4205  -0.4137  -0.4020  -0.3965  -0.3876  -0.3841  -0.3778  -0.3687
 -0.3641  -0.3621  -0.3610  -0.3552  -0.3526  -0.3437  -0.3323  -0.3239
 -0.3230  -0.3205  -0.3141  -0.2838  -0.2385  -0.2348  -0.2256  -0.1974

          Ground-State Mulliken Net Atomic Charges

     Atom                 Charge (a.u.)    Spin (a.u.)
  --------------------------------------------------------
      1 C                    -0.572137       0.212358
      2 C                     0.785630       0.000249
      3 C                    -0.381412       0.172870
      4 C                    -0.518943       0.089661
      5 C                    -0.023385      -0.022577
      6 C                    -0.067410       0.090945
      7 O                    -0.476202       0.243814
      8 O                    -0.557554       0.183348
      9 N                     0.050203       0.047006
     10 C                    -0.002441       0.001286
     11 C                    -0.526483       0.000202
     12 C                    -0.491010      -0.002035
     13 C                    -0.499030       0.003584
     14 H                     0.217013      -0.001981
     15 H                     0.318440      -0.002110
     16 H                     0.157968       0.000001
     17 H                     0.160940       0.000406
     18 H                     0.157910      -0.000092
     19 H                     0.159444       0.000506
     20 H                     0.129792      -0.000013
     21 H                     0.160144       0.000167
     22 H                     0.162102       0.000388
     23 H                     0.161718       0.000327
     24 H                     0.153673      -0.001222
     25 C                     0.660407      -0.019902
     26 C                    -0.697696       0.006828
     27 C                    -0.487514       0.001374
     28 C                    -0.707047       0.007491
     29 H                     0.193789      -0.011567
     30 H                     0.169430      -0.001133
     31 H                     0.152276       0.000122
     32 H                     0.140237       0.000789
     33 H                     0.137324      -0.000696
     34 H                     0.178667       0.000178
     35 H                     0.137498      -0.000643
     36 H                     0.172909      -0.001138
     37 H                     0.139027       0.000982
     38 H                     0.151721       0.000229
  --------------------------------------------------------
  Sum of atomic charges =    -1.000000

                    Cartesian Multipole Moments
 -----------------------------------------------------------------
    Charge (ESU x 10^10)
                -4.8032
    Dipole Moment (Debye)
         X       2.6407      Y       9.4797      Z      -7.6507
       Tot      12.4648
    Quadrupole Moments (Debye-Ang)
        XX    -109.1694     XY     -11.8829     YY    -125.1865
        XZ       5.9012     YZ      20.5081     ZZ    -159.4745

 Total job time:  76.81s(wall), 560.96s(cpu)
        *  Thank you very much for using Q-Chem.  Have a nice day.  *
