 Gaussian 16, Revision A.03,
 Gaussian 16:  ES64L-G16RevA.03 25-Dec-2016

 --------------------------------------
 #P UB3LYP/6-311++G(d,p) nosym opt freq
 --------------------------------------

 -------
 Radical
 -------
 Symbolic Z-matrix:
 Charge = -1 Multiplicity = 2

 SCF Done:  E(UB3LYP) =  -751.608636277     A.U. after   22 cycles
 Optimization completed.
    -- Stationary point found.
 Normal termination of Gaussian 16 at Wed Jan 10 17:01:34 2024.

 ----------------------------------------------------------------------
 #P Geom=AllCheck Guess=TCheck SCRF=Check GenChk UB3LYP/6-311++G(d,p) F
 req
 ----------------------------------------------------------------------

 Structure from the checkpoint file:  "106-rad.chk"
 -------
 Radical
 -------
 Charge = -1 Multiplicity = 2

                          Input orientation:
 ---------------------------------------------------------------------
 Center     Atomic      Atomic             Coordinates (Angstroms)
 Number     Number       Type             X           Y           Z
 ---------------------------------------------------------------------
      1          6           0       -0.868338   -1.801855    3.566915
      2          6           0        0.224110   -2.462770    2.880574
      3          6           0        0.323638   -2.349598    1.509501
      4          6           0       -0.609809   -1.604257    0.688997
      5          6           0       -1.703472   -0.968911    1.379191
      6          6           0       -1.844495   -1.057960    2.744592
      7          8           0       -1.033487   -1.815544    4.832047
      8          8           0       -0.467036   -1.527238   -0.566166
      9          7           0       -2.872447   -0.522913    3.514498
     10          6           0       -3.672493    0.673765    3.233437
     11          6           0       -4.378419    1.033915    4.553211
     12          6           0       -4.755125    0.375279    2.173824
     13          6           0       -2.802536    1.870729    2.788796
     14          1           0       -2.408448   -0.432908    0.756470
     15          1           0       -2.630470   -0.666067    4.493268
     16          1           0       -3.646611    1.267592    5.332857
     17          1           0       -4.991673    0.196822    4.899759
     18          1           0       -5.025337    1.905754    4.419867
     19          1           0       -5.368421   -0.469534    2.498355
     20          1           0       -4.319032    0.119466    1.208244
     21          1           0       -5.404088    1.246790    2.032467
     22          1           0       -2.082160    2.123347    3.572212
     23          1           0       -3.424864    2.750905    2.592699
     24          1           0       -2.240909    1.636786    1.883415
     25          6           0        1.247972   -3.261561    3.710722
     26          6           0        0.528718   -4.393537    4.483677
     27          6           0        2.334938   -3.911704    2.833512
     28          6           0        1.955688   -2.322472    4.717668
     29          1           0        1.127065   -2.823411    0.958881
     30          1           0       -0.237170   -3.979444    5.139051
     31          1           0        1.249278   -4.959824    5.087892
     32          1           0        0.052406   -5.088939    3.784612
     33          1           0        1.908504   -4.613163    2.110599
     34          1           0        3.030768   -4.468149    3.471383
     35          1           0        2.912099   -3.165474    2.279941
     36          1           0        1.225962   -1.856064    5.379164
     37          1           0        2.500205   -1.535135    4.185836
     38          1           0        2.678318   -2.886338    5.321783
 ---------------------------------------------------------------------

 SCF Done:  E(UB3LYP) =  -751.608636277     A.U. after    1 cycles

 Alpha  occ. eigenvalues --  -18.93908 -18.92479 -14.18637 -10.11608 -10.08163
 Alpha  occ. eigenvalues --  -10.07352 -10.07035 -10.06988 -10.06708 -10.06023
 Alpha  occ. eigenvalues --  -10.05737 -10.04523 -10.03605 -10.03487 -10.03453
 Alpha  occ. eigenvalues --  -10.01912 -10.01220  -0.86503  -0.84467  -0.80328
 Alpha  occ. eigenvalues --   -0.70729  -0.69416  -0.65495  -0.60069  -0.59072
 Alpha  occ. eigenvalues --   -0.58647  -0.57060  -0.56380  -0.53734  -0.49031
 Alpha  occ. eigenvalues --   -0.45841  -0.43229  -0.40465  -0.37562  -0.36459
 Alpha  occ. eigenvalues --   -0.35155  -0.34192  -0.33560  -0.32302  -0.32098
 Alpha  occ. eigenvalues --   -0.31971  -0.30381  -0.30188  -0.29054  -0.28448
 Alpha  occ. eigenvalues --   -0.27977  -0.27275  -0.26222  -0.25990  -0.25503
 Alpha  occ. eigenvalues --   -0.24832  -0.24369  -0.24140  -0.23809  -0.22596
 Alpha  occ. eigenvalues --   -0.22353  -0.21410  -0.21023  -0.20092  -0.17392
 Alpha  occ. eigenvalues --   -0.12991  -0.10676  -0.08847  -0.07933  -0.01511
 Alpha virt. eigenvalues --    0.06977   0.08273   0.09317   0.09540   0.10288
 Alpha virt. eigenvalues --    0.10574   0.10665   0.11651   0.11902   0.12564
 Alpha virt. eigenvalues --    0.12837   0.12887   0.13489   0.13640   0.14421

  Beta  occ. eigenvalues --  -18.93249 -18.91813 -14.18585 -10.11608 -10.07899
  Beta  occ. eigenvalues --  -10.07288 -10.06988 -10.06949 -10.06712 -10.06020
  Beta  occ. eigenvalues --  -10.05734 -10.04523 -10.03566 -10.03484 -10.03450
  Beta  occ. eigenvalues --  -10.01659 -10.01195  -0.85437  -0.83315  -0.80099
  Beta  occ. eigenvalues --   -0.70528  -0.69306  -0.65097  -0.60009  -0.59064
  Beta  occ. eigenvalues --   -0.58495  -0.57014  -0.56368  -0.52797  -0.48780
  Beta  occ. eigenvalues --   -0.45584  -0.42997  -0.40337  -0.37452  -0.36268
  Beta  occ. eigenvalues --   -0.35124  -0.34150  -0.33331  -0.32200  -0.32057
  Beta  occ. eigenvalues --   -0.31751  -0.30275  -0.30079  -0.29006  -0.27932
  Beta  occ. eigenvalues --   -0.27874  -0.27270  -0.25992  -0.25378  -0.24992
  Beta  occ. eigenvalues --   -0.24773  -0.24004  -0.23727  -0.23616  -0.22244
  Beta  occ. eigenvalues --   -0.21365  -0.20946  -0.20068  -0.19839  -0.16168
  Beta  occ. eigenvalues --   -0.10264  -0.10087  -0.08218  -0.07058
  Beta virt. eigenvalues --    0.05666   0.06975   0.08272   0.09312   0.09565
  Beta virt. eigenvalues --    0.10290   0.10576   0.10683   0.11651   0.11909
  Beta virt. eigenvalues --    0.12566   0.12854   0.13048   0.13521   0.13701

 Mulliken charges and spin densities:
               1          2
     1  C   -0.651962   0.194643
     2  C    0.918584  -0.014312
     3  C   -0.308748   0.202175
     4  C   -0.857429   0.042522
     5  C    0.137362   0.017942
     6  C   -0.008080   0.073470
     7  O   -0.399245   0.245978
     8  O   -0.407577   0.236144
     9  N    0.133069   0.025207
    10  C   -0.128059   0.003507
    11  C   -0.485609  -0.001112
    12  C   -0.412143  -0.005041
    13  C   -0.449332   0.002684
    14  H    0.180060  -0.004407
    15  H    0.293584  -0.001968
    16  H    0.142392   0.000286
    17  H    0.144900   0.000786
    18  H    0.118514  -0.000067
    19  H    0.141439   0.000870
    20  H    0.122496   0.000104
    21  H    0.117283   0.000464
    22  H    0.146048   0.000532
    23  H    0.116199   0.000432
    24  H    0.157119  -0.001329
    25  C    0.746462  -0.021850
    26  C   -0.697252   0.007571
    27  C   -0.487710   0.001428
    28  C   -0.704052   0.008330
    29  H    0.161505  -0.013646
    30  H    0.191475  -0.001335
    31  H    0.109097   0.000319
    32  H    0.117134   0.000797
    33  H    0.121997  -0.000702
    34  H    0.142355   0.000184
    35  H    0.121438  -0.000625
    36  H    0.193001  -0.001348
    37  H    0.114638   0.000973
    38  H    0.109047   0.000396
 Sum of Mulliken charges =  -1.00000   1.00000

 Dipole moment (field-independent basis, Debye):
    X=              3.0088    Y=              8.8939    Z=             -9.6193  Tot=             13.4419
 Quadrupole moment (field-independent basis, Debye-Ang):
   XX=           -121.6813   YY=           -132.3650   ZZ=           -166.1981
   XY=             -2.8919   XZ=              7.1593   YZ=             22.1298

  Exact polarizability: 213.701 -47.957 184.021  -6.782  -5.076 230.356
 Approx polarizability: 279.888 -37.698 247.076 -27.350  -6.492 401.848

                      1                      2                      3
                      A                      A                      A
 Frequencies --     29.0798                53.4159                75.0412
 Red. masses --      3.4470                 2.8549                 3.6602
 Frc consts  --      0.0017                 0.0048                 0.0121
 IR Inten    --      2.9665                 0.5384                 0.4672

                      4                      5                      6
                      A                      A                      A
 Frequencies --     92.2177               108.3225               161.9880
 Red. masses --      4.3171                 3.9668                 5.2700
 Frc consts  --      0.0216                 0.0274                 0.0815
 IR Inten    --      2.1949                 2.9910                 5.0203

                      7                      8                      9
                      A                      A                      A
 Frequencies --    183.0558               187.6614               224.7923
 Red. masses --      1.8039                 1.8175                 2.3736
 Frc consts  --      0.0356                 0.0377                 0.0707
 IR Inten    --      0.1841                 0.4451                 0.5027

                     10                     11                     12
                      A                      A                      A
 Frequencies --    234.3622               236.1562               249.4934
 Red. masses --      1.1559                 1.1870                 2.2762
 Frc consts  --      0.0374                 0.0390                 0.0835
 IR Inten    --      0.4679                 0.0845                 0.8317

                     13                     14                     15
                      A                      A                      A
 Frequencies --    270.3520               272.8771               283.7324
 Red. masses --      1.2312                 1.3297                 2.0286
 Frc consts  --      0.0530                 0.0583                 0.0962
 IR Inten    --      0.6697                 0.9444                 1.6884

                     16                     17                     18
                      A                      A                      A
 Frequencies --    293.7017               295.8612               325.0816
 Red. masses --      2.4113                 3.0512                 1.0443
 Frc consts  --      0.1225                 0.1574                 0.0650
 IR Inten    --      1.4495                 0.2285                 0.0473

                     19                     20                     21
                      A                      A                      A
 Frequencies --    339.4930               351.3339               379.9179
 Red. masses --      3.3202                 2.7111                 2.6508
 Frc consts  --      0.2255                 0.1972                 0.2254
 IR Inten    --     12.4273                 0.8885                 0.3633

                     22                     23                     24
                      A                      A                      A
 Frequencies --    392.5460               415.4561               419.5277
 Red. masses --      2.5393                 2.7424                 3.2879
 Frc consts  --      0.2305                 0.2789                 0.3410
 IR Inten    --      2.1277                 1.8542                 0.5522

                     25                     26                     27
                      A                      A                      A
 Frequencies --    448.5180               466.1874               471.8579
 Red. masses --      4.9726                 3.1188                 3.2882
 Frc consts  --      0.5894                 0.3994                 0.4314
 IR Inten    --     22.1969                 2.7225                 3.3647

                     28                     29                     30
                      A                      A                      A
 Frequencies --    480.6411               536.4965               589.3457
 Red. masses --      5.4222                 2.9331                 3.4840
 Frc consts  --      0.7380                 0.4974                 0.7130
 IR Inten    --      1.2555                 3.2468                 0.6579

                     31                     32                     33
                      A                      A                      A
 Frequencies --    618.3005               662.8529               668.7900
 Red. masses --      4.0002                 2.6662                 2.6587
 Frc consts  --      0.9010                 0.6902                 0.7007
 IR Inten    --     20.3534                15.7839                 7.3674

                     34                     35                     36
                      A                      A                      A
 Frequencies --    711.5480               765.3049               782.0584
 Red. masses --      2.2244                 2.9004                 6.8307
 Frc consts  --      0.6635                 1.0009                 2.4615
 IR Inten    --     36.9321                12.1777                 6.7014

                     37                     38                     39
                      A                      A                      A
 Frequencies --    797.5211               816.3988               822.4899
 Red. masses --      3.3401                 4.7246                 1.5083
 Frc consts  --      1.2517                 1.8553                 0.6012
 IR Inten    --      5.0436                20.2109                 8.2330

                     40                     41                     42
                      A                      A                      A
 Frequencies --    860.1892               899.3848               908.4541
 Red. masses --      1.7541                 2.2491                 1.9938
 Frc consts  --      0.7647                 1.0719                 0.9695
 IR Inten    --     27.6875                 6.7157                 3.9110

                     43                     44                     45
                      A                      A                      A
 Frequencies --    921.5888               923.8799               933.0543
 Red. masses --      1.7418                 1.7927                 1.7684
 Frc consts  --      0.8716                 0.9016                 0.9071
 IR Inten    --      2.3173                 0.0781                 2.9965

                     46                     47                     48
                      A                      A                      A
 Frequencies --    955.9481               958.0788               969.2102
 Red. masses --      1.2183                 1.2025                 2.3484
 Frc consts  --      0.6559                 0.6503                 1.2998
 IR Inten    --      0.1293                 0.2037                 3.7576

                     49                     50                     51
                      A                      A                      A
 Frequencies --   1016.2639              1043.5150              1048.9181
 Red. masses --      2.2761                 1.3934                 1.3810
 Frc consts  --      1.3850                 0.8940                 0.8952
 IR Inten    --     32.5811                 4.9359                 0.0303

                     52                     53                     54
                      A                      A                      A
 Frequencies --   1050.2247              1057.0029              1169.5614
 Red. masses --      1.4756                 1.4624                 2.5892
 Frc consts  --      0.9589                 0.9626                 2.0867
 IR Inten    --      1.4056                 1.4502                 3.9410

                     55                     56                     57
                      A                      A                      A
 Frequencies --   1208.5843              1215.5509              1222.3566
 Red. masses --      3.5083                 2.6759                 2.4385
 Frc consts  --      3.0192                 2.3295                 2.1467
 IR Inten    --     51.8415                 4.8500                33.4386

                     58                     59                     60
                      A                      A                      A
 Frequencies --   1225.0237              1233.7348              1256.8083
 Red. masses --      2.5880                 2.5828                 2.8538
 Frc consts  --      2.2882                 2.3162                 2.6559
 IR Inten    --      6.9733                 7.9814               187.0500

                     61                     62                     63
                      A                      A                      A
 Frequencies --   1266.0664              1275.2330              1318.3782
 Red. masses --      2.0289                 2.3610                 2.3095
 Frc consts  --      1.9161                 2.2621                 2.3651
 IR Inten    --     44.2384                 8.6432                31.2208

                     64                     65                     66
                      A                      A                      A
 Frequencies --   1373.6621              1378.8587              1387.5882
 Red. masses --      1.2126                 1.3299                 1.2452
 Frc consts  --      1.3481                 1.4898                 1.4125
 IR Inten    --     11.7127                13.3391                10.5108

                     67                     68                     69
                      A                      A                      A
 Frequencies --   1389.4418              1400.6399              1410.1101
 Red. masses --      1.2416                 3.8771                 1.3081
 Frc consts  --      1.4122                 4.4814                 1.5325
 IR Inten    --     13.8570                14.8517                35.0034

                     70                     71                     72
                      A                      A                      A
 Frequencies --   1417.7102              1468.9441              1470.9636
 Red. masses --      1.2465                 2.9282                 1.0470
 Frc consts  --      1.4761                 3.7227                 1.3348
 IR Inten    --     40.6454               156.3982                 0.1994

                     73                     74                     75
                      A                      A                      A
 Frequencies --   1471.5369              1488.2384              1489.1550
 Red. masses --      1.0496                 1.0475                 1.0980
 Frc consts  --      1.3391                 1.3669                 1.4346
 IR Inten    --      0.5806                 0.7227                16.5222

                     76                     77                     78
                      A                      A                      A
 Frequencies --   1490.9451              1494.2180              1495.8554
 Red. masses --      1.1099                 1.0474                 1.0877
 Frc consts  --      1.4536                 1.3778                 1.4340
 IR Inten    --      8.9091                 1.1282                 2.3565

                     79                     80                     81
                      A                      A                      A
 Frequencies --   1499.0572              1500.3029              1510.5130
 Red. masses --      1.1787                 1.1514                 1.0519
 Frc consts  --      1.5606                 1.5269                 1.4140
 IR Inten    --      7.3372                19.5268                 3.2273

                     82                     83                     84
                      A                      A                      A
 Frequencies --   1515.6504              1518.9346              1531.1409
 Red. masses --      2.9956                 1.0914                 1.1782
 Frc consts  --      4.0545                 1.4835                 1.6275
 IR Inten    --    398.3553                 1.4205                59.9594

                     85                     86                     87
                      A                      A                      A
 Frequencies --   1535.1367              1556.5524              1633.8736
 Red. masses --      3.7513                 1.8163                 6.3549
 Frc consts  --      5.2086                 2.5928                 9.9953
 IR Inten    --    104.1169               112.5889                95.7696

                     88                     89                     90
                      A                      A                      A
 Frequencies --   2989.8644              2995.1889              3010.7035
 Red. masses --      1.0435                 1.0426                 1.0368
 Frc consts  --      5.4960                 5.5106                 5.5371
 IR Inten    --     47.8873               105.0148               113.4967

                     91                     92                     93
                      A                      A                      A
 Frequencies --   3011.4821              3013.1429              3022.3018
 Red. masses --      1.0398                 1.0361                 1.0397
 Frc consts  --      5.5562                 5.5425                 5.5952
 IR Inten    --     32.5297                25.9338                85.5849

                     94                     95                     96
                      A                      A                      A
 Frequencies --   3050.9099              3053.4355              3066.1772
 Red. masses --      1.0955                 1.0956                 1.0985
 Frc consts  --      6.0077                 6.0184                 6.0846
 IR Inten    --     34.6101                24.9656                90.5380

                     97                     98                     99
                      A                      A                      A
 Frequencies --   3072.7127              3078.3043              3081.3713
 Red. masses --      1.0996                 1.0984                 1.1011
 Frc consts  --      6.1167                 6.1325                 6.1601
 IR Inten    --      8.2278                 8.1841                53.0909

                    100                    101                    102
                      A                      A                      A
 Frequencies --   3081.8904              3087.4340              3111.2916
 Red. masses --      1.1015                 1.1007                 1.0985
 Frc consts  --      6.1642                 6.1821                 6.2649
 IR Inten    --     46.9090                86.5305                 8.6976

                    103                    104                    105
                      A                      A                      A
 Frequencies --   3118.1114              3120.1398              3120.6776
 Red. masses --      1.0973                 1.0974                 1.0966
 Frc consts  --      6.2858                 6.2945                 6.2920
 IR Inten    --      0.0098                22.3415                14.0664

                    106                    107                    108
                      A                      A                      A
 Frequencies --   3181.7494              3185.3894              3464.9260
 Red. masses --      1.0878                 1.0877                 1.0744
 Frc consts  --      6.4884                 6.5027                 7.6000
 IR Inten    --     21.8392                23.5285                64.4512

 - Thermochemistry -
 -------------------
 Temperature   298.150 Kelvin.  Pressure   1.00000 Atm.
 Atom     1 has atomic number  6 and mass  12.00000

 Molecular mass:   235.15723 amu.
 Principal axes and moments of inertia in atomic units:
                           1         2         3
     Eigenvalues --  2354.409786251.571417791.76966
           X            0.78295  -0.08107   0.61679
           Y           -0.62046  -0.03002   0.78366
           Z            0.04502   0.99626   0.07380
 This molecule is an asymmetric top.
 Rotational symmetry number  1.
 Warning -- assumption of classical behavior for rotation
           may cause significant error
 Rotational temperatures (Kelvin)      0.03679     0.01385     0.01112
 Rotational constants (GHZ):           0.76654     0.28869     0.23162
 Zero-point vibrational energy     848134.5 (Joules/Mol)
                                  202.70902 (Kcal/Mol)
 Warning -- explicit consideration of  31 degrees of freedom as
           vibrations may cause significant error
 Vibrational temperatures:     41.84    76.85   107.97   132.68   155.85
          (Kelvin)            233.06   263.38   270.00   323.43   337.20
                              339.78   358.97   388.98   392.61   408.23
                              422.57   425.68   467.72   488.45   505.49
                              546.62   564.79   597.75   603.61   645.32
                              670.74   678.90   691.54   771.90   847.94
                              889.60   953.70   962.24  1023.76  1101.10
                             1125.21  1147.45  1174.62  1183.38  1237.62
                             1294.01  1307.06  1325.96  1329.26  1342.46
                             1375.40  1378.46  1394.48  1462.18  1501.39
                             1509.16  1511.04  1520.79  1682.74  1738.88
                             1748.91  1758.70  1762.54  1775.07  1808.27
                             1821.59  1834.78  1896.85  1976.39  1983.87
                             1996.43  1999.10  2015.21  2028.83  2039.77
                             2113.48  2116.39  2117.21  2141.24  2142.56
                             2145.14  2149.85  2152.20  2156.81  2158.60
                             2173.29  2180.68  2185.41  2202.97  2208.72
                             2239.53  2350.78  4301.75  4309.41  4331.73
                             4332.85  4335.24  4348.42  4389.58  4393.21
                             4411.55  4420.95  4428.99  4433.41  4434.15
                             4442.13  4476.45  4486.27  4489.19  4489.96
                             4577.83  4583.06  4985.26

 Zero-point correction=                           0.323037 (Hartree/Particle)
 Thermal correction to Energy=                    0.341362
 Thermal correction to Enthalpy=                  0.342306
 Thermal correction to Gibbs Free Energy=         0.277480
 Sum of electronic and zero-point Energies=           -751.285599
 Sum of electronic and thermal Energies=              -751.267274
 Sum of electronic and thermal Enthalpies=            -751.266330
 Sum of electronic and thermal Free Energies=         -751.331157

                     E (Thermal)             CV                S
                      KCal/Mol        Cal/Mol-Kelvin    Cal/Mol-Kelvin
 Total                  214.208             71.798            136.439
 Electronic               0.000              0.000              1.377
 Translational            0.889              2.981             42.267
 Rotational               0.889              2.981             33.105
 Vibrational            212.430             65.836             59.689
 Vibration     1          0.593              1.984              5.891
 Vibration     2          0.596              1.976              4.687
 Vibration     3          0.599              1.966              4.017
 Vibration     4          0.602              1.955              3.612
 Vibration     5          0.606              1.943              3.299
 Vibration     6          0.622              1.889              2.526
 Vibration     7          0.631              1.863              2.297
 Vibration     8          0.632              1.857              2.251
 Vibration     9          0.649              1.803              1.920
 Vibration    10          0.654              1.788              1.845
 Vibration    11          0.655              1.785              1.832
 Vibration    12          0.662              1.764              1.734
 Vibration    13          0.674              1.728              1.594
 Vibration    14          0.676              1.723              1.578
 Vibration    15          0.682              1.704              1.511
 Vibration    16          0.688              1.685              1.453
 Vibration    17          0.690              1.681              1.440
 Vibration    18          0.709              1.625              1.284
 Vibration    19          0.719              1.597              1.215
 Vibration    20          0.728              1.573              1.160
 Vibration    21          0.750              1.513              1.039
 Vibration    22          0.760              1.486              0.990
 Vibration    23          0.779              1.437              0.908
 Vibration    24          0.782              1.428              0.894
 Vibration    25          0.808              1.364              0.800
 Vibration    26          0.824              1.325              0.748
 Vibration    27          0.829              1.312              0.732
 Vibration    28          0.837              1.293              0.708
 Vibration    29          0.892              1.169              0.573
 Vibration    30          0.947              1.054              0.468
 Vibration    31          0.978              0.993              0.419

 Optimization completed.
    -- Stationary point found.
 Normal termination of Gaussian 16 at Wed Jan 10 19:43:24 2024.
