 Q-Chem 5.4, Q-Chem, Inc., Pleasanton, CA (2021)
 Q-Chem 5.4.0 for Intel X86 EM64T Linux

User input:
--------------------------------------------------------------
$molecule
0 1
C                  5.7698950000     -5.2881140000      1.2474400000
C                  6.7434180000     -5.1503550000      0.2665560000
C                  6.6272840000     -4.1455210000     -0.6882900000
C                  4.6831330000     -4.4162820000      1.2658370000
C                  4.5592030000     -3.3922000000      0.2971990000
C                  5.5499990000     -3.2498890000     -0.7031830000
C                  3.6605350000     -4.6039800000      2.3419720000
C                  2.5083380000     -3.6784880000      2.3585640000
C                  2.3836170000     -2.7077280000      1.4468510000
C                  3.3752020000     -2.4861230000      0.3622040000
O                  3.7595570000     -5.4839480000      3.1823640000
O                  3.1814120000     -1.5747190000     -0.4294800000
H                  5.8300500000     -6.0590830000      2.0051970000
C                  5.5147300000     -2.1948080000     -1.7804600000
H                  7.5931080000     -5.8233030000      0.2429380000
H                  7.3926820000     -4.0456920000     -1.4503240000
H                  1.7821460000     -3.8370550000      3.1483530000
H                  1.5460570000     -2.0185220000      1.4423820000
H                  5.5012710000     -1.1882280000     -1.3579470000
H                  4.6133350000     -2.2730720000     -2.3913380000
H                  6.3893270000     -2.2953020000     -2.4261480000
$end

$rem
BASIS  =  6-311++G(d,p)
GUI  =  2
JOB_TYPE  =  SP
METHOD  =  B3LYP
SCF_CONVERGENCE  = 8
SOLVENT_METHOD = sm12
$end

$smx
solvent dimethylformamide
charges CM5
$end

--------------------------------------------------------------

             Standard Nuclear Orientation (Angstroms)
    I     Atom           X                Y                Z
 ----------------------------------------------------------------
    1      C       5.7698950000    -5.2881140000     1.2474400000
    2      C       6.7434180000    -5.1503550000     0.2665560000
    3      C       6.6272840000    -4.1455210000    -0.6882900000
    4      C       4.6831330000    -4.4162820000     1.2658370000
    5      C       4.5592030000    -3.3922000000     0.2971990000
    6      C       5.5499990000    -3.2498890000    -0.7031830000
    7      C       3.6605350000    -4.6039800000     2.3419720000
    8      C       2.5083380000    -3.6784880000     2.3585640000
    9      C       2.3836170000    -2.7077280000     1.4468510000
   10      C       3.3752020000    -2.4861230000     0.3622040000
   11      O       3.7595570000    -5.4839480000     3.1823640000
   12      O       3.1814120000    -1.5747190000    -0.4294800000
   13      H       5.8300500000    -6.0590830000     2.0051970000
   14      C       5.5147300000    -2.1948080000    -1.7804600000
   15      H       7.5931080000    -5.8233030000     0.2429380000
   16      H       7.3926820000    -4.0456920000    -1.4503240000
   17      H       1.7821460000    -3.8370550000     3.1483530000
   18      H       1.5460570000    -2.0185220000     1.4423820000
   19      H       5.5012710000    -1.1882280000    -1.3579470000
   20      H       4.6133350000    -2.2730720000    -2.3913380000
   21      H       6.3893270000    -2.2953020000    -2.4261480000
 ----------------------------------------------------------------

   15    -574.5817194282      1.55e-09  Convergence criterion met
 Total energy in the final basis set =     -574.5987767616

                    Orbital Energies (a.u.)
 --------------------------------------------------------------

 Alpha MOs
 -- Occupied --
-19.1316 -19.1306 -10.2811 -10.2805 -10.2119 -10.2092 -10.2086 -10.2077
-10.2071 -10.1962 -10.1941 -10.1933 -10.1680  -1.0647  -1.0628  -0.8898
 -0.8399  -0.7954  -0.7749  -0.7135  -0.6881  -0.6425  -0.6381  -0.5718
 -0.5370  -0.5319  -0.5037  -0.4858  -0.4590  -0.4567  -0.4549  -0.4327
 -0.4266  -0.4245  -0.4231  -0.4086  -0.3891  -0.3770  -0.3702  -0.3665
 -0.3062  -0.2830  -0.2804  -0.2716  -0.2687

          Ground-State Mulliken Net Atomic Charges

     Atom                 Charge (a.u.)
  ----------------------------------------
      1 C                     0.422160
      2 C                     0.042448
      3 C                     0.171684
      4 C                    -0.204486
      5 C                    -0.544569
      6 C                     0.279329
      7 C                    -1.134447
      8 C                     0.598221
      9 C                     0.438101
     10 C                    -1.254809
     11 O                    -0.314205
     12 O                    -0.280000
     13 H                     0.169078
     14 C                    -0.108987
     15 H                     0.333268
     16 H                     0.253937
     17 H                     0.315354
     18 H                     0.323530
     19 H                     0.143578
     20 H                     0.143534
     21 H                     0.207281
  ----------------------------------------
  Sum of atomic charges =     0.000000

                    Cartesian Multipole Moments
 -----------------------------------------------------------------
    Charge (ESU x 10^10)
                 0.0000
    Dipole Moment (Debye)
         X       1.6339      Y      -0.0444      Z      -1.3577
       Tot       2.1249
    Quadrupole Moments (Debye-Ang)
        XX     -50.1123     XY      -9.2334     YY     -81.7033
        XZ     -12.0484     YZ      13.2019     ZZ     -81.0859

 Total job time:  257.05s(wall), 1994.58s(cpu)
        *  Thank you very much for using Q-Chem.  Have a nice day.  *
