 Q-Chem 5.4, Q-Chem, Inc., Pleasanton, CA (2021)
 Q-Chem 5.4.0 for Intel X86 EM64T Linux

User input:
--------------------------------------------------------------
$molecule
-1 2
C                 -0.2467320000      0.9367880000      0.3703690000
C                 -1.3626200000      0.1520990000     -0.1244070000
C                 -1.2368980000     -1.1573340000     -0.4659770000
C                  0.0203430000     -1.8678040000     -0.3617360000
C                  1.1682450000     -1.1095420000      0.1292500000
C                  1.0377610000      0.2364770000      0.4931980000
O                 -0.4034760000      2.1575270000      0.6391500000
O                  0.1024410000     -3.0890150000     -0.6825130000
C                  2.2115030000      0.9952650000      1.0061180000
C                  2.0030620000      2.1044810000      2.0281970000
O                  3.3617040000      0.7402100000      0.6571010000
H                 -2.3084000000      0.6787870000     -0.2143820000
H                 -2.0818030000     -1.7312800000     -0.8368070000
H                  1.1615670000      1.9067210000      2.6934990000
H                  1.7677940000      3.0354360000      1.5082330000
H                  2.9338960000      2.2185120000      2.5894810000
C                  2.4536110000     -1.8892290000      0.2424290000
H                  2.2181140000     -2.9540750000      0.2356500000
H                  3.0188390000     -1.6250510000      1.1376080000
H                  3.1144390000     -1.6807350000     -0.6053780000
$end
$rem
MAX_SCF_CYCLES=200
BASIS  =  6-311++G(d,p)
GUI  =  2
JOB_TYPE  =  SP
METHOD  =  B3LYP
SOLVENT_METHOD = COSMO
$end
$solvent
dielectric 37.219
opticaldielectric 1.43
$end

--------------------------------------------------------------

             Standard Nuclear Orientation (Angstroms)
    I     Atom           X                Y                Z
 ----------------------------------------------------------------
    1      C       0.3887774800    -1.4556030714     0.1019113436
    2      C      -0.9336318497    -2.0520142725     0.0662267612
    3      C      -2.0669723722    -1.3055905297    -0.0078119042
    4      C      -2.0398346610     0.1411870435    -0.0566681972
    5      C      -0.7259455087     0.7783517402    -0.0189328107
    6      C       0.4434296601     0.0104207146     0.0450595630
    7      O       1.4086381435    -2.1874580210     0.2081571592
    8      O      -3.1133658224     0.8067343613    -0.1313132575
    9      C       1.7777012101     0.6704918285     0.0683403121
   10      C       2.9734956795    -0.0255978499    -0.5672602024
   11      O       1.9511536891     1.7834401113     0.5593480687
   12      H      -0.9647671462    -3.1369133872     0.1111718679
   13      H      -3.0504728320    -1.7670442209    -0.0319095249
   14      H       2.6932979265    -0.6355813987    -1.4270618617
   15      H       3.4213104688    -0.7085959366     0.1575613847
   16      H       3.6967395072     0.7447376994    -0.8465382723
   17      C      -0.7387642330     2.2841380601    -0.0919416944
   18      H      -1.7071912438     2.6071265500    -0.4756464711
   19      H       0.0707581837     2.6739943700    -0.7110569214
   20      H      -0.6006153766     2.7258427307     0.9004050093
 ----------------------------------------------------------------

    9    -573.6637591904      8.55e-06  Convergence criterion met
 Total energy in the final basis set =     -573.6637591904
    4    -573.7470251643      7.18e-06  Convergence criterion met
 Total energy in the final basis set =     -573.7470251643

                    Orbital Energies (a.u.)
 --------------------------------------------------------------

 Alpha MOs
 -- Occupied --
-19.1081 -19.0867 -19.0842 -10.2593 -10.2333 -10.2259 -10.1888 -10.1749
-10.1707 -10.1686 -10.1557 -10.1512  -1.0400  -1.0102  -1.0076  -0.8325
 -0.7736  -0.7413  -0.7002  -0.6675  -0.6170  -0.5640  -0.5298  -0.4911
 -0.4716  -0.4597  -0.4435  -0.4279  -0.4205  -0.4180  -0.4053  -0.4022
 -0.3938  -0.3847  -0.3738  -0.3638  -0.3616  -0.3507  -0.2874  -0.2616
 -0.2585  -0.2522  -0.2393  -0.1715

 Beta MOs
 -- Occupied --
-19.1076 -19.0793 -19.0784 -10.2592 -10.2323 -10.2245 -10.1864 -10.1744
-10.1702 -10.1674 -10.1557 -10.1514  -1.0390  -0.9998  -0.9947  -0.8263
 -0.7708  -0.7391  -0.6969  -0.6604  -0.6137  -0.5600  -0.5271  -0.4888
 -0.4687  -0.4574  -0.4390  -0.4256  -0.4151  -0.4108  -0.4026  -0.3984
 -0.3869  -0.3767  -0.3613  -0.3597  -0.3514  -0.3473  -0.2591  -0.2581
 -0.2493  -0.2456  -0.2348

          Ground-State Mulliken Net Atomic Charges

     Atom                 Charge (a.u.)    Spin (a.u.)
  --------------------------------------------------------
      1 C                    -0.979729       0.069844
      2 C                    -0.111156       0.083742
      3 C                    -0.028502       0.030178
      4 C                    -0.853625       0.102084
      5 C                     0.631372       0.175396
      6 C                     1.452579       0.040927
      7 O                    -0.474684       0.207655
      8 O                    -0.510072       0.262934
      9 C                    -0.134243       0.012249
     10 C                    -0.678329       0.002684
     11 O                    -0.357393       0.015244
     12 H                     0.212314      -0.007715
     13 H                     0.212960      -0.004381
     14 H                     0.167811      -0.000392
     15 H                     0.208273       0.000944
     16 H                     0.168896      -0.000610
     17 C                    -0.455761      -0.004825
     18 H                     0.165310      -0.000935
     19 H                     0.162783       0.004436
     20 H                     0.201197       0.010541
  --------------------------------------------------------
  Sum of atomic charges =    -1.000000

                    Cartesian Multipole Moments
 -----------------------------------------------------------------
    Charge (ESU x 10^10)
                -4.8032
    Dipole Moment (Debye)
         X       2.0751      Y      -0.6193      Z      -1.7528
       Tot       2.7861
    Quadrupole Moments (Debye-Ang)
        XX    -104.5862     XY       9.2048     YY     -90.9206
        XZ      -5.2444     YZ      -1.3405     ZZ     -74.0681

 Total job time:  32.46s(wall), 232.48s(cpu)
        *  Thank you very much for using Q-Chem.  Have a nice day.  *
