 Gaussian 16, Revision A.03,
 Gaussian 16:  ES64L-G16RevA.03 25-Dec-2016

 --------------------------------------
 #P UB3LYP/6-311++G(d,p) nosym opt freq
 --------------------------------------

 -------
 Radical
 -------
 Symbolic Z-matrix:
 Charge = -1 Multiplicity = 2

 SCF Done:  E(UB3LYP) =  -573.663795550     A.U. after   20 cycles
 Optimization completed.
    -- Stationary point found.
 Normal termination of Gaussian 16 at Sat Jan  6 05:40:20 2024.

 ----------------------------------------------------------------------
 #P Geom=AllCheck Guess=TCheck SCRF=Check GenChk UB3LYP/6-311++G(d,p) F
 req
 ----------------------------------------------------------------------

 Structure from the checkpoint file:  "057-rad.chk"
 -------
 Radical
 -------
 Charge = -1 Multiplicity = 2

                          Input orientation:
 ---------------------------------------------------------------------
 Center     Atomic      Atomic             Coordinates (Angstroms)
 Number     Number       Type             X           Y           Z
 ---------------------------------------------------------------------
      1          6           0       -0.246732    0.936788    0.370369
      2          6           0       -1.362620    0.152099   -0.124407
      3          6           0       -1.236898   -1.157334   -0.465977
      4          6           0        0.020343   -1.867804   -0.361736
      5          6           0        1.168245   -1.109542    0.129250
      6          6           0        1.037761    0.236477    0.493198
      7          8           0       -0.403476    2.157527    0.639150
      8          8           0        0.102441   -3.089015   -0.682513
      9          6           0        2.211503    0.995265    1.006118
     10          6           0        2.003062    2.104481    2.028197
     11          8           0        3.361704    0.740210    0.657101
     12          1           0       -2.308400    0.678787   -0.214382
     13          1           0       -2.081803   -1.731280   -0.836807
     14          1           0        1.161567    1.906721    2.693499
     15          1           0        1.767794    3.035436    1.508233
     16          1           0        2.933896    2.218512    2.589481
     17          6           0        2.453611   -1.889229    0.242429
     18          1           0        2.218114   -2.954075    0.235650
     19          1           0        3.018839   -1.625051    1.137608
     20          1           0        3.114439   -1.680735   -0.605378
 ---------------------------------------------------------------------

 SCF Done:  E(UB3LYP) =  -573.663795550     A.U. after    1 cycles

 Alpha  occ. eigenvalues --  -18.97486 -18.94510 -18.94457 -10.12793 -10.09643
 Alpha  occ. eigenvalues --  -10.08766 -10.05522 -10.04171 -10.04117 -10.03995
 Alpha  occ. eigenvalues --  -10.03873 -10.02644  -0.90658  -0.86991  -0.86562
 Alpha  occ. eigenvalues --   -0.69888  -0.64347  -0.61700  -0.57276  -0.53546
 Alpha  occ. eigenvalues --   -0.48683  -0.43225  -0.39905  -0.35724  -0.33889
 Alpha  occ. eigenvalues --   -0.33005  -0.31566  -0.29746  -0.29078  -0.28559
 Alpha  occ. eigenvalues --   -0.27482  -0.26909  -0.26152  -0.25685  -0.23757
 Alpha  occ. eigenvalues --   -0.23229  -0.23045  -0.22216  -0.14984  -0.12968
 Alpha  occ. eigenvalues --   -0.12413  -0.11012  -0.10113  -0.03315
 Alpha virt. eigenvalues --    0.07850   0.09537   0.10206   0.10989   0.12346
 Alpha virt. eigenvalues --    0.12851   0.13084   0.13893   0.14529   0.14627
 Alpha virt. eigenvalues --    0.16160   0.16925   0.17996   0.18145   0.18927

  Beta  occ. eigenvalues --  -18.97429 -18.93852 -18.93706 -10.12787 -10.09565
  Beta  occ. eigenvalues --  -10.08669 -10.05263 -10.04118 -10.04060 -10.03997
  Beta  occ. eigenvalues --  -10.03755 -10.02660  -0.90555  -0.85945  -0.85174
  Beta  occ. eigenvalues --   -0.69264  -0.64080  -0.61537  -0.56978  -0.52813
  Beta  occ. eigenvalues --   -0.48359  -0.42852  -0.39662  -0.35515  -0.33646
  Beta  occ. eigenvalues --   -0.32764  -0.31273  -0.29617  -0.28473  -0.28223
  Beta  occ. eigenvalues --   -0.27269  -0.26357  -0.25855  -0.24490  -0.23100
  Beta  occ. eigenvalues --   -0.22715  -0.22061  -0.20905  -0.12562  -0.12265
  Beta  occ. eigenvalues --   -0.11227  -0.10325  -0.09560
  Beta virt. eigenvalues --    0.03758   0.09021   0.09542   0.10219   0.10999
  Beta virt. eigenvalues --    0.12385   0.12955   0.13100   0.14152   0.14681
  Beta virt. eigenvalues --    0.15379   0.16189   0.17575   0.18123   0.18560

 Mulliken charges and spin densities:
               1          2
     1  C   -1.150555   0.045875
     2  C    0.033135   0.082463
     3  C    0.117731   0.043295
     4  C   -1.118449   0.060573
     5  C    0.742377   0.186933
     6  C    1.463976   0.044799
     7  O   -0.379117   0.217249
     8  O   -0.389009   0.291088
     9  C   -0.225283   0.011211
    10  C   -0.615556   0.003436
    11  O   -0.275972   0.018109
    12  H    0.154158  -0.007998
    13  H    0.153785  -0.005249
    14  H    0.144759  -0.000432
    15  H    0.189068   0.001365
    16  H    0.131339  -0.000926
    17  C   -0.451637  -0.005537
    18  H    0.168741  -0.001421
    19  H    0.138252   0.004346
    20  H    0.168258   0.010821
 Sum of Mulliken charges =  -1.00000   1.00000

 Dipole moment (field-independent basis, Debye):
    X=             -3.8146    Y=              1.6296    Z=             -0.0809  Tot=              4.1489
 Quadrupole moment (field-independent basis, Debye-Ang):
   XX=            -92.9187   YY=           -106.1523   ZZ=            -75.5492
   XY=             -0.1237   XZ=             -1.2188   YZ=             -7.8667

  Exact polarizability: 154.748   2.045 172.138  17.790  32.279  91.292
 Approx polarizability: 228.276  -9.791 291.337  15.316  50.739 135.785

                      1                      2                      3
                      A                      A                      A
 Frequencies --     56.4677                70.4873               106.3593
 Red. masses --      3.9311                 3.7712                 4.8746
 Frc consts  --      0.0074                 0.0110                 0.0325
 IR Inten    --      4.5454                 0.4545                12.0281

                      4                      5                      6
                      A                      A                      A
 Frequencies --    138.8832               151.3495               215.5327
 Red. masses --      1.1197                 1.1419                 4.7219
 Frc consts  --      0.0127                 0.0154                 0.1292
 IR Inten    --      1.5153                 0.6545                 0.4926

                      7                      8                      9
                      A                      A                      A
 Frequencies --    232.7073               314.4628               331.8751
 Red. masses --      5.0079                 5.1938                 5.3560
 Frc consts  --      0.1598                 0.3026                 0.3476
 IR Inten    --      4.6197                 0.0483                 1.5672

                     10                     11                     12
                      A                      A                      A
 Frequencies --    369.7300               377.2804               416.9664
 Red. masses --      3.6369                 4.0182                 6.8146
 Frc consts  --      0.2929                 0.3370                 0.6981
 IR Inten    --      4.4918                 2.4240                 4.6475

                     13                     14                     15
                      A                      A                      A
 Frequencies --    461.6305               477.3246               553.7320
 Red. masses --      5.8732                 6.2895                 5.0034
 Frc consts  --      0.7374                 0.8443                 0.9039
 IR Inten    --      1.0522                 3.0558                10.9083

                     16                     17                     18
                      A                      A                      A
 Frequencies --    587.7801               615.8262               631.3651
 Red. masses --      2.6879                 3.6893                 3.8218
 Frc consts  --      0.5471                 0.8243                 0.8976
 IR Inten    --      6.8564                 1.8117                 2.4976

                     19                     20                     21
                      A                      A                      A
 Frequencies --    651.2171               756.5555               769.2982
 Red. masses --      2.9554                 6.6631                 5.2864
 Frc consts  --      0.7385                 2.2470                 1.8433
 IR Inten    --      8.8413                21.4557                 0.7434

                     22                     23                     24
                      A                      A                      A
 Frequencies --    835.4118               845.7528               960.4362
 Red. masses --      1.9970                 3.4396                 1.2732
 Frc consts  --      0.8212                 1.4496                 0.6920
 IR Inten    --     40.0202                24.0716                 0.3112

                     25                     26                     27
                      A                      A                      A
 Frequencies --    975.7202               985.3539              1027.9258
 Red. masses --      1.9432                 3.1751                 1.6852
 Frc consts  --      1.0900                 1.8163                 1.0491
 IR Inten    --     30.0567                 9.4518                 8.7167

                     28                     29                     30
                      A                      A                      A
 Frequencies --   1042.6922              1063.3824              1116.7216
 Red. masses --      1.5895                 2.3010                 1.8422
 Frc consts  --      1.0182                 1.5330                 1.3535
 IR Inten    --      2.1424                21.8872                 6.9603

                     31                     32                     33
                      A                      A                      A
 Frequencies --   1159.4257              1194.3928              1244.5565
 Red. masses --      2.2576                 2.5356                 4.2527
 Frc consts  --      1.7881                 2.1312                 3.8810
 IR Inten    --     21.1140               121.1984                20.5380

                     34                     35                     36
                      A                      A                      A
 Frequencies --   1343.9678              1376.8823              1397.6816
 Red. masses --      2.1836                 1.2730                 1.2795
 Frc consts  --      2.3238                 1.4219                 1.4727
 IR Inten    --     19.8879                34.3987                24.8615

                     37                     38                     39
                      A                      A                      A
 Frequencies --   1419.2233              1444.7545              1447.7529
 Red. masses --      3.8793                 4.2614                 1.0710
 Frc consts  --      4.6037                 5.2407                 1.3226
 IR Inten    --     57.1793               221.1332                17.8863

                     40                     41                     42
                      A                      A                      A
 Frequencies --   1464.3358              1465.4639              1494.2827
 Red. masses --      1.1255                 1.1261                 1.2886
 Frc consts  --      1.4219                 1.4249                 1.6952
 IR Inten    --     45.2937                36.7636                24.3019

                     43                     44                     45
                      A                      A                      A
 Frequencies --   1505.6390              1543.3101              1632.5015
 Red. masses --      4.2596                 7.0764                 6.8835
 Frc consts  --      5.6893                 9.9304                10.8086
 IR Inten    --     29.8627               397.9344                27.2821

                     46                     47                     48
                      A                      A                      A
 Frequencies --   1679.9237              3025.3045              3032.4676
 Red. masses --      9.9654                 1.0424                 1.0349
 Frc consts  --     16.5701                 5.6212                 5.6072
 IR Inten    --    296.4621                40.3539                38.4612

                     49                     50                     51
                      A                      A                      A
 Frequencies --   3076.2203              3107.0490              3116.5094
 Red. masses --      1.0893                 1.0995                 1.1030
 Frc consts  --      6.0735                 6.2539                 6.3121
 IR Inten    --     29.1968                12.6500                 9.4403

                     52                     53                     54
                      A                      A                      A
 Frequencies --   3116.8815              3135.7074              3158.7280
 Red. masses --      1.1025                 1.0851                 1.0956
 Frc consts  --      6.3108                 6.2860                 6.4406
 IR Inten    --     25.1594                17.3140                42.4572

 - Thermochemistry -
 -------------------
 Temperature   298.150 Kelvin.  Pressure   1.00000 Atm.
 Atom     1 has atomic number  6 and mass  12.00000

 Molecular mass:   164.04734 amu.
 Principal axes and moments of inertia in atomic units:
                           1         2         3
     Eigenvalues --  1286.616952076.225483259.27672
           X            0.44437   0.87085  -0.21015
           Y            0.81437  -0.49043  -0.31029
           Z            0.37327   0.03326   0.92713
 This molecule is an asymmetric top.
 Rotational symmetry number  1.
 Warning -- assumption of classical behavior for rotation
           may cause significant error
 Rotational temperatures (Kelvin)      0.06732     0.04172     0.02657
 Rotational constants (GHZ):           1.40270     0.86924     0.55372
 Zero-point vibrational energy     387130.6 (Joules/Mol)
                                   92.52645 (Kcal/Mol)
 Warning -- explicit consideration of  17 degrees of freedom as
           vibrations may cause significant error
 Vibrational temperatures:     81.24   101.42   153.03   199.82   217.76
          (Kelvin)            310.10   334.81   452.44   477.49   531.96
                              542.82   599.92   664.18   686.76   796.70
                              845.68   886.04   908.39   936.96  1088.51
                             1106.85  1201.97  1216.85  1381.85  1403.84
                             1417.70  1478.96  1500.20  1529.97  1606.71
                             1668.15  1718.46  1790.64  1933.67  1981.03
                             2010.95  2041.95  2078.68  2082.99  2106.85
                             2108.48  2149.94  2166.28  2220.48  2348.81
                             2417.04  4352.74  4363.04  4425.99  4470.35
                             4483.96  4484.50  4511.58  4544.71

 Zero-point correction=                           0.147450 (Hartree/Particle)
 Thermal correction to Energy=                    0.158678
 Thermal correction to Enthalpy=                  0.159622
 Thermal correction to Gibbs Free Energy=         0.109478
 Sum of electronic and zero-point Energies=           -573.516345
 Sum of electronic and thermal Energies=              -573.505117
 Sum of electronic and thermal Enthalpies=            -573.504173
 Sum of electronic and thermal Free Energies=         -573.554318

                     E (Thermal)             CV                S
                      KCal/Mol        Cal/Mol-Kelvin    Cal/Mol-Kelvin
 Total                   99.572             41.530            105.538
 Electronic               0.000              0.000              1.377
 Translational            0.889              2.981             41.193
 Rotational               0.889              2.981             30.544
 Vibrational             97.795             35.569             32.424
 Vibration     1          0.596              1.975              4.577
 Vibration     2          0.598              1.968              4.140
 Vibration     3          0.605              1.944              3.334
 Vibration     4          0.614              1.914              2.819
 Vibration     5          0.619              1.901              2.655
 Vibration     6          0.645              1.817              1.996
 Vibration     7          0.653              1.791              1.858
 Vibration     8          0.702              1.646              1.339
 Vibration     9          0.714              1.612              1.251
 Vibration    10          0.742              1.534              1.081
 Vibration    11          0.748              1.519              1.050
 Vibration    12          0.780              1.433              0.902
 Vibration    13          0.819              1.335              0.761
 Vibration    14          0.834              1.300              0.717
 Vibration    15          0.909              1.132              0.536
 Vibration    16          0.945              1.058              0.471
 Vibration    17          0.975              0.998              0.423

 Optimization completed.
    -- Stationary point found.
 Normal termination of Gaussian 16 at Sat Jan  6 05:53:15 2024.
