 Gaussian 16, Revision A.03,
 Gaussian 16:  ES64L-G16RevA.03 25-Dec-2016

 --------------------------------------
 #P UB3LYP/6-311++G(d,p) nosym opt freq
 --------------------------------------

 -------
 Radical
 -------
 Symbolic Z-matrix:
 Charge = -1 Multiplicity = 2

 SCF Done:  E(UB3LYP) =  -764.384624871     A.U. after   21 cycles
 SCF Done:  E(UB3LYP) =  -764.406906979     A.U. after   18 cycles
 SCF Done:  E(UB3LYP) =  -764.409023917     A.U. after   18 cycles
 SCF Done:  E(UB3LYP) =  -764.410591197     A.U. after   16 cycles
 SCF Done:  E(UB3LYP) =  -764.410656980     A.U. after   15 cycles
 SCF Done:  E(UB3LYP) =  -764.410681709     A.U. after   14 cycles
 SCF Done:  E(UB3LYP) =  -764.410692354     A.U. after   14 cycles
 SCF Done:  E(UB3LYP) =  -764.410703403     A.U. after   14 cycles
 SCF Done:  E(UB3LYP) =  -764.410709772     A.U. after   13 cycles
 SCF Done:  E(UB3LYP) =  -764.410712417     A.U. after   12 cycles
 SCF Done:  E(UB3LYP) =  -764.410713212     A.U. after   12 cycles
 SCF Done:  E(UB3LYP) =  -764.410713383     A.U. after   11 cycles
 Optimization completed.
    -- Stationary point found.
 Normal termination of Gaussian 16 at Tue Dec 26 21:01:09 2023.

 ----------------------------------------------------------------------
 #P Geom=AllCheck Guess=TCheck SCRF=Check GenChk UB3LYP/6-311++G(d,p) F
 req
 ----------------------------------------------------------------------

 Structure from the checkpoint file:  "261-rad.chk"
 -------
 Radical
 -------
 Charge = -1 Multiplicity = 2

                          Input orientation:
 ---------------------------------------------------------------------
 Center     Atomic      Atomic             Coordinates (Angstroms)
 Number     Number       Type             X           Y           Z
 ---------------------------------------------------------------------
      1          6           0        2.885755    2.518380   -0.339925
      2          8           0        2.555901    1.155904   -0.236072
      3          6           0        1.233462    0.801634   -0.164132
      4          6           0        0.231745    1.753663   -0.191502
      5          6           0       -1.119098    1.374761   -0.116750
      6          6           0       -1.472926    0.042546   -0.014243
      7          8           0       -2.786566   -0.342606    0.059750
      8          6           0       -3.783671    0.647867    0.032162
      9          6           0       -0.470765   -0.980450    0.017713
     10          6           0       -0.850279   -2.410515    0.127508
     11          8           0       -2.034795   -2.827639    0.199911
     12          6           0        0.242460   -3.349613    0.148913
     13          6           0        1.553172   -2.982010    0.076234
     14          6           0        1.991564   -1.613479   -0.030445
     15          8           0        3.220761   -1.353575   -0.092155
     16          6           0        0.916521   -0.591318   -0.059186
     17          1           0        3.975399    2.555063   -0.382637
     18          1           0        2.541329    3.097334    0.528953
     19          1           0        2.475827    2.977718   -1.250841
     20          1           0        0.466604    2.806126   -0.270659
     21          1           0       -1.872378    2.150056   -0.141495
     22          1           0       -4.731956    0.112979    0.103772
     23          1           0       -3.700717    1.345492    0.877849
     24          1           0       -3.768881    1.227514   -0.901959
     25          1           0       -0.047082   -4.393854    0.228931
     26          1           0        2.348614   -3.721978    0.095978
 ---------------------------------------------------------------------

 SCF Done:  E(UB3LYP) =  -764.410713383     A.U. after    1 cycles

 Alpha  occ. eigenvalues --  -19.02817 -19.02817 -18.92552 -18.92551 -10.11875
 Alpha  occ. eigenvalues --  -10.11875 -10.10825 -10.10824 -10.08059 -10.08058
 Alpha  occ. eigenvalues --  -10.05056 -10.05015 -10.05006 -10.04976 -10.02347
 Alpha  occ. eigenvalues --  -10.02279  -0.94839  -0.94764  -0.85235  -0.84980
 Alpha  occ. eigenvalues --   -0.72790  -0.66813  -0.64497  -0.62461  -0.59633
 Alpha  occ. eigenvalues --   -0.56920  -0.53894  -0.48809  -0.48189  -0.44464
 Alpha  occ. eigenvalues --   -0.40826  -0.39494  -0.37428  -0.36993  -0.36133
 Alpha  occ. eigenvalues --   -0.35891  -0.32646  -0.32523  -0.31146  -0.29820
 Alpha  occ. eigenvalues --   -0.29391  -0.28199  -0.27690  -0.25463  -0.24199
 Alpha  occ. eigenvalues --   -0.23915  -0.23064  -0.22786  -0.21746  -0.21569
 Alpha  occ. eigenvalues --   -0.21052  -0.17620  -0.13425  -0.12309  -0.09022
 Alpha  occ. eigenvalues --   -0.08710  -0.08372  -0.00778
 Alpha virt. eigenvalues --    0.07039   0.07822   0.09994   0.10755   0.10762
 Alpha virt. eigenvalues --    0.10870   0.11386   0.11461   0.11887   0.13125
 Alpha virt. eigenvalues --    0.13252   0.13608   0.14434   0.16298   0.17557

  Beta  occ. eigenvalues --  -19.02819 -19.02818 -18.91852 -18.91852 -10.11874
  Beta  occ. eigenvalues --  -10.11874 -10.10842 -10.10841 -10.07974 -10.07973
  Beta  occ. eigenvalues --  -10.04980 -10.04930 -10.04926 -10.04887 -10.02226
  Beta  occ. eigenvalues --  -10.02157  -0.94836  -0.94762  -0.84061  -0.83766
  Beta  occ. eigenvalues --   -0.72593  -0.66289  -0.64424  -0.62314  -0.59513
  Beta  occ. eigenvalues --   -0.56797  -0.53076  -0.48441  -0.48039  -0.44358
  Beta  occ. eigenvalues --   -0.40737  -0.39383  -0.37254  -0.36796  -0.36106
  Beta  occ. eigenvalues --   -0.35878  -0.32613  -0.32244  -0.30886  -0.29772
  Beta  occ. eigenvalues --   -0.29218  -0.27622  -0.27485  -0.24764  -0.23588
  Beta  occ. eigenvalues --   -0.22650  -0.22640  -0.22623  -0.21654  -0.20953
  Beta  occ. eigenvalues --   -0.19418  -0.17348  -0.11645  -0.10193  -0.08393
  Beta  occ. eigenvalues --   -0.08061  -0.07738
  Beta virt. eigenvalues --    0.05764   0.07037   0.07820   0.09991   0.10789
  Beta virt. eigenvalues --    0.10879   0.11465   0.11618   0.12126   0.12418
  Beta virt. eigenvalues --    0.13138   0.13270   0.13606   0.14443   0.16301

 Mulliken charges and spin densities:
               1          2
     1  C   -0.294361  -0.001763
     2  O   -0.086950  -0.002230
     3  C   -0.079513   0.025665
     4  C   -0.257535   0.071753
     5  C   -0.257418   0.071728
     6  C   -0.079364   0.025699
     7  O   -0.086926  -0.002229
     8  C   -0.294356  -0.001763
     9  C    0.144111   0.061053
    10  C   -0.158803   0.019284
    11  O   -0.400779   0.260056
    12  C   -0.055119   0.077596
    13  C   -0.055142   0.077611
    14  C   -0.158918   0.019283
    15  O   -0.400757   0.260024
    16  C    0.144319   0.061075
    17  H    0.175735  -0.000466
    18  H    0.117439   0.001189
    19  H    0.117417   0.001186
    20  H    0.136180  -0.004307
    21  H    0.136187  -0.004305
    22  H    0.175737  -0.000466
    23  H    0.117537   0.001194
    24  H    0.117328   0.001182
    25  H    0.141980  -0.009025
    26  H    0.141970  -0.009024
 Sum of Mulliken charges =  -1.00000   1.00000

 Dipole moment (field-independent basis, Debye):
    X=             -2.7683    Y=              9.7600    Z=             -0.2405  Tot=             10.1478
 Quadrupole moment (field-independent basis, Debye-Ang):
   XX=           -128.7654   YY=           -115.6267   ZZ=            -99.2131
   XY=             -3.9482   XZ=              1.5240   YZ=              0.6210

  Exact polarizability: 236.627   0.997 231.845  -5.204  -9.030  98.088
 Approx polarizability: 392.362  11.382 352.750  -9.652 -13.938 151.854

                      1                      2                      3
                      A                      A                      A
 Frequencies --     23.7958                43.4719                66.4311
 Red. masses --      7.8537                 4.8373                 3.9566
 Frc consts  --      0.0026                 0.0054                 0.0103
 IR Inten    --      0.0005                11.4160                 0.0049

                      4                      5                      6
                      A                      A                      A
 Frequencies --     72.2258                93.8002               201.9005
 Red. masses --      3.4367                 4.1153                 3.2726
 Frc consts  --      0.0106                 0.0213                 0.0786
 IR Inten    --      0.0006                 2.2904                 2.5826

                      7                      8                      9
                      A                      A                      A
 Frequencies --    211.2824               231.6791               256.3364
 Red. masses --      5.2357                 6.1290                 1.0899
 Frc consts  --      0.1377                 0.1938                 0.0422
 IR Inten    --      4.3124                 0.8544                 0.0001

                     10                     11                     12
                      A                      A                      A
 Frequencies --    279.1738               306.0540               338.2483
 Red. masses --      1.1177                 5.1641                 8.1758
 Frc consts  --      0.0513                 0.2850                 0.5511
 IR Inten    --      0.5710                 0.0001                 2.9788

                     13                     14                     15
                      A                      A                      A
 Frequencies --    348.6496               352.3088               382.2712
 Red. masses --      6.1421                 4.0657                 9.9075
 Frc consts  --      0.4399                 0.2973                 0.8530
 IR Inten    --      2.9384                 1.6418                 1.9054

                     16                     17                     18
                      A                      A                      A
 Frequencies --    389.2093               451.1642               482.0554
 Red. masses --      4.7865                10.6035                 4.5926
 Frc consts  --      0.4272                 1.2717                 0.6288
 IR Inten    --      0.0000                 5.5279                 0.0001

                     19                     20                     21
                      A                      A                      A
 Frequencies --    501.7352               526.1573               543.9266
 Red. masses --      6.7479                 5.0886                 2.7634
 Frc consts  --      1.0008                 0.8300                 0.4817
 IR Inten    --      0.4770                 0.0143                 0.3170

                     22                     23                     24
                      A                      A                      A
 Frequencies --    642.3424               669.8433               675.2906
 Red. masses --      5.9241                 2.2473                 4.3354
 Frc consts  --      1.4401                 0.5941                 1.1648
 IR Inten    --      1.5423                20.9889                 0.4710

                     25                     26                     27
                      A                      A                      A
 Frequencies --    681.3766               735.2860               759.1798
 Red. masses --      4.9731                 6.2098                 5.7926
 Frc consts  --      1.3604                 1.9781                 1.9670
 IR Inten    --      0.0001                32.4331                 7.9221

                     28                     29                     30
                      A                      A                      A
 Frequencies --    763.6623               795.7896               823.4657
 Red. masses --      1.7121                 8.2280                 1.3999
 Frc consts  --      0.5883                 3.0700                 0.5593
 IR Inten    --     30.8083                 0.0000                 0.0001

                     31                     32                     33
                      A                      A                      A
 Frequencies --    837.1660               877.3675               928.7942
 Red. masses --      2.1071                 7.6668                 6.4185
 Frc consts  --      0.8701                 3.4772                 3.2623
 IR Inten    --     44.0057                37.3302                 4.2952

                     34                     35                     36
                      A                      A                      A
 Frequencies --    943.5617              1059.3110              1095.3125
 Red. masses --      1.2692                 3.6639                 6.7533
 Frc consts  --      0.6657                 2.4224                 4.7736
 IR Inten    --      0.0001                61.6217                66.5772

                     37                     38                     39
                      A                      A                      A
 Frequencies --   1108.0501              1134.9606              1160.9597
 Red. masses --      2.9574                 3.3924                 1.2824
 Frc consts  --      2.1393                 2.5746                 1.0183
 IR Inten    --     83.3290               141.4271                 0.1300

                     40                     41                     42
                      A                      A                      A
 Frequencies --   1161.1771              1176.9063              1197.4368
 Red. masses --      1.2831                 1.4061                 1.5612
 Frc consts  --      1.0193                 1.1475                 1.3189
 IR Inten    --      1.3758                22.0160                46.0229

                     43                     44                     45
                      A                      A                      A
 Frequencies --   1204.0775              1212.1527              1261.5673
 Red. masses --      1.3954                 1.9972                 4.7712
 Frc consts  --      1.1920                 1.7289                 4.4740
 IR Inten    --      0.6679                 0.0998                42.9157

                     46                     47                     48
                      A                      A                      A
 Frequencies --   1265.2848              1302.6681              1317.7969
 Red. masses --      2.6711                 2.4229                 8.4693
 Frc consts  --      2.5195                 2.4225                 8.6655
 IR Inten    --    293.4015                28.8364                 0.2634

                     49                     50                     51
                      A                      A                      A
 Frequencies --   1385.3289              1413.8095              1427.9046
 Red. masses --      4.5648                 3.1821                 2.9178
 Frc consts  --      5.1615                 3.7476                 3.5051
 IR Inten    --      8.3512                88.4091                13.1151

                     52                     53                     54
                      A                      A                      A
 Frequencies --   1468.6480              1471.1152              1484.2616
 Red. masses --      1.1918                 1.2518                 1.0485
 Frc consts  --      1.5146                 1.5962                 1.3609
 IR Inten    --      1.2804                21.4652                 9.1547

                     55                     56                     57
                      A                      A                      A
 Frequencies --   1484.3337              1503.4191              1503.5445
 Red. masses --      1.0484                 1.0920                 1.0830
 Frc consts  --      1.3610                 1.4542                 1.4425
 IR Inten    --      0.9215                52.6952                63.5500

                     58                     59                     60
                      A                      A                      A
 Frequencies --   1511.9616              1549.0130              1565.5338
 Red. masses --      7.0322                 5.3419                 5.1617
 Frc consts  --      9.4716                 7.5518                 7.4536
 IR Inten    --      6.7123               692.0945               186.7124

                     61                     62                     63
                      A                      A                      A
 Frequencies --   1602.9578              1637.7870              2958.9391
 Red. masses --      5.4444                 7.1951                 1.0368
 Frc consts  --      8.2422                11.3711                 5.3481
 IR Inten    --     27.9335                 2.9926                85.9260

                     64                     65                     66
                      A                      A                      A
 Frequencies --   2960.7082              3001.4094              3001.6670
 Red. masses --      1.0370                 1.1037                 1.1037
 Frc consts  --      5.3559                 5.8580                 5.8592
 IR Inten    --    153.5419                 1.5770               149.8248

                     67                     68                     69
                      A                      A                      A
 Frequencies --   3096.9841              3097.1974              3132.5714
 Red. masses --      1.0945                 1.0945                 1.0847
 Frc consts  --      6.1851                 6.1857                 6.2715
 IR Inten    --     86.1972                 1.1221                22.0617

                     70                     71                     72
                      A                      A                      A
 Frequencies --   3155.5595              3188.0709              3205.8842
 Red. masses --      1.0948                 1.0852                 1.0918
 Frc consts  --      6.4229                 6.4985                 6.6113
 IR Inten    --     47.3125                22.2843                16.9101

 - Thermochemistry -
 -------------------
 Temperature   298.150 Kelvin.  Pressure   1.00000 Atm.
 Atom     1 has atomic number  6 and mass  12.00000

 Molecular mass:   218.05791 amu.
 Principal axes and moments of inertia in atomic units:
                           1         2         3
     Eigenvalues --  2488.105423582.423476047.59321
           X            0.96147  -0.27245   0.03673
           Y            0.26966   0.96064   0.06668
           Z           -0.05345  -0.05421   0.99710
 This molecule is an asymmetric top.
 Rotational symmetry number  1.
 Warning -- assumption of classical behavior for rotation
           may cause significant error
 Rotational temperatures (Kelvin)      0.03481     0.02418     0.01432
 Rotational constants (GHZ):           0.72535     0.50378     0.29842
 Zero-point vibrational energy     506626.1 (Joules/Mol)
                                  121.08655 (Kcal/Mol)
 Warning -- explicit consideration of  21 degrees of freedom as
           vibrations may cause significant error
 Vibrational temperatures:     34.24    62.55    95.58   103.92   134.96
          (Kelvin)            290.49   303.99   333.33   368.81   401.67
                              440.34   486.66   501.63   506.89   550.00
                              559.99   649.12   693.57   721.89   757.02
                              782.59   924.19   963.76   971.59   980.35
                             1057.91  1092.29  1098.74  1144.96  1184.78
                             1204.50  1262.34  1336.33  1357.57  1524.11
                             1575.91  1594.24  1632.96  1670.36  1670.67
                             1693.31  1722.84  1732.40  1744.02  1815.11
                             1820.46  1874.25  1896.02  1993.18  2034.16
                             2054.44  2113.06  2116.61  2135.52  2135.63
                             2163.08  2163.27  2175.38  2228.68  2252.45
                             2306.30  2356.41  4257.25  4259.80  4318.36
                             4318.73  4455.87  4456.18  4507.07  4540.15
                             4586.92  4612.55

 Zero-point correction=                           0.192964 (Hartree/Particle)
 Thermal correction to Energy=                    0.207175
 Thermal correction to Enthalpy=                  0.208119
 Thermal correction to Gibbs Free Energy=         0.149910
 Sum of electronic and zero-point Energies=           -764.217750
 Sum of electronic and thermal Energies=              -764.203539
 Sum of electronic and thermal Enthalpies=            -764.202595
 Sum of electronic and thermal Free Energies=         -764.260804

                     E (Thermal)             CV                S
                      KCal/Mol        Cal/Mol-Kelvin    Cal/Mol-Kelvin
 Total                  130.004             53.565            122.511
 Electronic               0.000              0.000              1.377
 Translational            0.889              2.981             42.042
 Rotational               0.889              2.981             32.355
 Vibrational            128.227             47.603             46.736
 Vibration     1          0.593              1.985              6.289
 Vibration     2          0.595              1.980              5.094
 Vibration     3          0.598              1.970              4.256
 Vibration     4          0.598              1.967              4.092
 Vibration     5          0.603              1.954              3.579
 Vibration     6          0.639              1.837              2.116
 Vibration     7          0.643              1.824              2.033
 Vibration     8          0.653              1.793              1.866
 Vibration     9          0.666              1.752              1.687
 Vibration    10          0.679              1.712              1.539
 Vibration    11          0.696              1.662              1.384
 Vibration    12          0.719              1.599              1.220
 Vibration    13          0.726              1.578              1.172
 Vibration    14          0.729              1.571              1.156
 Vibration    15          0.752              1.508              1.030
 Vibration    16          0.757              1.493              1.003
 Vibration    17          0.810              1.358              0.792
 Vibration    18          0.838              1.290              0.705
 Vibration    19          0.857              1.246              0.654
 Vibration    20          0.881              1.192              0.596
 Vibration    21          0.899              1.153              0.557

                           ! Non-Optimized Parameters !
 Normal termination of Gaussian 16 at Tue Dec 26 21:54:11 2023.
