 Gaussian 16, Revision A.03,
 Gaussian 16:  ES64L-G16RevA.03 25-Dec-2016

 --------------------------------------
 #P UB3LYP/6-311++G(d,p) nosym opt freq
 --------------------------------------

 --------
 Oxidized
 --------
 Symbolic Z-matrix:
 Charge =  0 Multiplicity = 1

 SCF Done:  E(UB3LYP) =  -769.971489588     A.U. after   16 cycles
 SCF Done:  E(UB3LYP) =  -769.994001149     A.U. after   14 cycles
 SCF Done:  E(UB3LYP) =  -769.999041207     A.U. after   13 cycles
 SCF Done:  E(UB3LYP) =  -770.000268022     A.U. after   13 cycles
 SCF Done:  E(UB3LYP) =  -770.000376909     A.U. after   12 cycles
 SCF Done:  E(UB3LYP) =  -770.000387209     A.U. after   11 cycles
 SCF Done:  E(UB3LYP) =  -770.000392727     A.U. after   11 cycles
 SCF Done:  E(UB3LYP) =  -770.000394091     A.U. after   10 cycles
 SCF Done:  E(UB3LYP) =  -770.000394173     A.U. after    9 cycles
 Optimization completed.
    -- Stationary point found.
 Normal termination of Gaussian 16 at Tue Dec 26 20:42:29 2023.

 ----------------------------------------------------------------------
 #P Geom=AllCheck Guess=TCheck SCRF=Check GenChk UB3LYP/6-311++G(d,p) F
 req
 ----------------------------------------------------------------------

 Structure from the checkpoint file:  "240.chk"
 --------
 Oxidized
 --------
 Charge =  0 Multiplicity = 1

                          Input orientation:
 ---------------------------------------------------------------------
 Center     Atomic      Atomic             Coordinates (Angstroms)
 Number     Number       Type             X           Y           Z
 ---------------------------------------------------------------------
      1          8           0        2.729208   -2.708870   -1.355798
      2          6           0        2.223287   -1.737294   -0.813817
      3          6           0        0.755352   -1.592752   -0.750111
      4          6           0        0.111460   -0.557502   -0.173590
      5          6           0       -1.399818   -0.489678   -0.155343
      6          6           0       -1.961587    0.718478   -0.943908
      7          6           0       -3.496417    0.687986   -0.974743
      8          6           0       -4.091172    0.628024    0.438897
      9          6           0       -3.526794   -0.558749    1.231853
     10          6           0       -1.992092   -0.534853    1.274416
     11          6           0        0.919408    0.540653    0.457064
     12          8           0        0.379097    1.496481    0.990460
     13          6           0        2.410646    0.435002    0.415079
     14          6           0        3.183113    1.445469    0.994579
     15          6           0        4.571410    1.364432    0.964933
     16          6           0        5.199323    0.274382    0.356788
     17          6           0        4.437866   -0.735498   -0.222170
     18          6           0        3.043894   -0.659190   -0.195330
     19          1           0        0.203405   -2.404019   -1.215234
     20          1           0       -1.745210   -1.395158   -0.671634
     21          1           0       -1.620093    1.644522   -0.474514
     22          1           0       -1.564634    0.706322   -1.964569
     23          1           0       -3.870036    1.568775   -1.506878
     24          1           0       -3.833232   -0.186706   -1.546783
     25          1           0       -3.857129    1.560038    0.968685
     26          1           0       -5.182874    0.562881    0.387103
     27          1           0       -3.865101   -1.496111    0.770659
     28          1           0       -3.922006   -0.555594    2.252808
     29          1           0       -1.616640   -1.420045    1.798737
     30          1           0       -1.651838    0.340992    1.832628
     31          1           0        2.678626    2.282435    1.461223
     32          1           0        5.167280    2.150102    1.415397
     33          1           0        6.281590    0.215205    0.335868
     34          1           0        4.901706   -1.590162   -0.699349
 ---------------------------------------------------------------------

 SCF Done:  E(UB3LYP) =  -770.000394173     A.U. after    2 cycles

 Alpha  occ. eigenvalues --  -19.13374 -19.12857 -10.28393 -10.27736 -10.21849
 Alpha  occ. eigenvalues --  -10.20964 -10.20828 -10.20471 -10.20333 -10.20277
 Alpha  occ. eigenvalues --  -10.20061 -10.20029 -10.19191 -10.16919 -10.16918
 Alpha  occ. eigenvalues --  -10.16792 -10.16792 -10.16573  -1.06723  -1.05949
 Alpha  occ. eigenvalues --   -0.89276  -0.85900  -0.82763  -0.78595  -0.78063
 Alpha  occ. eigenvalues --   -0.74699  -0.74571  -0.69439  -0.65650  -0.64434
 Alpha  occ. eigenvalues --   -0.61554  -0.60873  -0.58602  -0.56527  -0.53779
 Alpha  occ. eigenvalues --   -0.53197  -0.50100  -0.48943  -0.47633  -0.46036
 Alpha  occ. eigenvalues --   -0.45394  -0.45290  -0.45227  -0.44446  -0.44050
 Alpha  occ. eigenvalues --   -0.43705  -0.42410  -0.41671  -0.39465  -0.39313
 Alpha  occ. eigenvalues --   -0.38494  -0.38378  -0.37751  -0.37247  -0.35142
 Alpha  occ. eigenvalues --   -0.34938  -0.32783  -0.31608  -0.31490  -0.29272
 Alpha  occ. eigenvalues --   -0.28087  -0.28031  -0.28002  -0.27008
 Alpha virt. eigenvalues --   -0.12420  -0.05867  -0.03551  -0.01086  -0.00731
 Alpha virt. eigenvalues --    0.00301   0.00844   0.01026   0.01362   0.02279
 Alpha virt. eigenvalues --    0.02897   0.03046   0.03284   0.03648   0.03909

  Beta  occ. eigenvalues --  -19.13374 -19.12857 -10.28393 -10.27736 -10.21849
  Beta  occ. eigenvalues --  -10.20964 -10.20828 -10.20471 -10.20333 -10.20277
  Beta  occ. eigenvalues --  -10.20061 -10.20029 -10.19191 -10.16919 -10.16918
  Beta  occ. eigenvalues --  -10.16792 -10.16792 -10.16573  -1.06723  -1.05949
  Beta  occ. eigenvalues --   -0.89276  -0.85900  -0.82763  -0.78595  -0.78063
  Beta  occ. eigenvalues --   -0.74699  -0.74571  -0.69439  -0.65650  -0.64434
  Beta  occ. eigenvalues --   -0.61554  -0.60873  -0.58602  -0.56527  -0.53779
  Beta  occ. eigenvalues --   -0.53197  -0.50100  -0.48943  -0.47633  -0.46036
  Beta  occ. eigenvalues --   -0.45394  -0.45290  -0.45227  -0.44446  -0.44050
  Beta  occ. eigenvalues --   -0.43705  -0.42410  -0.41671  -0.39465  -0.39313
  Beta  occ. eigenvalues --   -0.38494  -0.38378  -0.37751  -0.37247  -0.35142
  Beta  occ. eigenvalues --   -0.34938  -0.32783  -0.31608  -0.31490  -0.29272
  Beta  occ. eigenvalues --   -0.28087  -0.28031  -0.28002  -0.27008
  Beta virt. eigenvalues --   -0.12420  -0.05867  -0.03551  -0.01086  -0.00731
  Beta virt. eigenvalues --    0.00301   0.00844   0.01026   0.01362   0.02279
  Beta virt. eigenvalues --    0.02897   0.03046   0.03284   0.03648   0.03909

 Mulliken charges and spin densities:
               1          2
     1  O   -0.224725   0.000000
     2  C   -0.680716  -0.000000
     3  C   -0.203398   0.000000
     4  C    0.597146   0.000000
     5  C    0.659493  -0.000000
     6  C   -0.551253  -0.000000
     7  C   -0.355519   0.000000
     8  C   -0.405098  -0.000000
     9  C   -0.354997   0.000000
    10  C   -0.550900  -0.000000
    11  C   -0.745309   0.000000
    12  O   -0.184452  -0.000000
    13  C   -0.159527  -0.000000
    14  C    0.161247  -0.000000
    15  C   -0.396538   0.000000
    16  C   -0.270619  -0.000000
    17  C    0.109005   0.000000
    18  C    0.810514   0.000000
    19  H    0.222223   0.000000
    20  H    0.179869   0.000000
    21  H    0.196810   0.000000
    22  H    0.166599   0.000000
    23  H    0.174645  -0.000000
    24  H    0.125991   0.000000
    25  H    0.118927  -0.000000
    26  H    0.175383   0.000000
    27  H    0.125971  -0.000000
    28  H    0.174698  -0.000000
    29  H    0.166608   0.000000
    30  H    0.196838   0.000000
    31  H    0.183525   0.000000
    32  H    0.177903  -0.000000
    33  H    0.179647   0.000000
    34  H    0.180009  -0.000000
 Sum of Mulliken charges =  -0.00000  -0.00000

 Dipole moment (field-independent basis, Debye):
    X=              0.1384    Y=              1.1653    Z=              0.6553  Tot=              1.3440
 Quadrupole moment (field-independent basis, Debye-Ang):
   XX=            -92.7850   YY=           -115.0955   ZZ=           -110.2138
   XY=             10.3353   XZ=              6.0371   YZ=             -3.4859

  Exact polarizability: 256.863  -8.632 180.345  -3.248  31.714 141.817
 Approx polarizability: 342.853 -34.529 334.331 -17.644  82.334 234.005

                      1                      2                      3
                      A                      A                      A
 Frequencies --     34.2862                48.7087                73.8110
 Red. masses --      5.0965                 3.9696                 3.5636
 Frc consts  --      0.0035                 0.0055                 0.0114
 IR Inten    --      2.9135                 0.0845                 0.0967

                      4                      5                      6
                      A                      A                      A
 Frequencies --    115.7276               125.3965               183.2959
 Red. masses --      4.9916                 5.2438                 5.5125
 Frc consts  --      0.0394                 0.0486                 0.1091
 IR Inten    --      2.5615                 2.9102                 0.0584

                      7                      8                      9
                      A                      A                      A
 Frequencies --    187.1242               217.7777               225.4954
 Red. masses --      3.2380                 3.6481                 5.2260
 Frc consts  --      0.0668                 0.1019                 0.1566
 IR Inten    --      0.5813                 0.4363                 0.3020

                     10                     11                     12
                      A                      A                      A
 Frequencies --    233.1471               280.3565               335.5701
 Red. masses --      1.9370                 6.0963                 1.8283
 Frc consts  --      0.0620                 0.2823                 0.1213
 IR Inten    --      0.1063                 0.2442                 0.0060

                     13                     14                     15
                      A                      A                      A
 Frequencies --    381.6193               406.6688               438.5175
 Red. masses --     10.6787                 3.5666                 3.2311
 Frc consts  --      0.9163                 0.3475                 0.3661
 IR Inten    --     16.8531                 0.2701                 0.0352

                     16                     17                     18
                      A                      A                      A
 Frequencies --    439.7582               455.5324               459.4243
 Red. masses --      2.9798                 4.2915                 4.7527
 Frc consts  --      0.3395                 0.5247                 0.5910
 IR Inten    --      5.0307                 0.2222                 5.6307

                     19                     20                     21
                      A                      A                      A
 Frequencies --    465.4744               500.4918               511.2741
 Red. masses --      4.2522                 2.9009                 4.0449
 Frc consts  --      0.5428                 0.4281                 0.6230
 IR Inten    --      0.5377                 1.1192                 0.5575

                     22                     23                     24
                      A                      A                      A
 Frequencies --    568.5244               654.4454               684.5898
 Red. masses --      3.6110                 4.4811                 3.7232
 Frc consts  --      0.6877                 1.1308                 1.0281
 IR Inten    --     16.4396                 0.6514                 7.3704

                     25                     26                     27
                      A                      A                      A
 Frequencies --    695.9006               729.0033               744.7614
 Red. masses --      5.6278                 3.2084                 4.8570
 Frc consts  --      1.6058                 1.0046                 1.5873
 IR Inten    --      0.3507                32.0462                 2.2461

                     28                     29                     30
                      A                      A                      A
 Frequencies --    789.8302               790.4307               798.2036
 Red. masses --      3.9216                 1.6557                 1.5094
 Frc consts  --      1.4414                 0.6095                 0.5666
 IR Inten    --      0.8319                35.9631                 0.0627

                     31                     32                     33
                      A                      A                      A
 Frequencies --    814.8769               817.9651               848.0390
 Red. masses --      3.9089                 3.1756                 2.2549
 Frc consts  --      1.5293                 1.2518                 0.9555
 IR Inten    --      3.1615                 0.4535                 0.9915

                     34                     35                     36
                      A                      A                      A
 Frequencies --    898.6832               902.6991               915.6810
 Red. masses --      1.9490                 1.8078                 1.3719
 Frc consts  --      0.9274                 0.8679                 0.6777
 IR Inten    --     10.9349                 0.1822                 0.2532

                     37                     38                     39
                      A                      A                      A
 Frequencies --    926.1561               941.7683               947.6376
 Red. masses --      1.3928                 1.6359                 3.5907
 Frc consts  --      0.7039                 0.8549                 1.8998
 IR Inten    --      2.0219                 5.6919                52.0230

                     40                     41                     42
                      A                      A                      A
 Frequencies --   1001.1545              1017.5853              1024.2791
 Red. masses --      1.3847                 1.3263                 3.0486
 Frc consts  --      0.8177                 0.8091                 1.8845
 IR Inten    --      0.8926                 0.0013                14.3331

                     43                     44                     45
                      A                      A                      A
 Frequencies --   1036.6651              1053.0579              1054.7482
 Red. masses --      1.9262                 2.2767                 1.7538
 Frc consts  --      1.2196                 1.4875                 1.1496
 IR Inten    --      4.8276                 3.1113                 0.1971

                     46                     47                     48
                      A                      A                      A
 Frequencies --   1087.1797              1096.3431              1097.8103
 Red. masses --      2.7425                 1.0764                 3.2144
 Frc consts  --      1.9098                 0.7623                 2.2825
 IR Inten    --      0.1863                 0.0493                11.9803

                     49                     50                     51
                      A                      A                      A
 Frequencies --   1124.9859              1158.3160              1180.2212
 Red. masses --      2.1423                 2.3335                 1.6181
 Frc consts  --      1.5974                 1.8446                 1.3280
 IR Inten    --     11.5355                13.0295                16.9695

                     52                     53                     54
                      A                      A                      A
 Frequencies --   1185.5422              1198.5395              1242.3690
 Red. masses --      1.3757                 1.3784                 1.6668
 Frc consts  --      1.1392                 1.1666                 1.5158
 IR Inten    --      3.2982                 0.6456                36.5308

                     55                     56                     57
                      A                      A                      A
 Frequencies --   1261.9437              1280.0614              1290.6143
 Red. masses --      1.6823                 1.7948                 1.2790
 Frc consts  --      1.5785                 1.7327                 1.2552
 IR Inten    --     17.3612               122.0780                 0.8578

                     58                     59                     60
                      A                      A                      A
 Frequencies --   1295.5105              1316.8319              1331.0301
 Red. masses --      1.2990                 2.8712                 1.7501
 Frc consts  --      1.2845                 2.9334                 1.8268
 IR Inten    --      2.0925               201.3219                14.1233

                     61                     62                     63
                      A                      A                      A
 Frequencies --   1334.0074              1358.9311              1359.4374
 Red. masses --      1.2664                 6.1228                 1.2851
 Frc consts  --      1.3278                 6.6619                 1.3993
 IR Inten    --      0.1019                 8.6622                 0.1300

                     64                     65                     66
                      A                      A                      A
 Frequencies --   1367.0504              1370.0423              1378.8269
 Red. masses --      1.3507                 1.7229                 1.4350
 Frc consts  --      1.4872                 1.9054                 1.6073
 IR Inten    --      0.0687                18.5872                 0.0058

                     67                     68                     69
                      A                      A                      A
 Frequencies --   1382.9353              1407.3670              1482.3704
 Red. masses --      1.4476                 1.4371                 2.3770
 Frc consts  --      1.6311                 1.6771                 3.0775
 IR Inten    --      7.0748                 3.1142                 0.1427

                     70                     71                     72
                      A                      A                      A
 Frequencies --   1487.2927              1488.2335              1495.7939
 Red. masses --      1.0886                 1.0893                 1.0897
 Frc consts  --      1.4187                 1.4215                 1.4365
 IR Inten    --      1.5064                 4.3526                 4.0373

                     73                     74                     75
                      A                      A                      A
 Frequencies --   1496.3292              1505.7932              1510.6215
 Red. masses --      1.0860                 2.6184                 1.0929
 Frc consts  --      1.4326                 3.4980                 1.4695
 IR Inten    --     11.4366                 3.4507                 1.7943

                     76                     77                     78
                      A                      A                      A
 Frequencies --   1612.9799              1628.7482              1655.6624
 Red. masses --      6.6871                 5.8527                 8.6756
 Frc consts  --     10.2505                 9.1477                14.0118
 IR Inten    --      2.6204                70.6635                69.8655

                     79                     80                     81
                      A                      A                      A
 Frequencies --   1713.8837              1719.2300              2993.2958
 Red. masses --     11.1667                11.6659                 1.0807
 Frc consts  --     19.3258                20.3158                 5.7052
 IR Inten    --     11.0403               414.1513                 2.7478

                     82                     83                     84
                      A                      A                      A
 Frequencies --   2997.5553              2998.2746              3007.7445
 Red. masses --      1.0671                 1.0730                 1.0610
 Frc consts  --      5.6493                 5.6830                 5.6553
 IR Inten    --     14.2739                49.6084                31.0620

                     85                     86                     87
                      A                      A                      A
 Frequencies --   3026.1459              3027.8504              3047.1009
 Red. masses --      1.0647                 1.0660                 1.0944
 Frc consts  --      5.7447                 5.7580                 5.9869
 IR Inten    --     35.6722                18.1254                72.8675

                     88                     89                     90
                      A                      A                      A
 Frequencies --   3049.2663              3052.2777              3080.3432
 Red. masses --      1.0894                 1.1038                 1.0994
 Frc consts  --      5.9682                 6.0588                 6.1461
 IR Inten    --     63.7102                37.1947                 0.7896

                     91                     92                     93
                      A                      A                      A
 Frequencies --   3085.0756              3163.9674              3170.0925
 Red. masses --      1.0984                 1.0911                 1.0869
 Frc consts  --      6.1595                 6.4352                 6.4357
 IR Inten    --     42.8878                 6.6920                 3.1446

                     94                     95                     96
                      A                      A                      A
 Frequencies --   3184.2768              3198.5699              3201.8019
 Red. masses --      1.0915                 1.0929                 1.0948
 Frc consts  --      6.5210                 6.5877                 6.6128
 IR Inten    --      9.3057                 1.4669                 9.9420

 - Thermochemistry -
 -------------------
 Temperature   298.150 Kelvin.  Pressure   1.00000 Atm.
 Atom     1 has atomic number  8 and mass  15.99491

 Molecular mass:   240.11503 amu.
 Principal axes and moments of inertia in atomic units:
                           1         2         3
     Eigenvalues --  1866.567557642.158398770.03479
           X            0.99879   0.04799  -0.01100
           Y           -0.04719   0.86967  -0.49137
           Z           -0.01402   0.49129   0.87088
 This molecule is an asymmetric top.
 Rotational symmetry number  1.
 Warning -- assumption of classical behavior for rotation
           may cause significant error
 Rotational temperatures (Kelvin)      0.04640     0.01133     0.00988
 Rotational constants (GHZ):           0.96688     0.23616     0.20578
 Zero-point vibrational energy     741461.1 (Joules/Mol)
                                  177.21346 (Kcal/Mol)
 Warning -- explicit consideration of  22 degrees of freedom as
           vibrations may cause significant error
 Vibrational temperatures:     49.33    70.08   106.20   166.51   180.42
          (Kelvin)            263.72   269.23   313.33   324.44   335.45
                              403.37   482.81   549.07   585.11   630.93
                              632.71   655.41   661.01   669.71   720.10
                              735.61   817.98   941.60   984.97  1001.25
                             1048.87  1071.55  1136.39  1137.25  1148.44
                             1172.43  1176.87  1220.14  1293.00  1298.78
                             1317.46  1332.53  1354.99  1363.44  1440.44
                             1464.08  1473.71  1491.53  1515.12  1517.55
                             1564.21  1577.39  1579.50  1618.60  1666.56
                             1698.08  1705.73  1724.43  1787.49  1815.66
                             1841.72  1856.91  1863.95  1894.63  1915.06
                             1919.34  1955.20  1955.93  1966.88  1971.19
                             1983.82  1989.74  2024.89  2132.80  2139.88
                             2141.24  2152.11  2152.88  2166.50  2173.45
                             2320.72  2343.41  2382.13  2465.90  2473.59
                             4306.69  4312.81  4313.85  4327.47  4353.95
                             4356.40  4384.10  4387.21  4391.55  4431.93
                             4438.74  4552.24  4561.06  4581.46  4602.03
                             4606.68

 Zero-point correction=                           0.282408 (Hartree/Particle)
 Thermal correction to Energy=                    0.297125
 Thermal correction to Enthalpy=                  0.298069
 Thermal correction to Gibbs Free Energy=         0.240161
 Sum of electronic and zero-point Energies=           -769.717987
 Sum of electronic and thermal Energies=              -769.703270
 Sum of electronic and thermal Enthalpies=            -769.702325
 Sum of electronic and thermal Free Energies=         -769.760233

                     E (Thermal)             CV                S
                      KCal/Mol        Cal/Mol-Kelvin    Cal/Mol-Kelvin
 Total                  186.448             59.112            121.877
 Electronic               0.000              0.000              0.000
 Translational            0.889              2.981             42.329
 Rotational               0.889              2.981             33.192
 Vibrational            184.671             53.150             46.356
 Vibration     1          0.594              1.983              5.565
 Vibration     2          0.595              1.978              4.869
 Vibration     3          0.599              1.966              4.049
 Vibration     4          0.608              1.936              3.171
 Vibration     5          0.610              1.928              3.015
 Vibration     6          0.631              1.863              2.295
 Vibration     7          0.632              1.858              2.256
 Vibration     8          0.646              1.814              1.977
 Vibration     9          0.650              1.802              1.915
 Vibration    10          0.654              1.790              1.855
 Vibration    11          0.680              1.710              1.531
 Vibration    12          0.717              1.604              1.233
 Vibration    13          0.751              1.509              1.033
 Vibration    14          0.771              1.456              0.938
 Vibration    15          0.799              1.386              0.831
 Vibration    16          0.800              1.383              0.827
 Vibration    17          0.814              1.349              0.779
 Vibration    18          0.817              1.340              0.768
 Vibration    19          0.823              1.327              0.750
 Vibration    20          0.856              1.249              0.657
 Vibration    21          0.866              1.225              0.631
 Vibration    22          0.925              1.099              0.507

 Optimization completed.
    -- Stationary point found.
 Normal termination of Gaussian 16 at Tue Dec 26 21:31:14 2023.
