 Q-Chem 5.4, Q-Chem, Inc., Pleasanton, CA (2021)
 Q-Chem 5.4.0 for Intel X86 EM64T Linux

User input:
--------------------------------------------------------------
$molecule
-2 1
C                 -0.4412940000      1.2175310000     -0.3005020000
C                 -1.4731920000      0.2174360000     -0.5051700000
C                 -1.2579930000     -1.1363020000     -0.4403330000
C                  0.0231750000     -1.7602380000     -0.1681080000
C                  1.0091170000     -0.7833420000      0.0977040000
C                  0.8531910000      0.6459070000      0.0725290000
O                 -0.7229090000      2.4570370000     -0.3723870000
O                  0.1757140000     -3.0385570000     -0.2197220000
C                  1.8798460000      1.5480170000      0.5927270000
C                  2.5948660000      1.1633910000      1.9069220000
O                  2.1594100000      2.6620300000      0.1344750000
H                  2.2439810000      0.2272130000      2.3400160000
H                  2.4079540000      1.9889890000      2.6050090000
H                  3.6770210000      1.0984830000      1.7472390000
H                 -2.0727020000     -1.8315650000     -0.6469640000
Cl                 2.7019980000     -1.4585490000      0.2034910000
H                 -2.4617520000      0.6091360000     -0.7445240000
$end
$rem
MAX_SCF_CYCLES=200
BASIS  =  6-311++G(d,p)
GUI  =  2
JOB_TYPE  =  SP
METHOD  =  B3LYP
SOLVENT_METHOD = COSMO
$end
$solvent
dielectric 37.219
opticaldielectric 1.43
$end

--------------------------------------------------------------

             Standard Nuclear Orientation (Angstroms)
    I     Atom           X                Y                Z
 ----------------------------------------------------------------
    1      C       0.6824974452    -1.7030901348     0.0896022488
    2      C      -0.5943072073    -2.3612131578    -0.1190516457
    3      C      -1.7941715446    -1.7023414896    -0.2156679783
    4      C      -1.9611611237    -0.2646395567    -0.1160604504
    5      C      -0.7089773656     0.3764513196     0.0184823530
    6      C       0.5860555893    -0.2429048551     0.1020704897
    7      O       1.7543271334    -2.3861824903     0.1631925937
    8      O      -3.1284630710     0.2807387600    -0.1165826288
    9      C       1.8237620749     0.5295802559     0.0031851568
   10      C       1.8975123891     1.6635725059    -1.0431999187
   11      O       2.8739889364     0.2884289320     0.6098526671
   12      H       0.9894939245     1.7747173691    -1.6350353951
   13      H       2.7407555929     1.4143082975    -1.6994634835
   14      H       2.1238113462     2.6183222639    -0.5553343280
   15      H      -2.7212760086    -2.2654603362    -0.3306124922
   16      Cl     -0.8331711791     2.1571026227     0.4016250102
   17      H      -0.5549603457    -3.4490031185    -0.1750420622
 ----------------------------------------------------------------

   12    -993.8715901851      3.41e-06  Convergence criterion met
 Total energy in the final basis set =     -993.8715901851
    6    -994.1644655318      4.58e-06  Convergence criterion met
 Total energy in the final basis set =     -994.1644655318

                    Orbital Energies (a.u.)
 --------------------------------------------------------------

 Alpha MOs
 -- Occupied --
******** -19.0881 -19.0407 -19.0343 -10.2402 -10.2035 -10.1931 -10.1925
-10.1517 -10.1494 -10.1493 -10.1422  -9.4396  -7.2033  -7.1950  -7.1946
 -1.0156  -0.9617  -0.9511  -0.8358  -0.7853  -0.7359  -0.6966  -0.6646
 -0.5999  -0.5455  -0.5086  -0.4616  -0.4506  -0.4363  -0.4236  -0.4066
 -0.3994  -0.3860  -0.3807  -0.3685  -0.3595  -0.3481  -0.3399  -0.3296
 -0.3098  -0.2905  -0.2479  -0.2452  -0.2268  -0.2155  -0.2083  -0.1415

          Ground-State Mulliken Net Atomic Charges

     Atom                 Charge (a.u.)
  ----------------------------------------
      1 C                    -0.912086
      2 C                     0.062938
      3 C                    -0.216883
      4 C                    -0.442645
      5 C                     0.874783
      6 C                    -0.045740
      7 O                    -0.643866
      8 O                    -0.690072
      9 C                     0.191313
     10 C                    -0.715509
     11 O                    -0.430126
     12 H                     0.137618
     13 H                     0.172394
     14 H                     0.185370
     15 H                     0.180845
     16 Cl                    0.113574
     17 H                     0.178091
  ----------------------------------------
  Sum of atomic charges =    -2.000000

                    Cartesian Multipole Moments
 -----------------------------------------------------------------
    Charge (ESU x 10^10)
                -9.6064
    Dipole Moment (Debye)
         X       1.1722      Y       4.4853      Z      -2.7545
       Tot       5.3925
    Quadrupole Moments (Debye-Ang)
        XX    -149.9196     XY      21.4421     YY    -106.3124
        XZ      -8.0649     YZ      -0.0571     ZZ     -85.2123

 Total job time:  22.72s(wall), 164.82s(cpu)
        *  Thank you very much for using Q-Chem.  Have a nice day.  *
