 Gaussian 16, Revision A.03,
 Gaussian 16:  ES64L-G16RevA.03 25-Dec-2016

 ----------------------------------------------------------------
 #P UB3LYP/6-311++G(d,p) SCRF=(PCM,Solvent=n,n-DiMethylFormamide)
 ----------------------------------------------------------------

 ------------------
 Quinone PCM in DMF
 ------------------
 Symbolic Z-matrix:
 Charge =  0 Multiplicity = 1

                         Standard orientation:
 ---------------------------------------------------------------------
 Center     Atomic      Atomic             Coordinates (Angstroms)
 Number     Number       Type             X           Y           Z
 ---------------------------------------------------------------------
      1          6           0       -1.202522    2.258378    0.474513
      2          6           0       -0.610047    3.528081   -0.011253
      3          6           0        0.533302    3.549616   -0.703528
      4          6           0        1.267948    2.303651   -1.011442
      5          6           0        0.721111    1.001681   -0.471718
      6          6           0       -0.409525    1.008539    0.256930
      7          8           0       -2.301002    2.246399    0.995590
      8          8           0        2.288217    2.318113   -1.671854
      9         16           0       -1.019865   -0.522132    1.067005
     10          6           0       -2.542254   -0.926421    0.205114
     11          6           0       -3.761443   -0.580161    0.782462
     12          6           0       -2.459384   -1.604622   -1.011020
     13          6           0       -3.641510   -1.936008   -1.667813
     14          6           0       -4.933804   -0.927834    0.116457
     15          6           0       -4.872962   -1.600941   -1.103927
     16          8           0       -1.315530   -0.186215    2.458491
     17          8           0       -0.024828   -1.549812    0.744974
     18          1           0       -1.183081    4.421909    0.208844
     19          1           0        0.972907    4.462800   -1.088764
     20          1           0       -3.779603   -0.051318    1.725943
     21          1           0       -1.494484   -1.867762   -1.427128
     22          1           0       -3.599511   -2.462819   -2.613787
     23          1           0       -5.893152   -0.672986    0.551154
     24          1           0       -5.789788   -1.866349   -1.618193
     25          6           0        1.484537   -0.224609   -0.983267
     26          6           0        2.721674   -0.661244   -0.300932
     27          6           0        3.104496   -0.136519    0.938100
     28          6           0        3.524150   -1.625767   -0.924268
     29          6           0        4.276331   -0.570296    1.549173
     30          6           0        5.072150   -1.528660    0.923224
     31          6           0        4.694729   -2.055892   -0.313756
     32          8           0        1.068186   -0.700413   -2.019280
     33          1           0        2.482015    0.597526    1.437004
     34          1           0        3.213668   -2.021999   -1.883130
     35          1           0        4.565739   -0.167133    2.512520
     36          1           0        5.985527   -1.867069    1.399577
     37          1           0        5.315411   -2.801103   -0.797779
 ---------------------------------------------------------------------

 SCF Done:  E(UB3LYP) =  -1505.78082682     A.U. after   18 cycles

 The electronic state is 1-A.
 Alpha  occ. eigenvalues --  -89.07957 -19.16487 -19.16090 -19.14630 -19.14437
 Alpha  occ. eigenvalues --  -19.14345 -10.31270 -10.31196 -10.30323 -10.26109
 Alpha  occ. eigenvalues --  -10.25834 -10.23008 -10.22821 -10.22697 -10.20857
 Alpha  occ. eigenvalues --  -10.20712 -10.20516 -10.20065 -10.20051 -10.19845
 Alpha  occ. eigenvalues --  -10.19814 -10.19689 -10.19670 -10.19263 -10.19227
 Alpha  occ. eigenvalues --   -8.14329  -6.10595  -6.10526  -6.10423  -1.14106
 Alpha  occ. eigenvalues --   -1.09893  -1.09408  -1.08191  -1.03700  -0.89456
 Alpha  occ. eigenvalues --   -0.89074  -0.88174  -0.82995  -0.79917  -0.78543
 Alpha  occ. eigenvalues --   -0.77721  -0.76978  -0.74597  -0.70616  -0.68339
 Alpha  occ. eigenvalues --   -0.65145  -0.64032  -0.63603  -0.62522  -0.60405
 Alpha  occ. eigenvalues --   -0.58291  -0.56236  -0.55396  -0.54580  -0.53185
 Alpha  occ. eigenvalues --   -0.51348  -0.50307  -0.50031  -0.49521  -0.48526
 Alpha  occ. eigenvalues --   -0.48254  -0.47323  -0.47069  -0.46697  -0.46151
 Alpha  occ. eigenvalues --   -0.45700  -0.45501  -0.45050  -0.44350  -0.44059
 Alpha  occ. eigenvalues --   -0.43706  -0.42501  -0.40098  -0.39369  -0.38444
 Alpha  occ. eigenvalues --   -0.37989  -0.37405  -0.36826  -0.36459  -0.35671
 Alpha  occ. eigenvalues --   -0.34373  -0.33656  -0.33244  -0.32338  -0.31375
 Alpha  occ. eigenvalues --   -0.30941  -0.28850  -0.28312  -0.28078  -0.27849
 Alpha  occ. eigenvalues --   -0.27696
 Alpha virt. eigenvalues --   -0.15724  -0.08818  -0.07229  -0.04915  -0.03673
 Alpha virt. eigenvalues --   -0.03168  -0.02697  -0.00872  -0.00148   0.00259
 Alpha virt. eigenvalues --    0.00921   0.01059   0.01394   0.01615   0.01916

  Beta  occ. eigenvalues --  -89.07957 -19.16487 -19.16090 -19.14630 -19.14437
  Beta  occ. eigenvalues --  -19.14345 -10.31270 -10.31196 -10.30323 -10.26109
  Beta  occ. eigenvalues --  -10.25834 -10.23008 -10.22821 -10.22697 -10.20857
  Beta  occ. eigenvalues --  -10.20712 -10.20516 -10.20065 -10.20051 -10.19845
  Beta  occ. eigenvalues --  -10.19814 -10.19689 -10.19670 -10.19263 -10.19227
  Beta  occ. eigenvalues --   -8.14329  -6.10595  -6.10526  -6.10423  -1.14106
  Beta  occ. eigenvalues --   -1.09893  -1.09408  -1.08191  -1.03700  -0.89456
  Beta  occ. eigenvalues --   -0.89074  -0.88174  -0.82995  -0.79917  -0.78543
  Beta  occ. eigenvalues --   -0.77721  -0.76978  -0.74597  -0.70616  -0.68339
  Beta  occ. eigenvalues --   -0.65145  -0.64032  -0.63603  -0.62522  -0.60405
  Beta  occ. eigenvalues --   -0.58291  -0.56236  -0.55396  -0.54580  -0.53185
  Beta  occ. eigenvalues --   -0.51348  -0.50307  -0.50031  -0.49521  -0.48526
  Beta  occ. eigenvalues --   -0.48254  -0.47323  -0.47069  -0.46697  -0.46151
  Beta  occ. eigenvalues --   -0.45700  -0.45501  -0.45050  -0.44350  -0.44059
  Beta  occ. eigenvalues --   -0.43706  -0.42501  -0.40098  -0.39369  -0.38444
  Beta  occ. eigenvalues --   -0.37989  -0.37405  -0.36826  -0.36459  -0.35671
  Beta  occ. eigenvalues --   -0.34373  -0.33656  -0.33244  -0.32338  -0.31375
  Beta  occ. eigenvalues --   -0.30941  -0.28850  -0.28312  -0.28078  -0.27849
  Beta  occ. eigenvalues --   -0.27696
  Beta virt. eigenvalues --   -0.15724  -0.08818  -0.07229  -0.04915  -0.03673
  Beta virt. eigenvalues --   -0.03168  -0.02697  -0.00872  -0.00148   0.00259
  Beta virt. eigenvalues --    0.00921   0.01059   0.01394   0.01615   0.01916

 Mulliken charges and spin densities:
               1          2
     1  C   -0.228995  -0.000000
     2  C    0.218138  -0.000000
     3  C   -0.320927   0.000000
     4  C   -0.059076  -0.000000
     5  C    0.875318  -0.000000
     6  C   -0.417604   0.000000
     7  O   -0.205991  -0.000000
     8  O   -0.212771   0.000000
     9  S    0.266070   0.000000
    10  C    0.702493   0.000000
    11  C   -0.081961   0.000000
    12  C   -0.264783  -0.000000
    13  C   -0.520275   0.000000
    14  C   -0.478514  -0.000000
    15  C   -0.282138  -0.000000
    16  O   -0.104457   0.000000
    17  O   -0.099349  -0.000000
    18  H    0.267407   0.000000
    19  H    0.259151   0.000000
    20  H    0.266825  -0.000000
    21  H    0.242642  -0.000000
    22  H    0.224641  -0.000000
    23  H    0.221602  -0.000000
    24  H    0.201877  -0.000000
    25  C   -0.392952   0.000000
    26  C    0.610634   0.000000
    27  C   -0.969132   0.000000
    28  C    0.536245  -0.000000
    29  C   -0.208469  -0.000000
    30  C   -0.349935   0.000000
    31  C   -0.480410   0.000000
    32  O   -0.228914  -0.000000
    33  H    0.165561   0.000000
    34  H    0.221166  -0.000000
    35  H    0.225052  -0.000000
    36  H    0.190386  -0.000000
    37  H    0.211445   0.000000
 Sum of Mulliken charges =  -0.00000  -0.00000

 Dipole moment (field-independent basis, Debye):
    X=             -0.9644    Y=              2.9534    Z=             -1.3385  Tot=              3.3830
 Quadrupole moment (field-independent basis, Debye-Ang):
   XX=           -119.5823   YY=           -134.5232   ZZ=           -161.3003
   XY=             -0.5846   XZ=             19.8590   YZ=              6.5844

 Normal termination of Gaussian 16 at Wed Jan 24 23:01:10 2024.
