 Gaussian 16, Revision A.03,
 Gaussian 16:  ES64L-G16RevA.03 25-Dec-2016

 ----------------------------------------------------------------
 #P UB3LYP/6-311++G(d,p) SCRF=(PCM,Solvent=n,n-DiMethylFormamide)
 ----------------------------------------------------------------

 -------
 Reduced
 -------
 Symbolic Z-matrix:
 Charge = -2 Multiplicity = 1

                         Standard orientation:
 ---------------------------------------------------------------------
 Center     Atomic      Atomic             Coordinates (Angstroms)
 Number     Number       Type             X           Y           Z
 ---------------------------------------------------------------------
      1          6           0        5.019400    0.377220   -1.547472
      2          6           0        3.951828   -0.548514   -1.229924
      3          6           0        3.490408   -0.716758    0.072966
      4          6           0        4.025005    0.030133    1.188798
      5          6           0        5.114074    0.927595    0.873935
      6          6           0        5.582634    1.091363   -0.421161
      7          8           0        5.451987    0.556997   -2.741210
      8          8           0        3.571503   -0.102161    2.381638
      9          6           0        7.772331    1.518864   -1.211970
     10          6           0        6.245261    0.990080    2.953051
     11          1           0        8.437018    2.375194   -1.367474
     12          1           0        7.564890    1.023332   -2.164081
     13          1           0        8.260211    0.813886   -0.519855
     14          1           0        6.594269    1.735202    3.675561
     15          1           0        7.110029    0.402617    2.605243
     16          6           0        2.389780   -1.707526    0.416658
     17          6           0        1.007021   -1.105463    0.396107
     18          6           0       -0.108571   -1.559970   -0.196216
     19          6           0       -1.422130   -0.813061   -0.056671
     20          6           0       -2.467759   -1.550246    0.818753
     21          6           0       -3.777382   -0.818661    0.936476
     22          6           0       -5.018401   -1.259609    0.678630
     23          6           0       -6.223355   -0.365864    0.902857
     24          6           0       -6.989374    0.039594   -0.382301
     25          6           0       -8.299163    0.716884   -0.080801
     26          6           0       -8.703690    1.955940   -0.392188
     27          6           0      -10.075614    2.448114    0.002158
     28          6           0       -0.173973   -2.820027   -1.029918
     29          6           0       -5.340084   -2.657332    0.202408
     30          6           0       -7.876703    2.968652   -1.145102
     31          1           0        2.577330   -2.032081    1.448566
     32          1           0        2.446218   -2.587438   -0.229416
     33          1           0        0.937280   -0.180500    0.965975
     34          1           0       -1.863515   -0.644707   -1.049570
     35          1           0       -1.234125    0.175187    0.375036
     36          1           0       -2.031934   -1.665521    1.820346
     37          1           0       -2.618607   -2.560591    0.432937
     38          1           0       -3.686274    0.208460    1.292335
     39          1           0       -5.916443    0.544249    1.426775
     40          1           0       -6.928682   -0.883630    1.569040
     41          1           0       -7.198992   -0.862524   -0.971209
     42          1           0       -6.339285    0.663645   -0.999495
     43          1           0       -9.005415    0.094159    0.469289
     44          1           0      -10.656781    1.683832    0.525789
     45          1           0      -10.650590    2.762110   -0.879145
     46          1           0        0.815356   -3.223728   -1.243869
     47          1           0       -0.670474   -2.623053   -1.989282
     48          1           0       -0.752906   -3.611017   -0.534686
     49          1           0       -4.454027   -3.281623    0.089586
     50          1           0       -5.860375   -2.642241   -0.761626
     51          1           0       -6.015904   -3.154927    0.910181
     52          1           0       -6.876636    2.612793   -1.395396
     53          1           0       -7.773478    3.889475   -0.557176
     54          1           0       -8.379543    3.254908   -2.078219
     55          1           0      -10.007868    3.329641    0.653724
     56          8           0        5.665360    1.713886    1.877572
     57          8           0        6.578107    2.034687   -0.643266
     58          6           0        3.360206   -1.313987   -2.390188
     59          1           0        5.508540    0.328926    3.416825
     60          1           0        3.584923   -2.390294   -2.336646
     61          1           0        3.790581   -0.928170   -3.316208
     62          1           0        2.269062   -1.217377   -2.435024
 ---------------------------------------------------------------------

 SCF Done:  E(UB3LYP) =  -1236.42350053     A.U. after   19 cycles

 The electronic state is 1-A.
 Alpha  occ. eigenvalues --  -19.10631 -19.10588 -19.00348 -19.00245 -10.18646
 Alpha  occ. eigenvalues --  -10.18640 -10.17541 -10.17287 -10.16635 -10.16562
 Alpha  occ. eigenvalues --  -10.16274 -10.16149 -10.16093 -10.16013 -10.15997
 Alpha  occ. eigenvalues --  -10.15996 -10.15932 -10.15901 -10.15888 -10.15841
 Alpha  occ. eigenvalues --  -10.15493 -10.15473 -10.15277 -10.14629 -10.13866
 Alpha  occ. eigenvalues --  -10.12852 -10.11401 -10.11302  -1.02625  -1.00874
 Alpha  occ. eigenvalues --   -0.92373  -0.92109  -0.82503  -0.81270  -0.80177
 Alpha  occ. eigenvalues --   -0.77829  -0.75969  -0.73963  -0.72716  -0.70527
 Alpha  occ. eigenvalues --   -0.68988  -0.68323  -0.67571  -0.67350  -0.66834
 Alpha  occ. eigenvalues --   -0.64840  -0.62184  -0.60210  -0.59922  -0.58347
 Alpha  occ. eigenvalues --   -0.52640  -0.52007  -0.51819  -0.51381  -0.49954
 Alpha  occ. eigenvalues --   -0.47789  -0.47355  -0.46596  -0.46059  -0.45194
 Alpha  occ. eigenvalues --   -0.44489  -0.44239  -0.43841  -0.43546  -0.42978
 Alpha  occ. eigenvalues --   -0.42264  -0.42089  -0.41423  -0.41044  -0.40672
 Alpha  occ. eigenvalues --   -0.40413  -0.39809  -0.39239  -0.38229  -0.38064
 Alpha  occ. eigenvalues --   -0.37772  -0.37125  -0.37074  -0.36725  -0.36446
 Alpha  occ. eigenvalues --   -0.36133  -0.35756  -0.35476  -0.35160  -0.34941
 Alpha  occ. eigenvalues --   -0.34255  -0.33846  -0.33160  -0.32620  -0.32486
 Alpha  occ. eigenvalues --   -0.32127  -0.31665  -0.31035  -0.30839  -0.30553
 Alpha  occ. eigenvalues --   -0.29733  -0.26067  -0.24989  -0.24474  -0.23186
 Alpha  occ. eigenvalues --   -0.22279  -0.20716  -0.18712  -0.17947  -0.17632
 Alpha  occ. eigenvalues --   -0.09968
 Alpha virt. eigenvalues --   -0.00683  -0.00218   0.00308   0.00550   0.00886
 Alpha virt. eigenvalues --    0.01144   0.01222   0.01294   0.01850   0.02004
 Alpha virt. eigenvalues --    0.02498   0.02800   0.02999   0.03242   0.03450

  Beta  occ. eigenvalues --  -19.10631 -19.10588 -19.00348 -19.00245 -10.18646
  Beta  occ. eigenvalues --  -10.18640 -10.17541 -10.17287 -10.16635 -10.16562
  Beta  occ. eigenvalues --  -10.16274 -10.16149 -10.16093 -10.16013 -10.15997
  Beta  occ. eigenvalues --  -10.15996 -10.15932 -10.15901 -10.15888 -10.15841
  Beta  occ. eigenvalues --  -10.15493 -10.15473 -10.15277 -10.14629 -10.13866
  Beta  occ. eigenvalues --  -10.12852 -10.11401 -10.11302  -1.02625  -1.00874
  Beta  occ. eigenvalues --   -0.92373  -0.92109  -0.82503  -0.81270  -0.80177
  Beta  occ. eigenvalues --   -0.77829  -0.75969  -0.73963  -0.72716  -0.70527
  Beta  occ. eigenvalues --   -0.68988  -0.68323  -0.67571  -0.67350  -0.66834
  Beta  occ. eigenvalues --   -0.64840  -0.62184  -0.60210  -0.59922  -0.58347
  Beta  occ. eigenvalues --   -0.52640  -0.52007  -0.51819  -0.51381  -0.49954
  Beta  occ. eigenvalues --   -0.47789  -0.47355  -0.46596  -0.46059  -0.45194
  Beta  occ. eigenvalues --   -0.44489  -0.44239  -0.43841  -0.43546  -0.42978
  Beta  occ. eigenvalues --   -0.42264  -0.42089  -0.41423  -0.41044  -0.40672
  Beta  occ. eigenvalues --   -0.40413  -0.39809  -0.39239  -0.38229  -0.38064
  Beta  occ. eigenvalues --   -0.37772  -0.37125  -0.37074  -0.36725  -0.36446
  Beta  occ. eigenvalues --   -0.36133  -0.35756  -0.35476  -0.35160  -0.34941
  Beta  occ. eigenvalues --   -0.34255  -0.33846  -0.33160  -0.32620  -0.32486
  Beta  occ. eigenvalues --   -0.32127  -0.31665  -0.31035  -0.30839  -0.30553
  Beta  occ. eigenvalues --   -0.29733  -0.26067  -0.24989  -0.24474  -0.23186
  Beta  occ. eigenvalues --   -0.22279  -0.20716  -0.18712  -0.17947  -0.17632
  Beta  occ. eigenvalues --   -0.09968
  Beta virt. eigenvalues --   -0.00683  -0.00218   0.00308   0.00550   0.00886
  Beta virt. eigenvalues --    0.01144   0.01222   0.01294   0.01850   0.02004
  Beta virt. eigenvalues --    0.02498   0.02800   0.02999   0.03242   0.03450

 Mulliken charges and spin densities:
               1          2
     1  C   -0.777301  -0.000000
     2  C    0.631742   0.000000
     3  C    0.956026  -0.000000
     4  C   -0.641006   0.000000
     5  C   -0.010386   0.000000
     6  C   -0.435297  -0.000000
     7  O   -0.700947   0.000000
     8  O   -0.664831  -0.000000
     9  C   -0.256242   0.000000
    10  C   -0.246481   0.000000
    11  H    0.134936   0.000000
    12  H    0.172353   0.000000
    13  H    0.100066  -0.000000
    14  H    0.134723   0.000000
    15  H    0.098999  -0.000000
    16  C    0.033712  -0.000000
    17  C   -0.683592  -0.000000
    18  C    1.088516   0.000000
    19  C   -0.999557  -0.000000
    20  C   -0.235900  -0.000000
    21  C   -0.254837  -0.000000
    22  C    0.606041   0.000000
    23  C   -0.575236  -0.000000
    24  C   -0.260888   0.000000
    25  C    0.009075  -0.000000
    26  C    0.290794  -0.000000
    27  C   -0.629600  -0.000000
    28  C   -0.818152   0.000000
    29  C   -0.774539  -0.000000
    30  C   -0.677129   0.000000
    31  H    0.193054  -0.000000
    32  H    0.149368   0.000000
    33  H    0.228677  -0.000000
    34  H    0.176791  -0.000000
    35  H    0.114543  -0.000000
    36  H    0.162764   0.000000
    37  H    0.128495   0.000000
    38  H    0.187366   0.000000
    39  H    0.169958   0.000000
    40  H    0.130312  -0.000000
    41  H    0.118773  -0.000000
    42  H    0.147696   0.000000
    43  H    0.189338  -0.000000
    44  H    0.154665  -0.000000
    45  H    0.146307   0.000000
    46  H    0.106991  -0.000000
    47  H    0.155507  -0.000000
    48  H    0.161240   0.000000
    49  H    0.127905  -0.000000
    50  H    0.169206   0.000000
    51  H    0.160675   0.000000
    52  H    0.140935   0.000000
    53  H    0.147262  -0.000000
    54  H    0.146190  -0.000000
    55  H    0.152641  -0.000000
    56  O   -0.248243   0.000000
    57  O   -0.238841  -0.000000
    58  C   -0.605676  -0.000000
    59  H    0.164884  -0.000000
    60  H    0.137585  -0.000000
    61  H    0.166015   0.000000
    62  H    0.142554   0.000000
 Sum of Mulliken charges =  -2.00000   0.00000

 Dipole moment (field-independent basis, Debye):
    X=            -42.6983    Y=             -5.3803    Z=              1.1632  Tot=             43.0517
 Quadrupole moment (field-independent basis, Debye-Ang):
   XX=           -381.1278   YY=           -192.3608   ZZ=           -234.0005
   XY=            -35.2775   XZ=             24.8823   YZ=              3.8154

 Normal termination of Gaussian 16 at Wed Jan 24 23:14:05 2024.
