 Q-Chem 5.4, Q-Chem, Inc., Pleasanton, CA (2021)
 Q-Chem 5.4.0 for Intel X86 EM64T Linux

User input:
--------------------------------------------------------------
$molecule
-1 2
C                  5.1121880000     -2.7872560000      0.1556630000
C                  5.9134520000     -2.1633190000     -0.7733400000
C                  5.3085930000     -1.2790240000     -1.6958210000
C                  3.7188190000     -2.5578580000      0.2005830000
C                  3.1291960000     -1.6646110000     -0.7406930000
C                  3.9509410000     -1.0285090000     -1.6889540000
C                  2.9190280000     -3.2477360000      1.2147360000
C                  1.4788490000     -2.9632590000      1.1990350000
C                  0.8892230000     -2.0700260000      0.2577490000
C                  1.6890190000     -1.3801310000     -0.7563920000
C                  0.6571080000     -3.5993520000      2.1473040000
C                 -0.5041510000     -1.8406570000      0.3026420000
C                 -1.3054160000     -2.4645940000      1.2316460000
O                  3.4307140000     -4.0323420000      2.0415520000
O                  1.1773290000     -0.5955310000     -1.5832080000
H                  5.5286170000     -3.4767170000      0.8800540000
H                  6.9791960000     -2.3461290000     -0.8175000000
S                  6.3339580000     -0.4444750000     -2.8739710000
H                 -2.3711660000     -2.2818100000      1.2757730000
H                  3.4914900000     -0.3553170000     -2.4016620000
H                  1.1165620000     -4.2725130000      2.8600390000
H                 -0.9205840000     -1.1512090000     -0.4217580000
C                 -0.7005470000     -3.3488520000      2.1541530000
S                 -1.7259140000     -4.1833780000      3.3323170000
O                 -0.9556750000     -4.6523880000      4.4810160000
O                 -2.9594160000     -3.4325310000      3.5670210000
O                 -2.1257430000     -5.5148840000      2.4216780000
C                 -2.9622460000     -6.4815890000      3.0823100000
H                 -2.4612130000     -6.8837900000      3.9660570000
H                 -3.1170590000     -7.2729930000      2.3503990000
H                 -3.9214830000     -6.0368960000      3.3592930000
O                  5.5637280000      0.0247240000     -4.0226010000
O                  7.5674230000     -1.1953440000     -3.1087880000
O                  6.7339110000      0.8869380000     -1.9632650000
C                  7.5698940000      1.8539650000     -2.6240900000
H                  7.0684730000      2.2560350000     -3.5076740000
H                  8.5292090000      1.4096200000     -2.9013680000
H                  7.7246450000      2.6453880000     -1.8921870000
$end
$rem
MAX_SCF_CYCLES=200
BASIS  =  6-311++G(d,p)
GUI  =  2
JOB_TYPE  =  SP
METHOD  =  B3LYP
SOLVENT_METHOD = COSMO
$end
$solvent
dielectric 37.219
opticaldielectric 1.43
$end

--------------------------------------------------------------

             Standard Nuclear Orientation (Angstroms)
    I     Atom           X                Y                Z
 ----------------------------------------------------------------
    1      C      -1.9825169683    -2.0456079153     0.0211944164
    2      C      -3.3172421465    -1.7395823621     0.1598487034
    3      C      -3.6841382483    -0.3808013249     0.2936567589
    4      C      -0.9923090118    -1.0379166876     0.0083487444
    5      C      -1.3840047909     0.3254358484     0.1475977034
    6      C      -2.7490328098     0.6348666792     0.2891625020
    7      C       0.4113284576    -1.4251177672    -0.1465085592
    8      C       1.3839992292    -0.3254816301    -0.1475916309
    9      C       0.9923061712     1.0378689659    -0.0083255304
   10      C      -0.4113357068     1.4250716026     0.1465108893
   11      C       2.7490247325    -0.6349132726    -0.2891688397
   12      C       1.9825156123     2.0455583514    -0.0211313351
   13      C       3.3172420639     1.7395329665    -0.1597862136
   14      O       0.7601244859    -2.6186934657    -0.2680495742
   15      O      -0.7601263048     2.6186461890     0.2680565167
   16      H      -1.6518999414    -3.0722499851    -0.0798518380
   17      H      -4.0767275086    -2.5102200825     0.1817430810
   18      S      -5.4010683731     0.0278464333     0.4387112161
   19      H       4.0767253919     2.5101741309    -0.1816383419
   20      H      -3.0344786169     1.6735308496     0.3983999307
   21      H       3.0344697775    -1.6735731040    -0.3984472512
   22      H       1.6519021814     3.0721992601     0.0799307850
   23      C       3.6841291804     0.3807559365    -0.2936395261
   24      S       5.4010588507    -0.0278830753    -0.4387195234
   25      O       5.5930251278    -1.3447838205    -1.0401089693
   26      O       6.1594924201     1.1071298157    -0.9649406052
   27      O       5.7676247814    -0.1583421880     1.1770294311
   28      C       7.1278494604    -0.5251882761     1.4701219688
   29      H       7.3615761449    -1.5052095977     1.0473471851
   30      H       7.1848373884    -0.5660558985     2.5568893227
   31      H       7.8216658099     0.2281160153     1.0883385401
   32      O      -5.5930813647     1.3448244440     1.0399206320
   33      O      -6.1595231234    -1.1071032425     0.9650331801
   34      O      -5.7676570172     0.1581382198    -1.1770379023
   35      C      -7.1277141466     0.5256031826    -1.4701463835
   36      H      -7.3610101025     1.5057154708    -1.0473498738
   37      H      -7.8218800235    -0.2273998895    -1.0883991551
   38      H      -7.1846666555     0.5665257062    -2.5569131464
 ----------------------------------------------------------------

    9   -2015.4480526687      6.96e-06  Convergence criterion met
 Total energy in the final basis set =    -2015.4480526687
    4   -2015.5321450975      6.73e-06  Convergence criterion met
 Total energy in the final basis set =    -2015.5321450975

                    Orbital Energies (a.u.)
 --------------------------------------------------------------

 Alpha MOs
 -- Occupied --
-89.0955 -89.0955 -19.1798 -19.1798 -19.1452 -19.1452 -19.1440 -19.1440
-19.0971 -19.0971 -10.2463 -10.2463 -10.2289 -10.2289 -10.2271 -10.2271
-10.2050 -10.2050 -10.2007 -10.2007 -10.1972 -10.1972 -10.1967 -10.1967
-10.1906 -10.1906  -8.1565  -8.1565  -6.1201  -6.1201  -6.1187  -6.1187
 -6.1170  -6.1170  -1.1620  -1.1620  -1.0516  -1.0515  -1.0369  -1.0369
 -1.0277  -1.0253  -0.8925  -0.8859  -0.8256  -0.7972  -0.7816  -0.7761
 -0.7464  -0.7356  -0.6949  -0.6843  -0.6547  -0.6467  -0.6123  -0.6109
 -0.5821  -0.5748  -0.5560  -0.5524  -0.5337  -0.5273  -0.5079  -0.5041
 -0.4946  -0.4913  -0.4849  -0.4686  -0.4622  -0.4611  -0.4586  -0.4515
 -0.4490  -0.4457  -0.4417  -0.4353  -0.4350  -0.4194  -0.4126  -0.4109
 -0.4018  -0.3964  -0.3900  -0.3807  -0.3697  -0.3631  -0.3603  -0.3599
 -0.3579  -0.3558  -0.3450  -0.3446  -0.3392  -0.3390  -0.3093  -0.3093
 -0.2935  -0.2830  -0.2822  -0.2756  -0.2675  -0.2583  -0.1638

 Beta MOs
 -- Occupied --
-89.0955 -89.0955 -19.1797 -19.1797 -19.1452 -19.1452 -19.1440 -19.1440
-19.0915 -19.0915 -10.2450 -10.2450 -10.2284 -10.2284 -10.2271 -10.2271
-10.2053 -10.2053 -10.1998 -10.1998 -10.1964 -10.1964 -10.1955 -10.1955
-10.1908 -10.1908  -8.1565  -8.1565  -6.1201  -6.1201  -6.1187  -6.1187
 -6.1170  -6.1170  -1.1619  -1.1619  -1.0515  -1.0514  -1.0368  -1.0368
 -1.0180  -1.0154  -0.8902  -0.8847  -0.8218  -0.7957  -0.7802  -0.7738
 -0.7456  -0.7342  -0.6888  -0.6832  -0.6527  -0.6451  -0.6117  -0.6099
 -0.5802  -0.5741  -0.5542  -0.5513  -0.5333  -0.5267  -0.5069  -0.5035
 -0.4939  -0.4889  -0.4840  -0.4682  -0.4620  -0.4609  -0.4582  -0.4512
 -0.4486  -0.4437  -0.4326  -0.4307  -0.4301  -0.4171  -0.4123  -0.4106
 -0.3941  -0.3877  -0.3799  -0.3786  -0.3619  -0.3605  -0.3597  -0.3595
 -0.3578  -0.3552  -0.3449  -0.3445  -0.3384  -0.3370  -0.3092  -0.3091
 -0.2806  -0.2744  -0.2706  -0.2681  -0.2623  -0.2531

          Ground-State Mulliken Net Atomic Charges

     Atom                 Charge (a.u.)    Spin (a.u.)
  --------------------------------------------------------
      1 C                     0.005120       0.007803
      2 C                    -0.331647       0.075136
      3 C                    -1.050373       0.018432
      4 C                     0.622333       0.070546
      5 C                     0.212139       0.042737
      6 C                     0.170946      -0.000258
      7 C                    -0.587837       0.078679
      8 C                     0.212403       0.042747
      9 C                     0.622693       0.070522
     10 C                    -0.588109       0.078719
     11 C                     0.171360      -0.000279
     12 C                     0.005047       0.007820
     13 C                    -0.332246       0.075118
     14 O                    -0.425498       0.206622
     15 O                    -0.425512       0.206653
     16 H                     0.192043      -0.000537
     17 H                     0.262912      -0.004733
     18 S                     0.316398       0.003781
     19 H                     0.262873      -0.004731
     20 H                     0.238646      -0.000228
     21 H                     0.238576      -0.000227
     22 H                     0.191954      -0.000537
     23 C                    -1.050576       0.018449
     24 S                     0.316374       0.003780
     25 O                    -0.241696       0.002353
     26 O                    -0.239655      -0.001428
     27 O                    -0.064259      -0.000008
     28 C                    -0.142646       0.000906
     29 H                     0.181446       0.000009
     30 H                     0.201982       0.000170
     31 H                     0.179877      -0.000009
     32 O                    -0.242104       0.002353
     33 O                    -0.239584      -0.001429
     34 O                    -0.064164      -0.000008
     35 C                    -0.142565       0.000906
     36 H                     0.181449       0.000009
     37 H                     0.179852      -0.000009
     38 H                     0.201908       0.000170
  --------------------------------------------------------
  Sum of atomic charges =    -1.000138

                    Cartesian Multipole Moments
 -----------------------------------------------------------------
    Charge (ESU x 10^10)
                -4.8039
    Dipole Moment (Debye)
         X       0.0013      Y      -0.0004      Z       0.0006
       Tot       0.0015
    Quadrupole Moments (Debye-Ang)
        XX    -214.0762     XY       7.3439     YY    -197.1364
        XZ      48.2868     YZ      -6.3316     ZZ    -171.8558

 Total job time:  169.03s(wall), 1272.90s(cpu)
        *  Thank you very much for using Q-Chem.  Have a nice day.  *
