 Q-Chem 5.4, Q-Chem, Inc., Pleasanton, CA (2021)
 Q-Chem 5.4.0 for Intel X86 EM64T Linux

User input:
--------------------------------------------------------------
$molecule
0 1
C                 -1.5521870000      2.7893590000     -0.0577920000
C                 -2.8179610000      2.2054580000     -0.0252240000
C                 -2.9237910000      0.7968180000      0.0444900000
C                 -0.3913950000      2.0154070000     -0.0236540000
C                 -0.4960600000      0.6222840000      0.0448570000
C                 -1.7594550000      0.0304060000      0.0782740000
C                  0.9428570000      2.6710660000     -0.0597520000
C                  2.1606650000      1.8024470000     -0.0219870000
C                  2.0591710000      0.4519310000      0.0429650000
C                  0.7253580000     -0.2251490000      0.0814130000
O                  1.0477210000      3.8878130000     -0.1187800000
O                  0.6475400000     -1.4439080000      0.1412200000
C                  3.4901810000      2.5033570000     -0.0596490000
C                  3.2690720000     -0.4396290000      0.0817670000
H                 -1.4471460000      3.8667950000     -0.1107330000
C                 -4.0510420000      3.0721980000     -0.0643680000
C                 -4.2725480000      0.1239680000      0.0821350000
H                  3.3509290000      3.5816910000     -0.1060150000
H                  4.0749320000      2.1864270000     -0.9292800000
H                  4.0845880000      2.2626350000      0.8276160000
H                  3.8934080000     -0.2140590000      0.9524170000
H                  3.8939840000     -0.2899790000     -0.8046560000
H                  2.9704860000     -1.4851650000      0.1270950000
H                 -1.8165670000     -1.0506210000      0.1314510000
H                 -3.7858010000      4.1290700000     -0.1118950000
H                 -4.6757580000      2.9201810000      0.8218310000
H                 -4.6746660000      2.8412400000     -0.9342590000
H                 -4.8573060000      0.4479010000      0.9492940000
H                 -4.1681660000     -0.9605260000      0.1328120000
H                 -4.8649110000      0.3650180000     -0.8066000000
$end
$rem
MAX_SCF_CYCLES=200
BASIS  =  6-311++G(d,p)
GUI  =  2
JOB_TYPE  =  SP
METHOD  =  B3LYP
SOLVENT_METHOD = COSMO
$end
$solvent
dielectric 37.219
opticaldielectric 1.43
$end

--------------------------------------------------------------

             Standard Nuclear Orientation (Angstroms)
    I     Atom           X                Y                Z
 ----------------------------------------------------------------
    1      C       1.4127006814    -1.3849965168    -0.0003031647
    2      C       2.6311959857    -0.7071661130    -0.0003949069
    3      C       2.6312441018     0.7071626869     0.0004557919
    4      C       0.1972111555    -0.6992923424     0.0001046719
    5      C       0.1972596420     0.6994356671     0.0005114539
    6      C       1.4127851443     1.3850746393     0.0008882256
    7      C      -1.0841964155    -1.4538880931     0.0003866063
    8      C      -2.3636306730    -0.6779826049     0.0000105040
    9      C      -2.3635532864     0.6778979630    -0.0010571929
   10      C      -1.0841879416     1.4539108208    -0.0000309615
   11      O      -1.0976513279    -2.6764970831     0.0008847936
   12      O      -1.0978539766     2.6765388032     0.0002421793
   13      C      -3.6369271437    -1.4773707039     0.0009124255
   14      C      -3.6368206269     1.4772948022    -0.0015384825
   15      H       1.3886373044    -2.4685672868    -0.0004916242
   16      C       3.9257200842    -1.4801248977    -0.0015388207
   17      C       3.9258284302     1.4800410642     0.0008351750
   18      H      -3.4173178146    -2.5432438284     0.0065129670
   19      H      -4.2435198199    -1.2477846645    -0.8811147899
   20      H      -4.2479393590    -1.2388666989     0.8774315956
   21      H      -4.2427617724     1.2483200091     0.8811361805
   22      H      -4.2485239021     1.2383412710    -0.8775385843
   23      H      -3.4173649728     2.5431984085    -0.0080555531
   24      H       1.3887851205     2.4686487155     0.0012992095
   25      H       3.7403651887    -2.5549322951     0.0032203284
   26      H       4.5370507550    -1.2388393785     0.8741232292
   27      H       4.5305476130    -1.2457999035    -0.8837147105
   28      H       4.5329531012     1.2433601310     0.8807334692
   29      H       3.7405288113     2.5548676174    -0.0008760069
   30      H       4.5348273552     1.2409859119    -0.8771294428
 ----------------------------------------------------------------

    9    -692.5743686033      1.86e-06  Convergence criterion met
 Total energy in the final basis set =     -692.5743686033
    5    -692.5875954983      2.50e-06  Convergence criterion met
 Total energy in the final basis set =     -692.5875954983

                    Orbital Energies (a.u.)
 --------------------------------------------------------------

 Alpha MOs
 -- Occupied --
-19.1312 -19.1312 -10.2793 -10.2793 -10.2092 -10.2085 -10.2010 -10.2006
-10.1992 -10.1987 -10.1888 -10.1888 -10.1692 -10.1691 -10.1688 -10.1687
 -1.0655  -1.0637  -0.8886  -0.8507  -0.8046  -0.7836  -0.7456  -0.7209
 -0.7195  -0.6733  -0.6572  -0.6181  -0.5933  -0.5794  -0.5394  -0.5023
 -0.4992  -0.4698  -0.4622  -0.4578  -0.4456  -0.4446  -0.4416  -0.4230
 -0.4179  -0.4127  -0.4095  -0.4041  -0.3960  -0.3957  -0.3934  -0.3829
 -0.3800  -0.3594  -0.3581  -0.3549  -0.2887  -0.2829  -0.2715  -0.2690
 -0.2574

          Ground-State Mulliken Net Atomic Charges

     Atom                 Charge (a.u.)
  ----------------------------------------
      1 C                    -0.234346
      2 C                     0.284685
      3 C                     0.283438
      4 C                     0.110624
      5 C                     0.111210
      6 C                    -0.235512
      7 C                    -0.632427
      8 C                     0.435345
      9 C                     0.435046
     10 C                    -0.632992
     11 O                    -0.311578
     12 O                    -0.311574
     13 C                    -0.427182
     14 C                    -0.426364
     15 H                     0.157153
     16 C                    -0.496407
     17 C                    -0.495849
     18 H                     0.201206
     19 H                     0.184339
     20 H                     0.183363
     21 H                     0.184379
     22 H                     0.183175
     23 H                     0.201190
     24 H                     0.157211
     25 H                     0.192933
     26 H                     0.176064
     27 H                     0.177027
     28 H                     0.176716
     29 H                     0.192868
     30 H                     0.176259
  ----------------------------------------
  Sum of atomic charges =     0.000000

                    Cartesian Multipole Moments
 -----------------------------------------------------------------
    Charge (ESU x 10^10)
                 0.0000
    Dipole Moment (Debye)
         X       2.1095      Y      -0.0003      Z      -0.0032
       Tot       2.1096
    Quadrupole Moments (Debye-Ang)
        XX     -66.7619     XY       0.0029     YY    -112.7314
        XZ      -0.0033     YZ       0.0082     ZZ     -95.0577

 Total job time:  174.15s(wall), 434.97s(cpu)
        *  Thank you very much for using Q-Chem.  Have a nice day.  *
