 Q-Chem 5.4, Q-Chem, Inc., Pleasanton, CA (2021)
 Q-Chem 5.4.0 for Intel X86 EM64T Linux

User input:
--------------------------------------------------------------
$molecule
-2 1
C                  6.8870930000     -1.6443580000     -0.2498260000
C                  7.4529360000     -0.6900720000     -1.0691260000
C                  6.6313090000      0.3240520000     -1.6392040000
C                  5.2796360000      0.3384310000     -1.3642440000
C                  4.6630770000     -0.6266950000     -0.5262900000
C                  5.5005240000     -1.6603980000      0.0548300000
C                  4.9855290000     -2.6986180000      0.9249840000
C                  3.5658830000     -2.6115300000      1.1613490000
C                  2.7213860000     -1.5746650000      0.5793670000
C                  3.2363630000     -0.5422830000     -0.2867500000
C                  2.9571840000     -3.5841940000      2.0038310000
C                  1.6133020000     -3.5391580000      2.2550530000
C                  0.7583240000     -2.5426240000      1.7047320000
C                  1.3387620000     -1.5943910000      0.8862370000
O                  5.7309870000     -3.6138600000      1.4383650000
O                  2.4956830000      0.3755640000     -0.8030870000
H                  7.4850940000     -2.4308810000      0.2005860000
H                  4.6248140000      1.0972080000     -1.7822500000
H                  3.6151290000     -4.3391640000      2.4186570000
H                  0.7352860000     -0.8099360000      0.4383450000
I                  0.7129270000     -5.0259670000      3.5375840000
H                  8.5211390000     -0.7101950000     -1.2800220000
H                  7.0690680000      1.0818410000     -2.2872720000
H                 -0.3034350000     -2.5321160000      1.9216110000
$end

$rem
BASIS  =  6-311++G(d,p)
GUI  =  2
JOB_TYPE  =  SP
METHOD  =  B3LYP
SCF_CONVERGENCE  = 8
SOLVENT_METHOD = sm12
$end

$smx
solvent dimethylformamide
charges CM5
$end

--------------------------------------------------------------

             Standard Nuclear Orientation (Angstroms)
    I     Atom           X                Y                Z
 ----------------------------------------------------------------
    1      C       6.8870930000    -1.6443580000    -0.2498260000
    2      C       7.4529360000    -0.6900720000    -1.0691260000
    3      C       6.6313090000     0.3240520000    -1.6392040000
    4      C       5.2796360000     0.3384310000    -1.3642440000
    5      C       4.6630770000    -0.6266950000    -0.5262900000
    6      C       5.5005240000    -1.6603980000     0.0548300000
    7      C       4.9855290000    -2.6986180000     0.9249840000
    8      C       3.5658830000    -2.6115300000     1.1613490000
    9      C       2.7213860000    -1.5746650000     0.5793670000
   10      C       3.2363630000    -0.5422830000    -0.2867500000
   11      C       2.9571840000    -3.5841940000     2.0038310000
   12      C       1.6133020000    -3.5391580000     2.2550530000
   13      C       0.7583240000    -2.5426240000     1.7047320000
   14      C       1.3387620000    -1.5943910000     0.8862370000
   15      O       5.7309870000    -3.6138600000     1.4383650000
   16      O       2.4956830000     0.3755640000    -0.8030870000
   17      H       7.4850940000    -2.4308810000     0.2005860000
   18      H       4.6248140000     1.0972080000    -1.7822500000
   19      H       3.6151290000    -4.3391640000     2.4186570000
   20      H       0.7352860000    -0.8099360000     0.4383450000
   21      I       0.7129270000    -5.0259670000     3.5375840000
   22      H       8.5211390000    -0.7101950000    -1.2800220000
   23      H       7.0690680000     1.0818410000    -2.2872720000
   24      H      -0.3034350000    -2.5321160000     1.9216110000
 ----------------------------------------------------------------

   18   -7607.8485721287      6.81e-09  Convergence criterion met
 Total energy in the final basis set =    -7608.1290464004

                    Orbital Energies (a.u.)
 --------------------------------------------------------------

 Alpha MOs
 -- Occupied --
********-176.3108-165.7144-165.7126-165.7126 -35.8070 -31.2995 -31.2946
-31.2944 -22.9503 -22.9491 -22.9490 -22.9456 -22.9456 -19.0374 -19.0360
-10.2237 -10.1974 -10.1961 -10.1878 -10.1848 -10.1824 -10.1791 -10.1785
-10.1743 -10.1739 -10.1652 -10.1635 -10.1632 -10.1630  -6.3559  -4.7662
 -4.7543  -4.7538  -2.0318  -2.0283  -2.0278  -2.0176  -2.0175  -0.9548
 -0.9515  -0.8619  -0.8494  -0.7832  -0.7611  -0.7490  -0.7380  -0.6757
 -0.6570  -0.6320  -0.6057  -0.5887  -0.5533  -0.5341  -0.5135  -0.4701
 -0.4655  -0.4539  -0.4436  -0.4305  -0.4241  -0.4067  -0.4011  -0.3925
 -0.3784  -0.3741  -0.3691  -0.3483  -0.3432  -0.3364  -0.3332  -0.3226
 -0.2888  -0.2801  -0.2626  -0.2499  -0.2421  -0.2381  -0.2164  -0.2101
 -0.1271

          Ground-State Mulliken Net Atomic Charges

     Atom                 Charge (a.u.)
  ----------------------------------------
      1 C                    -0.019660
      2 C                     1.821084
      3 C                     1.750523
      4 C                     0.134979
      5 C                    -1.104759
      6 C                    -1.217102
      7 C                    -2.249974
      8 C                    -1.836247
      9 C                    -1.299985
     10 C                    -2.422199
     11 C                    -0.245349
     12 C                     1.983838
     13 C                     1.511971
     14 C                    -0.029495
     15 O                    -0.332868
     16 O                    -0.312780
     17 H                     0.132745
     18 H                     0.141108
     19 H                     0.052647
     20 H                     0.158631
     21 I                     0.174685
     22 H                     0.418627
     23 H                     0.421481
     24 H                     0.368100
  ----------------------------------------
  Sum of atomic charges =    -2.000000

                    Cartesian Multipole Moments
 -----------------------------------------------------------------
    Charge (ESU x 10^10)
                -9.6064
    Dipole Moment (Debye)
         X     -37.0240      Y      18.2466      Z      -5.5524
       Tot      41.6478
    Quadrupole Moments (Debye-Ang)
        XX    -315.4007     XY      72.9914     YY    -204.8444
        XZ     -15.5895     YZ      35.0962     ZZ    -158.3787

 Total job time:  612.32s(wall), 4595.04s(cpu)
        *  Thank you very much for using Q-Chem.  Have a nice day.  *
