 Q-Chem 5.4, Q-Chem, Inc., Pleasanton, CA (2021)
 Q-Chem 5.4.0 for Intel X86 EM64T Linux

User input:
--------------------------------------------------------------
$molecule
0 1
C                 -2.2584920000     -2.2169530000      5.0088080000
C                 -1.2824720000     -3.2329270000      4.5138500000
C                 -1.2504470000     -3.4481980000      3.1856690000
C                 -2.1163820000     -2.7482350000      2.1912630000
C                 -3.0577130000     -1.7655130000      2.6734900000
C                 -3.1386560000     -1.4848470000      4.0065260000
O                 -2.3895300000     -1.9395190000      6.1911290000
O                 -1.9961870000     -3.0368420000      1.0011370000
N                 -3.9450620000     -0.5757030000      4.5923210000
C                 -4.9253390000      0.2660050000      3.9105010000
C                 -6.2227860000     -0.5011670000      3.6127780000
C                 -5.1796560000      1.5162840000      4.7542810000
H                 -3.6779860000     -1.2775680000      1.9331240000
H                 -3.8754190000     -0.5366950000      5.6023990000
H                 -4.4754630000      0.5768220000      2.9607990000
H                 -6.9093160000      0.1214230000      3.0324380000
H                 -6.7212990000     -0.7855080000      4.5439610000
H                 -6.0234690000     -1.4102200000      3.0418530000
H                 -5.8954590000      2.1722170000      4.2543720000
H                 -4.2560590000      2.0763250000      4.9176490000
H                 -5.5995320000      1.2486770000      5.7297150000
C                 -0.3851010000     -3.9662480000      5.5202410000
C                 -1.2572970000     -4.7611530000      6.5232070000
C                  0.5483790000     -4.9627180000      4.8081680000
C                  0.4964430000     -2.9457350000      6.2818120000
H                 -0.5761300000     -4.1656670000      2.7359360000
H                 -1.9000490000     -4.1046930000      7.1080440000
H                 -0.6103210000     -5.3109040000      7.2131780000
H                 -1.8839300000     -5.4900040000      6.0006650000
H                  1.1717470000     -5.4636710000      5.5529200000
H                  1.2165990000     -4.4649290000      4.1000720000
H                 -0.0087770000     -5.7354200000      4.2713340000
H                 -0.1044660000     -2.2466330000      6.8617510000
H                  1.1217300000     -2.3772580000      5.5869760000
H                  1.1603750000     -3.4784550000      6.9690150000
$end
$rem
MAX_SCF_CYCLES=200
BASIS  =  6-311++G(d,p)
GUI  =  2
JOB_TYPE  =  SP
METHOD  =  B3LYP
SOLVENT_METHOD = COSMO
$end
$solvent
dielectric 37.219
opticaldielectric 1.43
$end

--------------------------------------------------------------

             Standard Nuclear Orientation (Angstroms)
    I     Atom           X                Y                Z
 ----------------------------------------------------------------
    1      C      -0.2468084425    -0.6146149844    -0.0132555243
    2      C      -1.5264976585     0.1549220815    -0.0163933124
    3      C      -1.4291979087     1.4955450065    -0.0849126856
    4      C      -0.1433465134     2.2507332854    -0.1549967137
    5      C       1.0917609070     1.5031396734    -0.1532903325
    6      C       1.0719012626     0.1397367120    -0.0980806471
    7      O      -0.2023673456    -1.8333671411     0.0552404483
    8      O      -0.1855307932     3.4793150113    -0.2092937093
    9      N       2.1397492367    -0.6844348778    -0.1188442296
   10      C       3.5403235653    -0.2715891460    -0.1662131882
   11      C       4.0551786635     0.1489932436     1.2189204738
   12      C       4.3728677167    -1.4055078186    -0.7669944153
   13      H       2.0096077334     2.0745610819    -0.1980732390
   14      H       1.9157379958    -1.6694726264    -0.0404290820
   15      H       3.5973748374     0.5916124422    -0.8389372639
   16      H       5.0777034278     0.5296474693     1.1462449513
   17      H       4.0546996488    -0.7048183829     1.9026399133
   18      H       3.4309078931     0.9328194139     1.6524669176
   19      H       5.4227729144    -1.1121698211    -0.8316700574
   20      H       4.0249219071    -1.6612581140    -1.7704344700
   21      H       4.3167375414    -2.3029199510    -0.1417890744
   22      C      -2.8594548660    -0.6023783748     0.0582950236
   23      C      -2.9304027278    -1.4168523392     1.3736425749
   24      C      -4.0526283200     0.3708957202     0.0368480380
   25      C      -2.9951060435    -1.5519912637    -1.1575960548
   26      H      -2.3022637814     2.1354097244    -0.0922664881
   27      H      -2.1466204448    -2.1713300656     1.4241685563
   28      H      -3.8980938601    -1.9232045041     1.4372463893
   29      H      -2.8398935339    -0.7592153524     2.2432772787
   30      H      -4.9820491609    -0.2014619822     0.0895801348
   31      H      -4.0822430216     0.9636596456    -0.8815558494
   32      H      -4.0388520035     1.0560648823     0.8889251267
   33      H      -2.2134727885    -2.3103634253    -1.1668478474
   34      H      -2.9498968630    -0.9911879662    -2.0958938701
   35      H      -3.9636757957    -2.0591020599    -1.1181557506
 ----------------------------------------------------------------

    9    -712.2226908405      6.36e-06  Convergence criterion met
 Total energy in the final basis set =     -712.2226908405
    5    -712.2384803172      5.31e-06  Convergence criterion met
 Total energy in the final basis set =     -712.2384803172

                    Orbital Energies (a.u.)
 --------------------------------------------------------------

 Alpha MOs
 -- Occupied --
-19.1465 -19.1167 -14.3518 -10.2935 -10.2659 -10.2478 -10.2215 -10.2108
-10.2005 -10.1993 -10.1727 -10.1646 -10.1622 -10.1583 -10.1568 -10.1568
 -1.0820  -1.0477  -0.9635  -0.8600  -0.8205  -0.7887  -0.7526  -0.6998
 -0.6949  -0.6871  -0.6845  -0.6447  -0.6105  -0.6009  -0.5487  -0.5341
 -0.5191  -0.5008  -0.4794  -0.4706  -0.4611  -0.4511  -0.4470  -0.4409
 -0.4354  -0.4255  -0.4136  -0.4121  -0.4065  -0.3927  -0.3873  -0.3829
 -0.3802  -0.3688  -0.3642  -0.3561  -0.3509  -0.3404  -0.3360  -0.3312
 -0.2923  -0.2871  -0.2696  -0.2315

          Ground-State Mulliken Net Atomic Charges

     Atom                 Charge (a.u.)
  ----------------------------------------
      1 C                    -1.458791
      2 C                     1.206981
      3 C                    -0.482191
      4 C                    -0.442717
      5 C                     0.992991
      6 C                    -0.252465
      7 O                    -0.235385
      8 O                    -0.397258
      9 N                    -0.024458
     10 C                    -0.046691
     11 C                    -0.493884
     12 C                    -0.565638
     13 H                     0.249578
     14 H                     0.374778
     15 H                     0.175755
     16 H                     0.161277
     17 H                     0.171132
     18 H                     0.152217
     19 H                     0.179192
     20 H                     0.166477
     21 H                     0.159279
     22 C                     0.530057
     23 C                    -0.690886
     24 C                    -0.485206
     25 C                    -0.700106
     26 H                     0.247776
     27 H                     0.184941
     28 H                     0.169967
     29 H                     0.155921
     30 H                     0.189630
     31 H                     0.148671
     32 H                     0.148870
     33 H                     0.182358
     34 H                     0.157252
     35 H                     0.170577
  ----------------------------------------
  Sum of atomic charges =     0.000000

                    Cartesian Multipole Moments
 -----------------------------------------------------------------
    Charge (ESU x 10^10)
                -0.0000
    Dipole Moment (Debye)
         X       2.3703      Y      -4.8903      Z       0.1588
       Tot       5.4368
    Quadrupole Moments (Debye-Ang)
        XX     -74.1329     XY      -2.2278     YY    -124.8497
        XZ      -0.8018     YZ       1.5553     ZZ     -99.0270

 Total job time:  72.25s(wall), 550.23s(cpu)
        *  Thank you very much for using Q-Chem.  Have a nice day.  *
