 Gaussian 16, Revision A.03,
 Gaussian 16:  ES64L-G16RevA.03 25-Dec-2016

 --------------------------------------
 #P UB3LYP/6-311++G(d,p) nosym opt freq
 --------------------------------------

 -------
 Reduced
 -------
 Symbolic Z-matrix:
 Charge = -2 Multiplicity = 1

 SCF Done:  E(UB3LYP) =  -1431.94111214     A.U. after   45 cycles
 SCF Done:  E(UB3LYP) =  -1431.96662089     A.U. after   25 cycles
 SCF Done:  E(UB3LYP) =  -1431.94127809     A.U. after   18 cycles
 SCF Done:  E(UB3LYP) =  -1431.96266364     A.U. after   19 cycles
 SCF Done:  E(UB3LYP) =  -1431.97269349     A.U. after   17 cycles
 SCF Done:  E(UB3LYP) =  -1431.97566496     A.U. after   19 cycles
 SCF Done:  E(UB3LYP) =  -1431.97577636     A.U. after   17 cycles
 SCF Done:  E(UB3LYP) =  -1431.97823024     A.U. after   20 cycles
 SCF Done:  E(UB3LYP) =  -1431.97964753     A.U. after   17 cycles
 SCF Done:  E(UB3LYP) =  -1431.98101150     A.U. after   18 cycles
 SCF Done:  E(UB3LYP) =  -1431.98405820     A.U. after   13 cycles
 SCF Done:  E(UB3LYP) =  -1431.98406859     A.U. after   13 cycles
 SCF Done:  E(UB3LYP) =  -1431.98406980     A.U. after   13 cycles
 SCF Done:  E(UB3LYP) =  -1431.98407089     A.U. after   12 cycles
 SCF Done:  E(UB3LYP) =  -1431.98407224     A.U. after   13 cycles
 SCF Done:  E(UB3LYP) =  -1431.98407349     A.U. after   13 cycles
 SCF Done:  E(UB3LYP) =  -1431.98407400     A.U. after   13 cycles
 SCF Done:  E(UB3LYP) =  -1431.98407451     A.U. after   12 cycles
 SCF Done:  E(UB3LYP) =  -1431.98407466     A.U. after   11 cycles
 Optimization completed.
    -- Stationary point found.
 Normal termination of Gaussian 16 at Wed Dec 20 09:40:24 2023.

 ----------------------------------------------------------------------
 #P Geom=AllCheck Guess=TCheck SCRF=Check GenChk UB3LYP/6-311++G(d,p) F
 req
 ----------------------------------------------------------------------

 Structure from the checkpoint file:  "068-an.chk"
 -------
 Reduced
 -------
 Charge = -2 Multiplicity = 1

                          Input orientation:
 ---------------------------------------------------------------------
 Center     Atomic      Atomic             Coordinates (Angstroms)
 Number     Number       Type             X           Y           Z
 ---------------------------------------------------------------------
      1          6           0       -0.292152    1.792854   -1.244428
      2          6           0       -1.255404    1.673967   -0.149653
      3          6           0       -1.029084    0.949513    0.971132
      4          6           0        0.168728    0.148819    1.195678
      5          6           0        1.150914    0.166949    0.129003
      6          6           0        0.936826    1.114860   -0.988281
      7          8           0       -0.595016    2.474395   -2.268089
      8          8           0        0.207418   -0.541028    2.271091
      9         16           0        2.253167    1.721140   -2.042644
     10          6           0        3.826409    1.478495   -1.123715
     11          6           0        4.004686    2.087270    0.115683
     12          6           0        4.886064    0.840955   -1.759354
     13          6           0        6.143538    0.825157   -1.156858
     14          6           0        5.259961    2.052664    0.725463
     15          6           0        6.333566    1.428664    0.088824
     16          8           0        2.206492    3.207183   -2.099732
     17          8           0        2.434567    1.048806   -3.350974
     18          1           0       -2.179906    2.233590   -0.285539
     19          1           0       -1.766247    0.897433    1.770437
     20          1           0        3.166765    2.581301    0.591698
     21          1           0        4.695630    0.358465   -2.709871
     22          1           0        6.972654    0.325940   -1.650918
     23          1           0        5.397316    2.512584    1.699811
     24          1           0        7.310043    1.403606    0.564804
     25          6           0        2.161772   -0.871509   -0.046841
     26          8           0        2.692048   -1.021730   -1.163836
     27          6           0        2.674495   -1.864262    1.064876
     28          6           0        3.071585   -1.131993    2.362557
     29          6           0        1.607260   -2.947539    1.336353
     30          6           0        3.935788   -2.575756    0.527985
     31          1           0        2.207933   -0.623013    2.790129
     32          1           0        3.870117   -0.410177    2.160992
     33          1           0        3.452960   -1.859170    3.095353
     34          1           0        0.701347   -2.496580    1.742498
     35          1           0        1.994305   -3.679500    2.060882
     36          1           0        1.374002   -3.483504    0.408869
     37          1           0        4.731146   -1.861792    0.300255
     38          1           0        3.723665   -3.129288   -0.388555
     39          1           0        4.301853   -3.275759    1.291703
 ---------------------------------------------------------------------

 SCF Done:  E(UB3LYP) =  -1431.98407466     A.U. after    2 cycles

 Alpha  occ. eigenvalues --  -88.79026 -18.85089 -18.84464 -18.83997 -18.81314
 Alpha  occ. eigenvalues --  -18.79366  -9.99705  -9.99157  -9.98779  -9.98774
 Alpha  occ. eigenvalues --   -9.98706  -9.97940  -9.97739  -9.97735  -9.96479
 Alpha  occ. eigenvalues --   -9.96327  -9.94326  -9.93732  -9.93217  -9.92826
 Alpha  occ. eigenvalues --   -9.92546  -9.92456  -9.92316  -7.85277  -5.81538
 Alpha  occ. eigenvalues --   -5.81516  -5.81354  -0.83698  -0.77288  -0.73531
 Alpha  occ. eigenvalues --   -0.72937  -0.71820  -0.66545  -0.58727  -0.57188
 Alpha  occ. eigenvalues --   -0.56094  -0.55607  -0.51169  -0.46947  -0.46595
 Alpha  occ. eigenvalues --   -0.45877  -0.42786  -0.41537  -0.39673  -0.37803
 Alpha  occ. eigenvalues --   -0.35152  -0.33260  -0.30783  -0.26809  -0.26688
 Alpha  occ. eigenvalues --   -0.26288  -0.24747  -0.24149  -0.23328  -0.23063
 Alpha  occ. eigenvalues --   -0.22243  -0.22006  -0.20672  -0.20157  -0.19349
 Alpha  occ. eigenvalues --   -0.18499  -0.18097  -0.17619  -0.16986  -0.16626
 Alpha  occ. eigenvalues --   -0.15498  -0.15327  -0.15100  -0.14019  -0.13270
 Alpha  occ. eigenvalues --   -0.12770  -0.12454  -0.11501  -0.10477  -0.09749
 Alpha  occ. eigenvalues --   -0.09599  -0.07405  -0.06819  -0.06181  -0.05299
 Alpha  occ. eigenvalues --   -0.04117  -0.03497  -0.01317  -0.00178   0.00863
 Alpha  occ. eigenvalues --    0.01891   0.03544   0.09011
 Alpha virt. eigenvalues --    0.13691   0.15549   0.15681   0.17160   0.17279
 Alpha virt. eigenvalues --    0.17485   0.17696   0.17933   0.18248   0.19220
 Alpha virt. eigenvalues --    0.19704   0.20110   0.20687   0.21377   0.21759

  Beta  occ. eigenvalues --  -88.79026 -18.85089 -18.84464 -18.83997 -18.81314
  Beta  occ. eigenvalues --  -18.79366  -9.99705  -9.99157  -9.98779  -9.98774
  Beta  occ. eigenvalues --   -9.98706  -9.97940  -9.97739  -9.97735  -9.96479
  Beta  occ. eigenvalues --   -9.96327  -9.94326  -9.93732  -9.93217  -9.92826
  Beta  occ. eigenvalues --   -9.92546  -9.92456  -9.92316  -7.85277  -5.81538
  Beta  occ. eigenvalues --   -5.81516  -5.81354  -0.83698  -0.77288  -0.73531
  Beta  occ. eigenvalues --   -0.72937  -0.71820  -0.66545  -0.58727  -0.57188
  Beta  occ. eigenvalues --   -0.56094  -0.55607  -0.51169  -0.46947  -0.46595
  Beta  occ. eigenvalues --   -0.45877  -0.42786  -0.41537  -0.39673  -0.37803
  Beta  occ. eigenvalues --   -0.35152  -0.33260  -0.30783  -0.26809  -0.26688
  Beta  occ. eigenvalues --   -0.26288  -0.24747  -0.24149  -0.23328  -0.23063
  Beta  occ. eigenvalues --   -0.22243  -0.22006  -0.20672  -0.20157  -0.19349
  Beta  occ. eigenvalues --   -0.18499  -0.18097  -0.17619  -0.16986  -0.16626
  Beta  occ. eigenvalues --   -0.15498  -0.15327  -0.15100  -0.14019  -0.13270
  Beta  occ. eigenvalues --   -0.12770  -0.12454  -0.11501  -0.10477  -0.09749
  Beta  occ. eigenvalues --   -0.09599  -0.07405  -0.06819  -0.06181  -0.05299
  Beta  occ. eigenvalues --   -0.04117  -0.03497  -0.01317  -0.00178   0.00863
  Beta  occ. eigenvalues --    0.01891   0.03544   0.09011
  Beta virt. eigenvalues --    0.13691   0.15549   0.15681   0.17160   0.17279
  Beta virt. eigenvalues --    0.17485   0.17696   0.17933   0.18248   0.19220
  Beta virt. eigenvalues --    0.19704   0.20110   0.20687   0.21377   0.21759

 Mulliken charges and spin densities:
               1          2
     1  C   -0.828641   0.000000
     2  C    0.048617   0.000000
     3  C   -0.176575  -0.000000
     4  C   -0.956630   0.000000
     5  C    1.032058  -0.000000
     6  C   -0.143184  -0.000000
     7  O   -0.396725  -0.000000
     8  O   -0.393054  -0.000000
     9  S    0.976156  -0.000000
    10  C   -0.269266   0.000000
    11  C   -0.145823  -0.000000
    12  C    0.021959   0.000000
    13  C   -0.464336  -0.000000
    14  C   -0.396510  -0.000000
    15  C   -0.352929   0.000000
    16  O   -0.116999  -0.000000
    17  O   -0.201591  -0.000000
    18  H    0.120152  -0.000000
    19  H    0.114592  -0.000000
    20  H    0.207426  -0.000000
    21  H    0.234887  -0.000000
    22  H    0.134038  -0.000000
    23  H    0.145021  -0.000000
    24  H    0.103414  -0.000000
    25  C   -0.211173   0.000000
    26  O   -0.208600  -0.000000
    27  C    0.867951  -0.000000
    28  C   -0.568674  -0.000000
    29  C   -0.741828   0.000000
    30  C   -0.699449   0.000000
    31  H    0.225637  -0.000000
    32  H    0.151097   0.000000
    33  H    0.085103  -0.000000
    34  H    0.205717  -0.000000
    35  H    0.088999  -0.000000
    36  H    0.122948   0.000000
    37  H    0.137700   0.000000
    38  H    0.150900  -0.000000
    39  H    0.097616  -0.000000
 Sum of Mulliken charges =  -2.00000   0.00000

 Dipole moment (field-independent basis, Debye):
    X=            -12.7833    Y=             -8.1063    Z=              8.3717  Tot=             17.2977
 Quadrupole moment (field-independent basis, Debye-Ang):
   XX=           -205.1802   YY=           -200.4981   ZZ=           -209.7580
   XY=             -3.8336   XZ=             14.8664   YZ=             36.4180

  Exact polarizability: 349.754 -34.177 236.516 -11.879 -26.948 255.146
 Approx polarizability: 539.947 -78.222 369.882 -45.180  -8.738 460.678

                      1                      2                      3
                      A                      A                      A
 Frequencies --     24.4531                42.0490                43.4612
 Red. masses --      4.4970                 4.7297                 6.3800
 Frc consts  --      0.0016                 0.0049                 0.0071
 IR Inten    --      1.4963                 0.7116                 1.2145

                      4                      5                      6
                      A                      A                      A
 Frequencies --     57.6574                85.1204                96.4465
 Red. masses --      4.1416                 4.8392                 6.8366
 Frc consts  --      0.0081                 0.0207                 0.0375
 IR Inten    --      0.5659                 0.5792                 6.0707

                      7                      8                      9
                      A                      A                      A
 Frequencies --    121.9133               140.0558               163.5034
 Red. masses --      5.2696                 5.4354                 8.2492
 Frc consts  --      0.0461                 0.0628                 0.1299
 IR Inten    --      1.4644                 0.7533                 9.0652

                     10                     11                     12
                      A                      A                      A
 Frequencies --    180.3499               198.4001               212.7476
 Red. masses --      5.6081                 4.9889                 5.7265
 Frc consts  --      0.1075                 0.1157                 0.1527
 IR Inten    --      1.0674                 2.2740                 5.4179

                     13                     14                     15
                      A                      A                      A
 Frequencies --    222.2643               225.8298               254.6892
 Red. masses --      1.8885                 1.7041                 5.8243
 Frc consts  --      0.0550                 0.0512                 0.2226
 IR Inten    --      0.9725                 1.9739                 0.4837

                     16                     17                     18
                      A                      A                      A
 Frequencies --    259.5323               271.7779               293.4893
 Red. masses --      2.4813                 1.1897                 1.2765
 Frc consts  --      0.0985                 0.0518                 0.0648
 IR Inten    --      9.9800                 1.8907                 1.0872

                     19                     20                     21
                      A                      A                      A
 Frequencies --    301.7245               305.3341               309.4646
 Red. masses --      5.6275                 5.1745                 5.7110
 Frc consts  --      0.3018                 0.2842                 0.3222
 IR Inten    --      0.8016                 4.1671                 2.7458

                     22                     23                     24
                      A                      A                      A
 Frequencies --    327.8722               356.4284               380.4616
 Red. masses --      5.9793                 3.1902                 4.5421
 Frc consts  --      0.3787                 0.2388                 0.3874
 IR Inten    --      1.8900                 0.6509                 7.0211

                     25                     26                     27
                      A                      A                      A
 Frequencies --    396.0941               409.4950               410.6675
 Red. masses --      3.4624                 3.3012                 2.8815
 Frc consts  --      0.3201                 0.3261                 0.2863
 IR Inten    --      1.3600                 0.7933                 0.0412

                     28                     29                     30
                      A                      A                      A
 Frequencies --    437.0503               469.6915               473.4760
 Red. masses --      7.8510                 4.7351                 5.8106
 Frc consts  --      0.8836                 0.6155                 0.7675
 IR Inten    --     45.5209                 3.7030                 1.6911

                     31                     32                     33
                      A                      A                      A
 Frequencies --    489.4136               497.8801               542.2319
 Red. masses --      5.9229                 6.4851                 6.5952
 Frc consts  --      0.8359                 0.9471                 1.1425
 IR Inten    --     13.0244                17.5376                34.8957

                     34                     35                     36
                      A                      A                      A
 Frequencies --    559.8257               602.4281               606.8811
 Red. masses --      4.3371                 5.2216                 2.7048
 Frc consts  --      0.8009                 1.1165                 0.5869
 IR Inten    --     49.1414                72.0318                10.2301

                     37                     38                     39
                      A                      A                      A
 Frequencies --    628.6900               642.1304               692.7949
 Red. masses --      6.4014                 4.9720                 4.3667
 Frc consts  --      1.4907                 1.2079                 1.2349
 IR Inten    --      0.5613                19.2760                19.1730

                     40                     41                     42
                      A                      A                      A
 Frequencies --    696.7795               715.8855               737.2900
 Red. masses --      2.0059                 7.4368                 6.4015
 Frc consts  --      0.5738                 2.2456                 2.0502
 IR Inten    --     40.1487                51.8821                 6.5688

                     43                     44                     45
                      A                      A                      A
 Frequencies --    749.5030               782.7139               798.5788
 Red. masses --      2.0560                 7.1140                 4.6211
 Frc consts  --      0.6805                 2.5679                 1.7363
 IR Inten    --     16.6113                15.0087                25.1259

                     46                     47                     48
                      A                      A                      A
 Frequencies --    837.5741               838.6489               853.3653
 Red. masses --      1.2752                 2.4104                 3.3114
 Frc consts  --      0.5271                 0.9989                 1.4208
 IR Inten    --      2.7478                42.3459                61.0403

                     49                     50                     51
                      A                      A                      A
 Frequencies --    874.6079               911.0789               929.8247
 Red. masses --      7.0477                 1.4188                 1.7358
 Frc consts  --      3.1763                 0.6939                 0.8842
 IR Inten    --     50.3115                 3.5379                 5.9320

                     52                     53                     54
                      A                      A                      A
 Frequencies --    939.4667               961.4936               969.8885
 Red. masses --      1.7123                 1.2119                 1.3022
 Frc consts  --      0.8904                 0.6601                 0.7217
 IR Inten    --      0.2415                 0.9905                 0.5231

                     55                     56                     57
                      A                      A                      A
 Frequencies --    970.4609               978.9615              1009.6101
 Red. masses --      1.3028                 1.3335                 6.7202
 Frc consts  --      0.7229                 0.7530                 4.0359
 IR Inten    --      0.8282                 0.6017                61.7113

                     58                     59                     60
                      A                      A                      A
 Frequencies --   1021.5529              1033.7313              1041.9145
 Red. masses --      6.8827                 1.8131                 2.7673
 Frc consts  --      4.2318                 1.1415                 1.7700
 IR Inten    --    114.6516                31.6831                22.6828

                     61                     62                     63
                      A                      A                      A
 Frequencies --   1047.7638              1058.0090              1082.8933
 Red. masses --      1.5538                 2.6202                 1.6993
 Frc consts  --      1.0050                 1.7281                 1.1740
 IR Inten    --     12.2874                44.3449                16.8204

                     64                     65                     66
                      A                      A                      A
 Frequencies --   1086.0293              1095.6892              1161.2887
 Red. masses --      1.9827                 2.7086                 1.7163
 Frc consts  --      1.3778                 1.9159                 1.3637
 IR Inten    --     11.9712                19.5084               165.2688

                     67                     68                     69
                      A                      A                      A
 Frequencies --   1165.7989              1173.7524              1186.4911
 Red. masses --      1.1351                 6.3651                 1.2637
 Frc consts  --      0.9090                 5.1666                 1.0481
 IR Inten    --      7.2704               160.4358                25.2297

                     70                     71                     72
                      A                      A                      A
 Frequencies --   1215.1427              1220.7889              1237.8112
 Red. masses --      4.4057                 3.3074                 2.5478
 Frc consts  --      3.8328                 2.9041                 2.3000
 IR Inten    --     30.1772                21.6181                16.6220

                     73                     74                     75
                      A                      A                      A
 Frequencies --   1241.7345              1282.6207              1325.7828
 Red. masses --      3.2893                 3.7595                 1.7422
 Frc consts  --      2.9882                 3.6440                 1.8042
 IR Inten    --     46.9567                30.7931                 0.2889

                     76                     77                     78
                      A                      A                      A
 Frequencies --   1338.2048              1340.4444              1362.1486
 Red. masses --      2.5542                 3.2062                 1.2211
 Frc consts  --      2.6950                 3.3942                 1.3349
 IR Inten    --    107.5862                 6.7379                16.7001

                     79                     80                     81
                      A                      A                      A
 Frequencies --   1370.9434              1399.9027              1415.7731
 Red. masses --      1.2979                 1.3234                 3.7385
 Frc consts  --      1.4373                 1.5281                 4.4150
 IR Inten    --     41.8756                63.1489                99.2098

                     82                     83                     84
                      A                      A                      A
 Frequencies --   1462.2315              1463.8649              1473.9605
 Red. masses --      1.1048                 1.9513                 1.7259
 Frc consts  --      1.3918                 2.4636                 2.2092
 IR Inten    --      2.9269                17.7882               137.9776

                     85                     86                     87
                      A                      A                      A
 Frequencies --   1477.8712              1486.1042              1500.1540
 Red. masses --      1.0572                 1.1976                 1.8144
 Frc consts  --      1.3605                 1.5583                 2.4058
 IR Inten    --      3.6501                24.3004                21.7405

                     88                     89                     90
                      A                      A                      A
 Frequencies --   1501.5398              1518.1131              1520.6118
 Red. masses --      2.0511                 1.0811                 4.7337
 Frc consts  --      2.7247                 1.4679                 6.4490
 IR Inten    --      7.7324                24.7717               656.1714

                     91                     92                     93
                      A                      A                      A
 Frequencies --   1533.1482              1567.7173              1611.3717
 Red. masses --      1.0696                10.9489                 5.3905
 Frc consts  --      1.4813                15.8546                 8.2465
 IR Inten    --     39.7059               353.4288                 5.7555

                     94                     95                     96
                      A                      A                      A
 Frequencies --   1617.3102              1637.9549              2960.1876
 Red. masses --      5.9853                 7.0323                 1.0496
 Frc consts  --      9.2241                11.1161                 5.4189
 IR Inten    --     14.7995               110.7892                52.1049

                     97                     98                     99
                      A                      A                      A
 Frequencies --   2965.7120              2989.3672              3029.3165
 Red. masses --      1.0488                 1.0491                 1.0893
 Frc consts  --      5.4352                 5.5237                 5.8894
 IR Inten    --    161.4287               225.8750                52.3759

                    100                    101                    102
                      A                      A                      A
 Frequencies --   3041.2252              3067.9506              3098.2450
 Red. masses --      1.0840                 1.0838                 1.1009
 Frc consts  --      5.9074                 6.0101                 6.2263
 IR Inten    --     30.3841                37.3998                34.1717

                    103                    104                    105
                      A                      A                      A
 Frequencies --   3099.2061              3103.0101              3108.7291
 Red. masses --      1.0836                 1.0983                 1.0994
 Frc consts  --      6.1323                 6.2307                 6.2600
 IR Inten    --     33.7960                10.0968                 9.2103

                    106                    107                    108
                      A                      A                      A
 Frequencies --   3123.7137              3127.7001              3140.0941
 Red. masses --      1.0834                 1.0954                 1.0892
 Frc consts  --      6.2283                 6.3136                 6.3277
 IR Inten    --      3.5611               125.6275                53.3542

                    109                    110                    111
                      A                      A                      A
 Frequencies --   3154.8015              3195.2785              3198.8321
 Red. masses --      1.0951                 1.0923                 1.0917
 Frc consts  --      6.4214                 6.5704                 6.5819
 IR Inten    --     79.7903                 3.7488                 6.6479

 - Thermochemistry -
 -------------------
 Temperature   298.150 Kelvin.  Pressure   1.00000 Atm.
 Atom     1 has atomic number  6 and mass  12.00000

 Molecular mass:   332.07185 amu.
 Principal axes and moments of inertia in atomic units:
                           1         2         3
     Eigenvalues --  6019.516026469.102829980.71621
           X            0.99626   0.01446   0.08515
           Y           -0.06826   0.73585   0.67370
           Z           -0.05292  -0.67699   0.73408
 This molecule is an asymmetric top.
 Rotational symmetry number  1.
 Warning -- assumption of classical behavior for rotation
           may cause significant error
 Rotational temperatures (Kelvin)      0.01439     0.01339     0.00868
 Rotational constants (GHZ):           0.29982     0.27898     0.18082
 Zero-point vibrational energy     765436.8 (Joules/Mol)
                                  182.94379 (Kcal/Mol)
 Warning -- explicit consideration of  36 degrees of freedom as
           vibrations may cause significant error
 Vibrational temperatures:     35.18    60.50    62.53    82.96   122.47
          (Kelvin)            138.77   175.41   201.51   235.24   259.48
                              285.45   306.10   319.79   324.92   366.44
                              373.41   391.03   422.27   434.11   439.31
                              445.25   471.73   512.82   547.40   569.89
                              589.17   590.86   628.82   675.78   681.23
                              704.16   716.34   780.15   805.46   866.76
                              873.17   904.54   923.88   996.78  1002.51
                             1030.00  1060.80  1078.37  1126.15  1148.98
                             1205.08  1206.63  1227.80  1258.37  1310.84
                             1337.81  1351.68  1383.37  1395.45  1396.28
                             1408.51  1452.60  1469.79  1487.31  1499.08
                             1507.50  1522.24  1558.04  1562.55  1576.45
                             1670.84  1677.32  1688.77  1707.10  1748.32
                             1756.44  1780.93  1786.58  1845.41  1907.51
                             1925.38  1928.60  1959.83  1972.48  2014.15
                             2036.98  2103.82  2106.18  2120.70  2126.33
                             2138.17  2158.39  2160.38  2184.23  2187.82
                             2205.86  2255.60  2318.40  2326.95  2356.65
                             4259.05  4267.00  4301.03  4358.51  4375.64
                             4414.10  4457.68  4459.07  4464.54  4472.77
                             4494.33  4500.06  4517.90  4539.06  4597.29
                             4602.41

 Zero-point correction=                           0.291539 (Hartree/Particle)
 Thermal correction to Energy=                    0.313071
 Thermal correction to Enthalpy=                  0.314015
 Thermal correction to Gibbs Free Energy=         0.241517
 Sum of electronic and zero-point Energies=          -1431.692535
 Sum of electronic and thermal Energies=             -1431.671004
 Sum of electronic and thermal Enthalpies=           -1431.670060
 Sum of electronic and thermal Free Energies=        -1431.742557

                     E (Thermal)             CV                S
                      KCal/Mol        Cal/Mol-Kelvin    Cal/Mol-Kelvin
 Total                  196.455             83.567            152.584
 Electronic               0.000              0.000              0.000
 Translational            0.889              2.981             43.296
 Rotational               0.889              2.981             34.318
 Vibrational            194.677             77.606             74.971
 Vibration     1          0.593              1.985              6.235
 Vibration     2          0.595              1.980              5.160
 Vibration     3          0.595              1.980              5.095
 Vibration     4          0.596              1.974              4.536
 Vibration     5          0.601              1.959              3.769
 Vibration     6          0.603              1.952              3.525
 Vibration     7          0.609              1.931              3.070
 Vibration     8          0.615              1.913              2.803
 Vibration     9          0.623              1.887              2.509
 Vibration    10          0.629              1.866              2.325
 Vibration    11          0.637              1.842              2.148
 Vibration    12          0.644              1.821              2.020
 Vibration    13          0.648              1.807              1.941
 Vibration    14          0.650              1.802              1.912
 Vibration    15          0.665              1.755              1.698
 Vibration    16          0.668              1.747              1.665
 Vibration    17          0.675              1.725              1.585
 Vibration    18          0.688              1.686              1.454
 Vibration    19          0.694              1.670              1.407
 Vibration    20          0.696              1.664              1.387
 Vibration    21          0.699              1.656              1.365
 Vibration    22          0.711              1.620              1.271
 Vibration    23          0.732              1.562              1.138
 Vibration    24          0.750              1.512              1.037
 Vibration    25          0.763              1.479              0.977
 Vibration    26          0.774              1.450              0.928
 Vibration    27          0.775              1.447              0.924
 Vibration    28          0.797              1.389              0.836
 Vibration    29          0.827              1.317              0.738
 Vibration    30          0.830              1.309              0.728
 Vibration    31          0.845              1.274              0.685
 Vibration    32          0.853              1.255              0.663
 Vibration    33          0.897              1.157              0.561
 Vibration    34          0.915              1.118              0.524
 Vibration    35          0.961              1.027              0.445
 Vibration    36          0.966              1.017              0.438

 Optimization completed.
    -- Stationary point found.
 Normal termination of Gaussian 16 at Wed Dec 20 13:03:26 2023.
