 Gaussian 16, Revision A.03,
 Gaussian 16:  ES64L-G16RevA.03 25-Dec-2016

 ----------------------------------------------------------------
 #P UB3LYP/6-311++G(d,p) SCRF=(PCM,Solvent=n,n-DiMethylFormamide)
 ----------------------------------------------------------------

 ------------------
 Quinone PCM in DMF
 ------------------
 Symbolic Z-matrix:
 Charge =  0 Multiplicity = 1

                         Standard orientation:
 ---------------------------------------------------------------------
 Center     Atomic      Atomic             Coordinates (Angstroms)
 Number     Number       Type             X           Y           Z
 ---------------------------------------------------------------------
      1          6           0       -2.634113    1.486261    0.000158
      2          6           0       -2.184365    2.802821    0.000184
      3          6           0       -0.814908    3.063668    0.000084
      4          6           0       -1.724175    0.428060    0.000047
      5          6           0       -0.338937    0.689668    0.000030
      6          6           0        0.103338    2.015848    0.000016
      7          6           0       -2.235376   -0.971797   -0.000160
      8          6           0       -1.181311   -2.116102   -0.000266
      9          6           0        0.221782   -1.735778    0.000207
     10          6           0        0.617613   -0.435749    0.000129
     11          8           0       -3.415535   -1.236447   -0.000392
     12          8           0       -1.556249   -3.272724   -0.000157
     13          8           0        1.900624   -0.029284    0.000193
     14          6           0        2.943163   -1.009487    0.000699
     15          6           0        4.284663   -0.345425    0.000067
     16          6           0        4.521980    0.961528   -0.000906
     17          1           0       -3.691900    1.252500    0.000186
     18          1           0       -2.895652    3.620512    0.000277
     19          1           0       -0.457279    4.087036    0.000099
     20          1           0        1.164359    2.222159   -0.000037
     21          1           0        0.927016   -2.555083    0.000417
     22          1           0        2.838553   -1.650578   -0.883902
     23          1           0        2.838784   -1.649371    0.886206
     24          1           0        5.113551   -1.049590    0.000466
     25          1           0        3.719204    1.687738   -0.001308
     26          1           0        5.536513    1.341223   -0.001281
 ---------------------------------------------------------------------

 SCF Done:  E(UB3LYP) =  -727.242002897     A.U. after   15 cycles

 The electronic state is 1-A.
 Alpha  occ. eigenvalues --  -19.19447 -19.14657 -19.13211 -10.28720 -10.28667
 Alpha  occ. eigenvalues --  -10.27870 -10.25013 -10.22128 -10.21110 -10.20270
 Alpha  occ. eigenvalues --  -10.20226 -10.20129 -10.19898 -10.19133 -10.19070
 Alpha  occ. eigenvalues --  -10.17404  -1.11216  -1.08682  -1.05698  -0.89865
 Alpha  occ. eigenvalues --   -0.84180  -0.80914  -0.78386  -0.76945  -0.72917
 Alpha  occ. eigenvalues --   -0.69332  -0.65176  -0.63081  -0.61450  -0.57217
 Alpha  occ. eigenvalues --   -0.56171  -0.54393  -0.52898  -0.50519  -0.49585
 Alpha  occ. eigenvalues --   -0.48215  -0.47282  -0.46567  -0.45932  -0.45755
 Alpha  occ. eigenvalues --   -0.45525  -0.43473  -0.43255  -0.40967  -0.40222
 Alpha  occ. eigenvalues --   -0.39142  -0.37773  -0.37337  -0.37075  -0.36438
 Alpha  occ. eigenvalues --   -0.31533  -0.30132  -0.28394  -0.27781  -0.26573
 Alpha  occ. eigenvalues --   -0.25779
 Alpha virt. eigenvalues --   -0.12741  -0.05836  -0.02602  -0.00950  -0.00818
 Alpha virt. eigenvalues --    0.00069   0.00760   0.01642   0.01796   0.01954
 Alpha virt. eigenvalues --    0.02942   0.03114   0.04122   0.04324   0.05111

  Beta  occ. eigenvalues --  -19.19447 -19.14657 -19.13211 -10.28720 -10.28667
  Beta  occ. eigenvalues --  -10.27870 -10.25013 -10.22128 -10.21110 -10.20270
  Beta  occ. eigenvalues --  -10.20226 -10.20129 -10.19898 -10.19133 -10.19070
  Beta  occ. eigenvalues --  -10.17404  -1.11216  -1.08682  -1.05698  -0.89865
  Beta  occ. eigenvalues --   -0.84180  -0.80914  -0.78386  -0.76945  -0.72917
  Beta  occ. eigenvalues --   -0.69332  -0.65176  -0.63081  -0.61450  -0.57217
  Beta  occ. eigenvalues --   -0.56171  -0.54393  -0.52898  -0.50519  -0.49585
  Beta  occ. eigenvalues --   -0.48215  -0.47282  -0.46567  -0.45932  -0.45755
  Beta  occ. eigenvalues --   -0.45525  -0.43473  -0.43255  -0.40967  -0.40222
  Beta  occ. eigenvalues --   -0.39142  -0.37773  -0.37337  -0.37075  -0.36438
  Beta  occ. eigenvalues --   -0.31533  -0.30132  -0.28394  -0.27781  -0.26573
  Beta  occ. eigenvalues --   -0.25779
  Beta virt. eigenvalues --   -0.12741  -0.05836  -0.02602  -0.00950  -0.00818
  Beta virt. eigenvalues --    0.00069   0.00760   0.01642   0.01796   0.01954
  Beta virt. eigenvalues --    0.02942   0.03114   0.04122   0.04324   0.05111

 Mulliken charges and spin densities:
               1          2
     1  C    0.138781  -0.000000
     2  C   -0.456155   0.000000
     3  C   -0.254870  -0.000000
     4  C    0.416145   0.000000
     5  C    0.297859   0.000000
     6  C   -0.116150  -0.000000
     7  C   -0.466718  -0.000000
     8  C   -0.093260   0.000000
     9  C    0.145376   0.000000
    10  C   -0.025851  -0.000000
    11  O   -0.272747  -0.000000
    12  O   -0.340309   0.000000
    13  O   -0.064096   0.000000
    14  C    0.100681  -0.000000
    15  C   -0.327166  -0.000000
    16  C   -0.603808  -0.000000
    17  H    0.194492  -0.000000
    18  H    0.204733   0.000000
    19  H    0.226201  -0.000000
    20  H    0.118645   0.000000
    21  H    0.253935   0.000000
    22  H    0.194061  -0.000000
    23  H    0.194267  -0.000000
    24  H    0.229546  -0.000000
    25  H    0.133882  -0.000000
    26  H    0.172527   0.000000
 Sum of Mulliken charges =  -0.00000   0.00000

 Dipole moment (field-independent basis, Debye):
    X=              6.9206    Y=              6.3729    Z=              0.0018  Tot=              9.4078
 Quadrupole moment (field-independent basis, Debye-Ang):
   XX=            -94.0132   YY=            -96.7279   ZZ=            -95.2596
   XY=            -24.0769   XZ=              0.0001   YZ=             -0.0047

 Normal termination of Gaussian 16 at Sat Jan 13 19:16:46 2024.
