 Gaussian 16, Revision A.03,
 Gaussian 16:  ES64L-G16RevA.03 25-Dec-2016

 --------------------------------------
 #P UB3LYP/6-311++G(d,p) nosym opt freq
 --------------------------------------

 --------
 Oxidized
 --------
 Symbolic Z-matrix:
 Charge =  0 Multiplicity = 1

 SCF Done:  E(UB3LYP) =  -727.225996858     A.U. after   16 cycles
 SCF Done:  E(UB3LYP) =  -727.225996908     A.U. after    9 cycles
 Optimization completed.
    -- Stationary point found.
 Normal termination of Gaussian 16 at Tue Jan  9 20:32:04 2024.

 ----------------------------------------------------------------------
 #P Geom=AllCheck Guess=TCheck SCRF=Check GenChk UB3LYP/6-311++G(d,p) F
 req
 ----------------------------------------------------------------------

 Structure from the checkpoint file:  "322.chk"
 --------
 Oxidized
 --------
 Charge =  0 Multiplicity = 1

                          Input orientation:
 ---------------------------------------------------------------------
 Center     Atomic      Atomic             Coordinates (Angstroms)
 Number     Number       Type             X           Y           Z
 ---------------------------------------------------------------------
      1          6           0       -1.665670    2.868752   -0.704998
      2          6           0       -2.853922    2.221799   -0.380788
      3          6           0       -2.824335    0.889111    0.027283
      4          6           0       -0.447433    2.192629   -0.624157
      5          6           0       -0.415330    0.844941   -0.211810
      6          6           0       -1.614487    0.203394    0.111917
      7          6           0        0.809186    2.911611   -0.977567
      8          6           0        2.141053    2.114532   -0.871346
      9          6           0        2.061263    0.729720   -0.436323
     10          6           0        0.877951    0.136332   -0.129045
     11          8           0        0.822514    4.066953   -1.335090
     12          8           0        3.189116    2.663874   -1.150879
     13          8           0        0.747906   -1.139833    0.278169
     14          6           0        1.917615   -1.954147    0.406078
     15          6           0        1.549040   -3.328927    0.869471
     16          6           0        0.326270   -3.774101    1.136113
     17          1           0       -1.657102    3.903640   -1.025140
     18          1           0       -3.796964    2.751927   -0.445453
     19          1           0       -3.746305    0.378671    0.281455
     20          1           0       -1.595668   -0.829862    0.428709
     21          1           0        3.004594    0.205471   -0.373821
     22          1           0        2.608156   -1.487305    1.119990
     23          1           0        2.430430   -2.006862   -0.562793
     24          1           0        2.405886   -3.989138    0.982787
     25          1           0       -0.546626   -3.142203    1.033218
     26          1           0        0.166754   -4.793005    1.467529
 ---------------------------------------------------------------------

 SCF Done:  E(UB3LYP) =  -727.225996908     A.U. after    1 cycles

 Alpha  occ. eigenvalues --  -19.19917 -19.13456 -19.12001 -10.28666 -10.27601
 Alpha  occ. eigenvalues --  -10.26791 -10.26474 -10.22425 -10.21174 -10.20840
 Alpha  occ. eigenvalues --  -10.20658 -10.20503 -10.20454 -10.20447 -10.19239
 Alpha  occ. eigenvalues --  -10.18789  -1.11798  -1.07337  -1.04312  -0.90139
 Alpha  occ. eigenvalues --   -0.84667  -0.81702  -0.78793  -0.77193  -0.73781
 Alpha  occ. eigenvalues --   -0.69482  -0.65555  -0.63153  -0.62019  -0.57873
 Alpha  occ. eigenvalues --   -0.56443  -0.54757  -0.53173  -0.51578  -0.50024
 Alpha  occ. eigenvalues --   -0.48251  -0.47873  -0.46347  -0.45965  -0.45296
 Alpha  occ. eigenvalues --   -0.44828  -0.44103  -0.43057  -0.41122  -0.39863
 Alpha  occ. eigenvalues --   -0.39668  -0.38644  -0.37588  -0.37379  -0.37139
 Alpha  occ. eigenvalues --   -0.30506  -0.30086  -0.29023  -0.28556  -0.25829
 Alpha  occ. eigenvalues --   -0.25189
 Alpha virt. eigenvalues --   -0.12100  -0.06080  -0.02709  -0.02077  -0.01901
 Alpha virt. eigenvalues --   -0.01230   0.00018   0.00817   0.01278   0.01532
 Alpha virt. eigenvalues --    0.02009   0.02880   0.03456   0.03744   0.04740

  Beta  occ. eigenvalues --  -19.19917 -19.13456 -19.12001 -10.28666 -10.27601
  Beta  occ. eigenvalues --  -10.26791 -10.26474 -10.22425 -10.21174 -10.20840
  Beta  occ. eigenvalues --  -10.20658 -10.20503 -10.20454 -10.20447 -10.19239
  Beta  occ. eigenvalues --  -10.18789  -1.11798  -1.07337  -1.04312  -0.90139
  Beta  occ. eigenvalues --   -0.84667  -0.81702  -0.78793  -0.77193  -0.73781
  Beta  occ. eigenvalues --   -0.69482  -0.65555  -0.63153  -0.62019  -0.57873
  Beta  occ. eigenvalues --   -0.56443  -0.54757  -0.53173  -0.51578  -0.50024
  Beta  occ. eigenvalues --   -0.48251  -0.47873  -0.46347  -0.45965  -0.45296
  Beta  occ. eigenvalues --   -0.44828  -0.44103  -0.43057  -0.41122  -0.39863
  Beta  occ. eigenvalues --   -0.39668  -0.38644  -0.37588  -0.37379  -0.37139
  Beta  occ. eigenvalues --   -0.30506  -0.30086  -0.29023  -0.28556  -0.25829
  Beta  occ. eigenvalues --   -0.25189
  Beta virt. eigenvalues --   -0.12100  -0.06080  -0.02709  -0.02077  -0.01901
  Beta virt. eigenvalues --   -0.01230   0.00018   0.00817   0.01278   0.01532
  Beta virt. eigenvalues --    0.02009   0.02880   0.03456   0.03744   0.04740

 Mulliken charges and spin densities:
               1          2
     1  C    0.115354   0.000000
     2  C   -0.403368   0.000000
     3  C   -0.213241   0.000000
     4  C    0.416384   0.000000
     5  C    0.307388  -0.000000
     6  C   -0.134719  -0.000000
     7  C   -0.487292  -0.000000
     8  C   -0.191936   0.000000
     9  C    0.185018   0.000000
    10  C   -0.015711  -0.000000
    11  O   -0.198703   0.000000
    12  O   -0.240164  -0.000000
    13  O   -0.067861   0.000000
    14  C    0.105156   0.000000
    15  C   -0.313400  -0.000000
    16  C   -0.551736  -0.000000
    17  H    0.192184  -0.000000
    18  H    0.173952  -0.000000
    19  H    0.193724  -0.000000
    20  H    0.083281   0.000000
    21  H    0.227653  -0.000000
    22  H    0.172559   0.000000
    23  H    0.172725   0.000000
    24  H    0.202976  -0.000000
    25  H    0.110444  -0.000000
    26  H    0.159331   0.000000
 Sum of Mulliken charges =  -0.00000  -0.00000

 Dipole moment (field-independent basis, Debye):
    X=             -3.4306    Y=             -5.7494    Z=              2.1319  Tot=              7.0264
 Quadrupole moment (field-independent basis, Debye-Ang):
   XX=            -90.5307   YY=           -105.9847   ZZ=            -97.6656
   XY=            -21.3541   XZ=              6.0582   YZ=              5.4891

  Exact polarizability: 207.137   8.836 189.801 -15.544 -33.241  96.930
 Approx polarizability: 346.609  43.708 290.118 -35.852 -52.866 153.663

                      1                      2                      3
                      A                      A                      A
 Frequencies --     28.2900                47.5367                72.7878
 Red. masses --      5.1233                 5.3279                 3.3567
 Frc consts  --      0.0024                 0.0071                 0.0105
 IR Inten    --      0.7814                 0.4292                 0.9020

                      4                      5                      6
                      A                      A                      A
 Frequencies --     97.6862               118.2716               171.9247
 Red. masses --      4.2996                 4.2072                 2.7943
 Frc consts  --      0.0242                 0.0347                 0.0487
 IR Inten    --      1.5492                 1.4604                 0.1192

                      7                      8                      9
                      A                      A                      A
 Frequencies --    178.8973               214.3998               215.1496
 Red. masses --      4.4609                 4.4647                 3.1738
 Frc consts  --      0.0841                 0.1209                 0.0866
 IR Inten    --      5.3715                 2.4159                 1.6556

                     10                     11                     12
                      A                      A                      A
 Frequencies --    262.0586               356.8038               361.7461
 Red. masses --      5.4528                 6.5282                14.3224
 Frc consts  --      0.2206                 0.4897                 1.1043
 IR Inten    --      1.9308                 1.0146                 4.1191

                     13                     14                     15
                      A                      A                      A
 Frequencies --    402.3762               404.8535               455.9539
 Red. masses --      8.1112                 3.7231                 4.5723
 Frc consts  --      0.7737                 0.3595                 0.5601
 IR Inten    --      2.9702                 0.4762                 4.1049

                     16                     17                     18
                      A                      A                      A
 Frequencies --    459.3598               512.6537               515.9877
 Red. masses --      8.3131                 4.7165                 4.3126
 Frc consts  --      1.0335                 0.7303                 0.6765
 IR Inten    --      0.7621                 3.7046                 7.3158

                     19                     20                     21
                      A                      A                      A
 Frequencies --    574.4483               605.3600               647.7789
 Red. masses --      1.2651                 5.7352                 3.5547
 Frc consts  --      0.2460                 1.2383                 0.8788
 IR Inten    --     17.9000                 2.8001                 2.2097

                     22                     23                     24
                      A                      A                      A
 Frequencies --    669.4680               696.5826               719.8051
 Red. masses --      4.5633                 6.5302                 6.7870
 Frc consts  --      1.2050                 1.8669                 2.0718
 IR Inten    --      0.9224                 5.1837                 3.8508

                     25                     26                     27
                      A                      A                      A
 Frequencies --    736.2382               784.5110               809.8906
 Red. masses --      2.9515                 1.7951                 2.1234
 Frc consts  --      0.9426                 0.6509                 0.8206
 IR Inten    --     19.7124                40.5965                 0.4268

                     28                     29                     30
                      A                      A                      A
 Frequencies --    842.1232               850.8883               906.8304
 Red. masses --      4.2299                 2.1685                 1.3970
 Frc consts  --      1.7674                 0.9250                 0.6768
 IR Inten    --     11.0692                27.5116                 0.3151

                     31                     32                     33
                      A                      A                      A
 Frequencies --    939.0295               955.5187               969.1210
 Red. masses --      3.1942                 1.3180                 5.4824
 Frc consts  --      1.6595                 0.7090                 3.0337
 IR Inten    --      1.5073                47.1575                17.8215

                     34                     35                     36
                      A                      A                      A
 Frequencies --    989.2079               992.5978              1014.2999
 Red. masses --      2.5336                 1.3822                 1.3124
 Frc consts  --      1.4607                 0.8024                 0.7955
 IR Inten    --     51.1463                 1.9018                 0.7312

                     37                     38                     39
                      A                      A                      A
 Frequencies --   1017.0861              1039.9410              1061.4556
 Red. masses --      1.1161                 1.6354                 2.1360
 Frc consts  --      0.6803                 1.0420                 1.4179
 IR Inten    --      5.6056                12.9196                 1.3709

                     40                     41                     42
                      A                      A                      A
 Frequencies --   1101.5819              1125.1516              1165.7602
 Red. masses --      2.3777                 2.1562                 2.1824
 Frc consts  --      1.6999                 1.6083                 1.7474
 IR Inten    --     28.1230                35.5027                46.3934

                     43                     44                     45
                      A                      A                      A
 Frequencies --   1187.9564              1220.2417              1256.9286
 Red. masses --      1.1841                 2.3062                 2.4131
 Frc consts  --      0.9845                 2.0232                 2.2462
 IR Inten    --     10.1185                80.5637               143.8029

                     46                     47                     48
                      A                      A                      A
 Frequencies --   1262.7673              1269.9151              1306.5558
 Red. masses --      5.1484                 1.0663                 2.1327
 Frc consts  --      4.8369                 1.0132                 2.1451
 IR Inten    --    165.9054                 0.2452                64.1241

                     49                     50                     51
                      A                      A                      A
 Frequencies --   1323.1824              1348.7493              1374.2317
 Red. masses --      1.2683                 6.8515                 2.0615
 Frc consts  --      1.3083                 7.3434                 2.2938
 IR Inten    --      3.1761                 6.0111               218.6090

                     52                     53                     54
                      A                      A                      A
 Frequencies --   1422.8471              1448.2732              1478.4177
 Red. masses --      1.5703                 1.2450                 2.2601
 Frc consts  --      1.8730                 1.5386                 2.9106
 IR Inten    --     15.6137                 8.2282                21.2721

                     55                     56                     57
                      A                      A                      A
 Frequencies --   1495.7510              1514.0321              1599.8013
 Red. masses --      1.1067                 2.7073                 6.4394
 Frc consts  --      1.4588                 3.6564                 9.7101
 IR Inten    --     23.3312                 2.8837               128.4910

                     58                     59                     60
                      A                      A                      A
 Frequencies --   1630.2193              1641.3876              1714.5308
 Red. masses --      5.9309                 7.2792                 4.8538
 Frc consts  --      9.2868                11.5547                 8.4066
 IR Inten    --     80.0168               144.2182                 2.4141

                     61                     62                     63
                      A                      A                      A
 Frequencies --   1727.6038              1771.0440              2998.1270
 Red. masses --     12.3314                12.8187                 1.0556
 Frc consts  --     21.6845                23.6893                 5.5907
 IR Inten    --    394.1650                69.1345                13.0626

                     64                     65                     66
                      A                      A                      A
 Frequencies --   3029.8094              3138.8983              3153.8026
 Red. masses --      1.1058                 1.0791                 1.0701
 Frc consts  --      5.9809                 6.2641                 6.2714
 IR Inten    --     14.1842                 9.8625                 5.3359

                     67                     68                     69
                      A                      A                      A
 Frequencies --   3172.3502              3186.5501              3199.0449
 Red. masses --      1.0871                 1.0920                 1.0946
 Frc consts  --      6.4458                 6.5329                 6.6003
 IR Inten    --      2.6109                 8.3835                 6.2768

                     70                     71                     72
                      A                      A                      A
 Frequencies --   3213.0538              3219.2048              3237.0340
 Red. masses --      1.0905                 1.0922                 1.1159
 Frc consts  --      6.6333                 6.6690                 6.8894
 IR Inten    --      3.2490                 3.3724                 8.9890

 - Thermochemistry -
 -------------------
 Temperature   298.150 Kelvin.  Pressure   1.00000 Atm.
 Atom     1 has atomic number  6 and mass  12.00000

 Molecular mass:   214.06299 amu.
 Principal axes and moments of inertia in atomic units:
                           1         2         3
     Eigenvalues --  2390.471494404.535326783.72989
           X           -0.17736   0.97908   0.09976
           Y            0.94551   0.14140   0.29327
           Z           -0.27303  -0.14634   0.95081
 This molecule is an asymmetric top.
 Rotational symmetry number  1.
 Warning -- assumption of classical behavior for rotation
           may cause significant error
 Rotational temperatures (Kelvin)      0.03623     0.01966     0.01277
 Rotational constants (GHZ):           0.75497     0.40975     0.26604
 Zero-point vibrational energy     518184.7 (Joules/Mol)
                                  123.84913 (Kcal/Mol)
 Warning -- explicit consideration of  20 degrees of freedom as
           vibrations may cause significant error
 Vibrational temperatures:     40.70    68.39   104.73   140.55   170.17
          (Kelvin)            247.36   257.39   308.47   309.55   377.04
                              513.36   520.47   578.93   582.49   656.02
                              660.92   737.59   742.39   826.50   870.98
                              932.01   963.22  1002.23  1035.64  1059.28
                             1128.74  1165.25  1211.63  1224.24  1304.73
                             1351.05  1374.78  1394.35  1423.25  1428.13
                             1459.35  1463.36  1496.24  1527.20  1584.93
                             1618.84  1677.27  1709.20  1755.66  1808.44
                             1816.84  1827.12  1879.84  1903.76  1940.55
                             1977.21  2047.16  2083.74  2127.11  2152.05
                             2178.35  2301.76  2345.52  2361.59  2466.83
                             2485.64  2548.14  4313.64  4359.22  4516.17
                             4537.62  4564.30  4584.73  4602.71  4622.87
                             4631.72  4657.37

 Zero-point correction=                           0.197366 (Hartree/Particle)
 Thermal correction to Energy=                    0.210961
 Thermal correction to Enthalpy=                  0.211905
 Thermal correction to Gibbs Free Energy=         0.155672
 Sum of electronic and zero-point Energies=           -727.028631
 Sum of electronic and thermal Energies=              -727.015036
 Sum of electronic and thermal Enthalpies=            -727.014092
 Sum of electronic and thermal Free Energies=         -727.070325

                     E (Thermal)             CV                S
                      KCal/Mol        Cal/Mol-Kelvin    Cal/Mol-Kelvin
 Total                  132.380             51.624            118.352
 Electronic               0.000              0.000              0.000
 Translational            0.889              2.981             41.987
 Rotational               0.889              2.981             32.635
 Vibrational            130.602             45.662             43.730
 Vibration     1          0.593              1.984              5.946
 Vibration     2          0.595              1.979              4.917
 Vibration     3          0.599              1.967              4.077
 Vibration     4          0.603              1.951              3.500
 Vibration     5          0.608              1.934              3.128
 Vibration     6          0.626              1.877              2.414
 Vibration     7          0.629              1.868              2.340
 Vibration     8          0.644              1.819              2.006
 Vibration     9          0.645              1.818              2.000
 Vibration    10          0.669              1.742              1.648
 Vibration    11          0.732              1.561              1.136
 Vibration    12          0.736              1.551              1.115
 Vibration    13          0.768              1.465              0.954
 Vibration    14          0.770              1.460              0.945
 Vibration    15          0.814              1.348              0.778
 Vibration    16          0.817              1.340              0.768
 Vibration    17          0.868              1.222              0.627
 Vibration    18          0.871              1.215              0.619
 Vibration    19          0.931              1.087              0.496
 Vibration    20          0.964              1.020              0.441

 Optimization completed.
    -- Stationary point found.
 Normal termination of Gaussian 16 at Tue Jan  9 20:53:56 2024.
