 Q-Chem 5.4, Q-Chem, Inc., Pleasanton, CA (2021)
 Q-Chem 5.4.0 for Intel X86 EM64T Linux

User input:
--------------------------------------------------------------
$molecule
-1 2
C                 -1.3082680000      1.9071850000     -4.2523390000
C                 -1.2332440000      0.5308320000     -4.3306320000
C                 -0.9674030000     -0.2264890000     -3.1688940000
C                 -1.1248790000      2.5779560000     -3.0230000000
C                 -0.8589890000      1.8186630000     -1.8578860000
C                 -0.7834590000      0.4113690000     -1.9585880000
C                 -1.2062360000      4.0346480000     -2.9798400000
C                 -0.6596760000      2.4579160000     -0.5623680000
C                 -1.0213220000      4.6847180000     -1.6911190000
C                 -0.7630550000      3.9090300000     -0.4988850000
C                 -1.0659740000      6.1233570000     -1.6031540000
C                 -0.8050110000      6.7335190000     -0.3749180000
C                 -0.5613940000      5.9806220000      0.7781610000
C                 -0.5681920000      4.5871560000      0.7568350000
O                 -1.4244890000      4.6708310000     -4.0613220000
O                 -0.3938190000      1.7293650000      0.4493500000
H                 -1.5090960000      2.5147280000     -5.1265470000
H                 -1.3781800000      0.0302940000     -5.2835310000
H                 -0.9082950000     -1.3093240000     -3.2286850000
H                 -0.5776350000     -0.1432310000     -1.0510260000
H                 -0.3858760000      6.5039960000      1.7102390000
H                 -0.8055420000      7.8140360000     -0.2999380000
N                 -1.3672860000      6.8776330000     -2.7168780000
C                 -1.2208420000      8.3049590000     -2.7631770000
H                 -1.4233740000      6.3209930000     -3.5729300000
H                 -0.2031580000      8.6447710000     -2.5048160000
H                 -1.9157610000      8.8185640000     -2.0820950000
H                 -1.4426380000      8.6449810000     -3.7772020000
N                 -0.4075140000      3.8534920000      1.9253870000
C                  0.1595710000      4.4232590000      3.1177730000
C                  0.2931330000      3.3538770000      4.1995620000
O                  0.8957010000      3.8664430000      5.3945990000
H                 -0.2524310000      2.8593030000      1.7190240000
H                 -0.4684990000      5.2332950000      3.5111240000
H                  1.1595920000      4.8683980000      2.9336550000
H                  0.8673630000      2.5011200000      3.8145100000
H                 -0.6914900000      2.9877250000      4.4941620000
H                  1.7549970000      4.2289830000      5.1561140000
$end
$rem
MAX_SCF_CYCLES=200
BASIS  =  6-311++G(d,p)
GUI  =  2
JOB_TYPE  =  SP
METHOD  =  B3LYP
SOLVENT_METHOD = PCM
$end
$pcm
theory = CPCM
$end
$solvent
dielectric 37.219
opticaldielectric 1.43
$end

--------------------------------------------------------------

             Standard Nuclear Orientation (Angstroms)
    I     Atom           X                Y                Z
 ----------------------------------------------------------------
    1      C      -1.3082680000     1.9071850000    -4.2523390000
    2      C      -1.2332440000     0.5308320000    -4.3306320000
    3      C      -0.9674030000    -0.2264890000    -3.1688940000
    4      C      -1.1248790000     2.5779560000    -3.0230000000
    5      C      -0.8589890000     1.8186630000    -1.8578860000
    6      C      -0.7834590000     0.4113690000    -1.9585880000
    7      C      -1.2062360000     4.0346480000    -2.9798400000
    8      C      -0.6596760000     2.4579160000    -0.5623680000
    9      C      -1.0213220000     4.6847180000    -1.6911190000
   10      C      -0.7630550000     3.9090300000    -0.4988850000
   11      C      -1.0659740000     6.1233570000    -1.6031540000
   12      C      -0.8050110000     6.7335190000    -0.3749180000
   13      C      -0.5613940000     5.9806220000     0.7781610000
   14      C      -0.5681920000     4.5871560000     0.7568350000
   15      O      -1.4244890000     4.6708310000    -4.0613220000
   16      O      -0.3938190000     1.7293650000     0.4493500000
   17      H      -1.5090960000     2.5147280000    -5.1265470000
   18      H      -1.3781800000     0.0302940000    -5.2835310000
   19      H      -0.9082950000    -1.3093240000    -3.2286850000
   20      H      -0.5776350000    -0.1432310000    -1.0510260000
   21      H      -0.3858760000     6.5039960000     1.7102390000
   22      H      -0.8055420000     7.8140360000    -0.2999380000
   23      N      -1.3672860000     6.8776330000    -2.7168780000
   24      C      -1.2208420000     8.3049590000    -2.7631770000
   25      H      -1.4233740000     6.3209930000    -3.5729300000
   26      H      -0.2031580000     8.6447710000    -2.5048160000
   27      H      -1.9157610000     8.8185640000    -2.0820950000
   28      H      -1.4426380000     8.6449810000    -3.7772020000
   29      N      -0.4075140000     3.8534920000     1.9253870000
   30      C       0.1595710000     4.4232590000     3.1177730000
   31      C       0.2931330000     3.3538770000     4.1995620000
   32      O       0.8957010000     3.8664430000     5.3945990000
   33      H      -0.2524310000     2.8593030000     1.7190240000
   34      H      -0.4684990000     5.2332950000     3.5111240000
   35      H       1.1595920000     4.8683980000     2.9336550000
   36      H       0.8673630000     2.5011200000     3.8145100000
   37      H      -0.6914900000     2.9877250000     4.4941620000
   38      H       1.7549970000     4.2289830000     5.1561140000
 ----------------------------------------------------------------

    8    -993.0530163709      5.73e-06  Convergence criterion met
 Total energy in the final basis set =     -993.0530163709

                    Orbital Energies (a.u.)
 --------------------------------------------------------------

 Alpha MOs
 -- Occupied --
-19.1288 -19.0729 -19.0727 -14.3039 -14.3030 -10.2224 -10.2224 -10.2156
-10.2049 -10.2042 -10.1950 -10.1872 -10.1701 -10.1701 -10.1696 -10.1693
-10.1685 -10.1680 -10.1668 -10.1668 -10.1601 -10.1591  -1.0270  -1.0015
 -0.9988  -0.9255  -0.9197  -0.8558  -0.8292  -0.7795  -0.7539  -0.7477
 -0.7374  -0.7112  -0.6731  -0.6601  -0.6397  -0.6225  -0.6088  -0.5768
 -0.5635  -0.5308  -0.5236  -0.5125  -0.5000  -0.4849  -0.4754  -0.4649
 -0.4586  -0.4564  -0.4487  -0.4350  -0.4309  -0.4211  -0.4171  -0.4143
 -0.4100  -0.4045  -0.3946  -0.3866  -0.3788  -0.3768  -0.3720  -0.3670
 -0.3598  -0.3453  -0.3431  -0.3364  -0.3334  -0.3092  -0.2866  -0.2668
 -0.2542  -0.2506  -0.2440  -0.2397  -0.2348  -0.1826  -0.1324

 Beta MOs
 -- Occupied --
-19.1288 -19.0688 -19.0687 -14.3030 -14.3021 -10.2207 -10.2206 -10.2156
-10.2044 -10.2036 -10.1950 -10.1872 -10.1702 -10.1696 -10.1694 -10.1692
-10.1678 -10.1674 -10.1668 -10.1667 -10.1588 -10.1577  -1.0270  -0.9944
 -0.9916  -0.9234  -0.9178  -0.8539  -0.8274  -0.7757  -0.7525  -0.7460
 -0.7357  -0.7101  -0.6704  -0.6546  -0.6384  -0.6211  -0.6074  -0.5756
 -0.5619  -0.5288  -0.5226  -0.5116  -0.4990  -0.4840  -0.4731  -0.4639
 -0.4575  -0.4553  -0.4474  -0.4321  -0.4298  -0.4208  -0.4116  -0.4100
 -0.4084  -0.4013  -0.3931  -0.3849  -0.3776  -0.3710  -0.3641  -0.3605
 -0.3586  -0.3438  -0.3399  -0.3328  -0.3269  -0.3031  -0.2866  -0.2527
 -0.2483  -0.2423  -0.2401  -0.2355  -0.2312  -0.1698

          Ground-State Mulliken Net Atomic Charges

     Atom                 Charge (a.u.)    Spin (a.u.)
  --------------------------------------------------------
      1 C                    -0.048113       0.021599
      2 C                    -0.427621       0.036540
      3 C                    -0.441330       0.031697
      4 C                     0.265594       0.037188
      5 C                     0.217781       0.026419
      6 C                    -0.084893       0.024730
      7 C                    -0.375726       0.092027
      8 C                    -0.431986       0.098447
      9 C                     0.166131      -0.018672
     10 C                     0.349109      -0.007465
     11 C                     0.053517       0.041502
     12 C                    -0.251067       0.107974
     13 C                    -0.422078       0.087121
     14 C                    -0.234674       0.051043
     15 O                    -0.494146       0.151035
     16 O                    -0.474515       0.156676
     17 H                     0.175863      -0.000539
     18 H                     0.195581      -0.002865
     19 H                     0.195278      -0.002535
     20 H                     0.165141      -0.001029
     21 H                     0.194699      -0.007275
     22 H                     0.208092      -0.007989
     23 N                    -0.318884       0.039942
     24 C                    -0.392116      -0.003192
     25 H                     0.397984      -0.003618
     26 H                     0.157523       0.004230
     27 H                     0.154453       0.002821
     28 H                     0.160451      -0.000092
     29 N                    -0.140266       0.038524
     30 C                    -0.205828       0.001246
     31 C                    -0.366564      -0.000670
     32 O                    -0.343957       0.000006
     33 H                     0.425861      -0.001644
     34 H                     0.167113       0.001851
     35 H                     0.163067       0.004772
     36 H                     0.164398       0.000439
     37 H                     0.191054      -0.000242
     38 H                     0.285068       0.000000
  --------------------------------------------------------
  Sum of atomic charges =    -1.000003

                    Cartesian Multipole Moments
 -----------------------------------------------------------------
    Charge (ESU x 10^10)
                -4.8032
    Dipole Moment (Debye)
         X       6.1377      Y     -14.4531      Z       6.1583
       Tot      16.8668
    Quadrupole Moments (Debye-Ang)
        XX    -141.1337     XY      24.2497     YY    -174.0479
        XZ      -6.3534     YZ      29.4814     ZZ    -182.5178

 Total job time:  141.95s(wall), 761.85s(cpu)
        *  Thank you very much for using Q-Chem.  Have a nice day.  *
