 Gaussian 16, Revision A.03,
 Gaussian 16:  ES64L-G16RevA.03 25-Dec-2016

 --------------------------------------
 #P UB3LYP/6-311++G(d,p) nosym opt freq
 --------------------------------------

 -------
 Radical
 -------
 Symbolic Z-matrix:
 Charge = -1 Multiplicity = 2

 SCF Done:  E(UB3LYP) =  -842.665981024     A.U. after   24 cycles
 SCF Done:  E(UB3LYP) =  -842.693179128     A.U. after   20 cycles
 SCF Done:  E(UB3LYP) =  -842.697016754     A.U. after   18 cycles
 SCF Done:  E(UB3LYP) =  -842.698355110     A.U. after   17 cycles
 SCF Done:  E(UB3LYP) =  -842.698471135     A.U. after   15 cycles
 SCF Done:  E(UB3LYP) =  -842.698483049     A.U. after   14 cycles
 Optimization completed.
    -- Stationary point found.
 Normal termination of Gaussian 16 at Thu Dec 21 06:35:51 2023.

 ----------------------------------------------------------------------
 #P Geom=AllCheck Guess=TCheck SCRF=Check GenChk UB3LYP/6-311++G(d,p) F
 req
 ----------------------------------------------------------------------

 Structure from the checkpoint file:  "133-rad.chk"
 -------
 Radical
 -------
 Charge = -1 Multiplicity = 2

                          Input orientation:
 ---------------------------------------------------------------------
 Center     Atomic      Atomic             Coordinates (Angstroms)
 Number     Number       Type             X           Y           Z
 ---------------------------------------------------------------------
      1          8           0        1.534503   -3.072973    0.082616
      2          6           0        1.298606   -1.840641    0.043830
      3          6           0        2.384273   -0.859343   -0.006575
      4          6           0        3.724306   -1.296978   -0.011883
      5          6           0        4.766282   -0.390417   -0.059102
      6          6           0        4.490302    0.990718   -0.102674
      7          6           0        3.180995    1.435111   -0.098046
      8          6           0        2.103591    0.526453   -0.050136
      9          6           0        0.725781    1.058957   -0.047379
     10          8           0        0.560909    2.304820   -0.088175
     11          6           0       -0.364698    0.085260    0.002730
     12          6           0       -1.765858    0.487662    0.010182
     13          6           0       -2.197631    1.841300   -0.029635
     14          6           0       -3.540483    2.177162   -0.020736
     15          6           0       -4.532861    1.185071    0.028271
     16          6           0       -4.151185   -0.141354    0.067893
     17          6           0       -2.789171   -0.516865    0.060136
     18          6           0       -2.422141   -1.897596    0.101950
     19          6           0       -1.111960   -2.267121    0.094845
     20          6           0       -0.062198   -1.307956    0.046027
     21          1           0        3.901137   -2.365770    0.022367
     22          1           0        5.794500   -0.739954   -0.062697
     23          1           0        5.306618    1.706071   -0.139897
     24          1           0        2.940893    2.491048   -0.130934
     25          1           0       -1.438826    2.607283   -0.067410
     26          1           0       -3.825069    3.224688   -0.052289
     27          1           0       -5.584237    1.455931    0.034924
     28          1           0       -4.900725   -0.927178    0.106136
     29          1           0       -3.210257   -2.644650    0.139473
     30          1           0       -0.815396   -3.308742    0.126188
 ---------------------------------------------------------------------

 SCF Done:  E(UB3LYP) =  -842.698483049     A.U. after    1 cycles

 Alpha  occ. eigenvalues --  -18.95381 -18.95157 -10.10545 -10.10312 -10.07257
 Alpha  occ. eigenvalues --  -10.07206 -10.06902 -10.06730 -10.06539 -10.06489
 Alpha  occ. eigenvalues --  -10.06369 -10.06032 -10.05896 -10.05807 -10.05720
 Alpha  occ. eigenvalues --  -10.05656 -10.05597 -10.05493 -10.05396 -10.05069
 Alpha  occ. eigenvalues --   -0.88150  -0.87879  -0.76013  -0.74374  -0.71210
 Alpha  occ. eigenvalues --   -0.67178  -0.64947  -0.63638  -0.63038  -0.60818
 Alpha  occ. eigenvalues --   -0.55354  -0.52512  -0.51234  -0.49401  -0.48022
 Alpha  occ. eigenvalues --   -0.44271  -0.43503  -0.40458  -0.38970  -0.38191
 Alpha  occ. eigenvalues --   -0.35700  -0.35038  -0.34137  -0.32474  -0.31587
 Alpha  occ. eigenvalues --   -0.31255  -0.30395  -0.30338  -0.29036  -0.28624
 Alpha  occ. eigenvalues --   -0.28072  -0.27281  -0.26460  -0.25678  -0.24407
 Alpha  occ. eigenvalues --   -0.23809  -0.23127  -0.22817  -0.21741  -0.20812
 Alpha  occ. eigenvalues --   -0.16913  -0.14621  -0.14154  -0.13547  -0.12111
 Alpha  occ. eigenvalues --   -0.11118  -0.11066  -0.02540
 Alpha virt. eigenvalues --    0.06268   0.07305   0.07395   0.07957   0.08933
 Alpha virt. eigenvalues --    0.09914   0.09941   0.10130   0.11241   0.11631
 Alpha virt. eigenvalues --    0.11803   0.13498   0.13867   0.14195   0.15152

  Beta  occ. eigenvalues --  -18.94783 -18.94603 -10.10412 -10.10206 -10.07271
  Beta  occ. eigenvalues --  -10.07209 -10.06879 -10.06702 -10.06505 -10.06454
  Beta  occ. eigenvalues --  -10.06359 -10.05900 -10.05813 -10.05785 -10.05688
  Beta  occ. eigenvalues --  -10.05633 -10.05535 -10.05459 -10.05328 -10.05038
  Beta  occ. eigenvalues --   -0.87167  -0.86871  -0.75890  -0.74219  -0.71004
  Beta  occ. eigenvalues --   -0.66870  -0.64795  -0.63493  -0.62902  -0.60635
  Beta  occ. eigenvalues --   -0.54652  -0.52380  -0.51030  -0.49290  -0.47946
  Beta  occ. eigenvalues --   -0.44076  -0.43312  -0.40336  -0.38881  -0.38052
  Beta  occ. eigenvalues --   -0.35505  -0.34899  -0.34044  -0.32361  -0.31518
  Beta  occ. eigenvalues --   -0.31217  -0.30225  -0.29353  -0.28937  -0.28292
  Beta  occ. eigenvalues --   -0.27692  -0.26905  -0.26278  -0.24330  -0.23635
  Beta  occ. eigenvalues --   -0.23035  -0.22993  -0.22725  -0.21570  -0.20014
  Beta  occ. eigenvalues --   -0.16258  -0.13766  -0.13022  -0.12760  -0.11568
  Beta  occ. eigenvalues --   -0.10553  -0.10268
  Beta virt. eigenvalues --    0.03205   0.06914   0.07392   0.07952   0.08172
  Beta virt. eigenvalues --    0.08930   0.09935   0.10126   0.10206   0.11630
  Beta virt. eigenvalues --    0.11684   0.11800   0.13495   0.13864   0.14456

 Mulliken charges and spin densities:
               1          2
     1  O   -0.347325   0.223139
     2  C   -0.976322   0.052642
     3  C    0.238688   0.022539
     4  C   -0.087972   0.014754
     5  C   -0.412792   0.025855
     6  C   -0.421940   0.026929
     7  C    0.001500   0.014016
     8  C    0.287858   0.009812
     9  C   -0.686147   0.075675
    10  O   -0.322741   0.211129
    11  C    0.671996   0.106189
    12  C    0.969780  -0.001541
    13  C   -0.582534   0.023605
    14  C   -0.551519   0.003265
    15  C   -0.279931   0.017999
    16  C   -0.466147   0.015862
    17  C    0.555825  -0.012335
    18  C   -0.468112   0.095938
    19  C   -0.216773  -0.023945
    20  C    0.755655   0.119804
    21  H    0.155827  -0.001554
    22  H    0.126001  -0.002296
    23  H    0.127627  -0.002340
    24  H    0.152313  -0.001312
    25  H    0.151784  -0.004943
    26  H    0.141448  -0.000583
    27  H    0.121700  -0.001320
    28  H    0.093682  -0.002164
    29  H    0.109777  -0.005786
    30  H    0.158793   0.000967
 Sum of Mulliken charges =  -1.00000   1.00000

 Dipole moment (field-independent basis, Debye):
    X=             -2.3503    Y=              1.2021    Z=             -0.0054  Tot=              2.6399
 Quadrupole moment (field-independent basis, Debye-Ang):
   XX=           -139.4138   YY=           -145.6369   ZZ=           -124.5298
   XY=              8.4937   XZ=             -0.0650   YZ=              0.6015

  Exact polarizability: 438.611 -23.018 265.358  -4.176  -4.927 112.230
 Approx polarizability: 647.978 -40.396 515.223  -5.702 -10.871 182.110

                      1                      2                      3
                      A                      A                      A
 Frequencies --     39.1134                56.6746               112.2042
 Red. masses --      7.0310                 5.1814                 5.5032
 Frc consts  --      0.0063                 0.0098                 0.0408
 IR Inten    --      3.9555                 0.5828                 2.9896

                      4                      5                      6
                      A                      A                      A
 Frequencies --    129.0186               179.0513               179.3690
 Red. masses --      4.7270                 5.3190                 6.0552
 Frc consts  --      0.0464                 0.1005                 0.1148
 IR Inten    --      0.0136                 2.0966                 0.5586

                      7                      8                      9
                      A                      A                      A
 Frequencies --    214.9208               272.7664               291.1979
 Red. masses --      4.5493                 5.1743                 6.0269
 Frc consts  --      0.1238                 0.2268                 0.3011
 IR Inten    --      2.2823                 0.2564                 1.7325

                     10                     11                     12
                      A                      A                      A
 Frequencies --    318.0900               361.3459               398.8996
 Red. masses --      8.3678                 7.1027                 4.2463
 Frc consts  --      0.4988                 0.5464                 0.3981
 IR Inten    --      0.1413                 0.3153                 0.5267

                     13                     14                     15
                      A                      A                      A
 Frequencies --    399.1436               436.9587               444.2944
 Red. masses --     11.2252                 3.8187                 5.8947
 Frc consts  --      1.0537                 0.4296                 0.6856
 IR Inten    --      6.6019                 0.8893                 5.0437

                     16                     17                     18
                      A                      A                      A
 Frequencies --    444.5282               485.9227               512.1355
 Red. masses --      3.9736                12.0200                 3.9054
 Frc consts  --      0.4626                 1.6722                 0.6035
 IR Inten    --      1.0167                 1.0245                 0.7744

                     19                     20                     21
                      A                      A                      A
 Frequencies --    529.7980               539.0920               565.6616
 Red. masses --      3.5352                 7.0719                 7.0120
 Frc consts  --      0.5846                 1.2109                 1.3219
 IR Inten    --     16.0911                 1.5015                 7.2351

                     22                     23                     24
                      A                      A                      A
 Frequencies --    611.6198               639.3674               672.0807
 Red. masses --      4.4104                 6.8368                 6.6505
 Frc consts  --      0.9721                 1.6467                 1.7699
 IR Inten    --      0.0695                10.2524                 1.2252

                     25                     26                     27
                      A                      A                      A
 Frequencies --    684.2212               694.6477               707.3740
 Red. masses --      6.9916                 4.4199                 2.0207
 Frc consts  --      1.9285                 1.2566                 0.5957
 IR Inten    --      1.0334                 1.7730                23.4628

                     28                     29                     30
                      A                      A                      A
 Frequencies --    750.2212               754.1230               766.1580
 Red. masses --      1.3303                 6.4153                 3.7629
 Frc consts  --      0.4411                 2.1496                 1.3014
 IR Inten    --     77.5756                 0.7857                14.3750

                     31                     32                     33
                      A                      A                      A
 Frequencies --    786.4108               804.8637               811.5547
 Red. masses --      1.9056                 3.0019                 5.9589
 Frc consts  --      0.6944                 1.1457                 2.3124
 IR Inten    --      0.5171                11.3249                 7.6643

                     34                     35                     36
                      A                      A                      A
 Frequencies --    826.5602               867.1612               870.0954
 Red. masses --      1.8597                 1.5315                 5.6622
 Frc consts  --      0.7486                 0.6785                 2.5256
 IR Inten    --     33.6018                 1.3167                 1.5850

                     37                     38                     39
                      A                      A                      A
 Frequencies --    877.1958               919.4145               940.1631
 Red. masses --      1.5035                 6.7457                 1.3056
 Frc consts  --      0.6816                 3.3597                 0.6799
 IR Inten    --      0.0161                 1.8538                 2.6407

                     40                     41                     42
                      A                      A                      A
 Frequencies --    982.9064               987.7146               997.2968
 Red. masses --      1.3318                 1.2914                 1.2954
 Frc consts  --      0.7581                 0.7423                 0.7591
 IR Inten    --      1.5406                 0.6799                 1.2427

                     43                     44                     45
                      A                      A                      A
 Frequencies --   1001.1491              1001.7131              1041.7644
 Red. masses --      1.2782                 6.0162                 2.0449
 Frc consts  --      0.7549                 3.5568                 1.3076
 IR Inten    --      2.4205                 9.5935                38.3208

                     46                     47                     48
                      A                      A                      A
 Frequencies --   1057.8698              1081.8926              1112.5800
 Red. masses --      2.1237                 3.7144                 1.9413
 Frc consts  --      1.4003                 2.5616                 1.4158
 IR Inten    --     10.1750                 1.4185                 8.3374

                     49                     50                     51
                      A                      A                      A
 Frequencies --   1142.9300              1160.1112              1171.6185
 Red. masses --      1.4563                 1.2471                 1.1734
 Frc consts  --      1.1209                 0.9889                 0.9490
 IR Inten    --     33.0801                 3.9099                 3.9082

                     52                     53                     54
                      A                      A                      A
 Frequencies --   1175.9660              1199.6487              1219.5182
 Red. masses --      1.8002                 2.2968                 2.4048
 Frc consts  --      1.4668                 1.9475                 2.1072
 IR Inten    --      2.8344                25.0745                39.0718

                     55                     56                     57
                      A                      A                      A
 Frequencies --   1226.2826              1245.6403              1282.8050
 Red. masses --      2.4830                 1.9801                 1.8250
 Frc consts  --      2.1999                 1.8102                 1.7694
 IR Inten    --      1.5186                29.2574                33.1281

                     58                     59                     60
                      A                      A                      A
 Frequencies --   1294.2351              1351.4770              1363.5934
 Red. masses --      2.7851                 6.9342                 9.8172
 Frc consts  --      2.7487                 7.4622                10.7549
 IR Inten    --     25.8672                66.1578                 0.5134

                     61                     62                     63
                      A                      A                      A
 Frequencies --   1375.1168              1386.8647              1431.0572
 Red. masses --      4.1868                 4.7267                 2.0271
 Frc consts  --      4.6646                 5.3564                 2.4459
 IR Inten    --    123.9158                75.2771               109.8989

                     64                     65                     66
                      A                      A                      A
 Frequencies --   1460.3136              1476.4689              1485.1467
 Red. masses --      2.4930                 2.8043                 2.5126
 Frc consts  --      3.1324                 3.6018                 3.2652
 IR Inten    --     29.3284                18.9363                24.7899

                     67                     68                     69
                      A                      A                      A
 Frequencies --   1511.6473              1536.5372              1553.3085
 Red. masses --      3.8390                 6.2859                 5.6198
 Frc consts  --      5.1685                 8.7439                 7.9888
 IR Inten    --     88.5720               234.1133               137.3141

                     70                     71                     72
                      A                      A                      A
 Frequencies --   1564.5498              1612.6269              1622.6938
 Red. masses --      5.8954                 7.9749                 6.0648
 Frc consts  --      8.5024                12.2192                 9.4089
 IR Inten    --     38.9625                69.0790                 9.1834

                     73                     74                     75
                      A                      A                      A
 Frequencies --   1630.4841              1633.0203              3131.1666
 Red. masses --      5.8240                 6.3455                 1.0845
 Frc consts  --      9.1224                 9.9701                 6.2648
 IR Inten    --      5.6914                 9.6976                 0.1070

                     76                     77                     78
                      A                      A                      A
 Frequencies --   3135.5812              3138.1470              3144.6948
 Red. masses --      1.0849                 1.0876                 1.0893
 Frc consts  --      6.2846                 6.3105                 6.3471
 IR Inten    --     16.3619                12.6652                57.0465

                     79                     80                     81
                      A                      A                      A
 Frequencies --   3154.7242              3162.5242              3184.7094
 Red. masses --      1.0916                 1.0961                 1.0918
 Frc consts  --      6.4010                 6.4593                 6.5246
 IR Inten    --     60.2725                82.1964                17.8630

                     82                     83                     84
                      A                      A                      A
 Frequencies --   3187.7236              3189.8814              3229.3324
 Red. masses --      1.0920                 1.0920                 1.0918
 Frc consts  --      6.5377                 6.5467                 6.7084
 IR Inten    --     18.3172                20.6069                16.3938

 - Thermochemistry -
 -------------------
 Temperature   298.150 Kelvin.  Pressure   1.00000 Atm.
 Atom     1 has atomic number  8 and mass  15.99491

 Molecular mass:   258.06808 amu.
 Principal axes and moments of inertia in atomic units:
                           1         2         3
     Eigenvalues --  2286.703107353.269169639.97219
           X            0.99295   0.11759   0.01522
           Y           -0.11805   0.99241   0.03441
           Z           -0.01106  -0.03596   0.99929
 This molecule is an asymmetric top.
 Rotational symmetry number  1.
 Warning -- assumption of classical behavior for rotation
           may cause significant error
 Rotational temperatures (Kelvin)      0.03788     0.01178     0.00898
 Rotational constants (GHZ):           0.78923     0.24543     0.18721
 Zero-point vibrational energy     585754.2 (Joules/Mol)
                                  139.99861 (Kcal/Mol)
 Warning -- explicit consideration of  22 degrees of freedom as
           vibrations may cause significant error
 Vibrational temperatures:     56.28    81.54   161.44   185.63   257.61
          (Kelvin)            258.07   309.22   392.45   418.97   457.66
                              519.90   573.93   574.28   628.69   639.24
                              639.58   699.13   736.85   762.26   775.63
                              813.86   879.98   919.91   966.97   984.44
                              999.44  1017.75  1079.40  1085.01  1102.33
                             1131.47  1158.02  1167.65  1189.24  1247.65
                             1251.87  1262.09  1322.83  1352.68  1414.18
                             1421.10  1434.89  1440.43  1441.24  1498.87
                             1522.04  1556.60  1600.75  1644.42  1669.14
                             1685.70  1691.95  1726.03  1754.61  1764.35
                             1792.20  1845.67  1862.12  1944.47  1961.91
                             1978.49  1995.39  2058.97  2101.07  2124.31
                             2136.79  2174.92  2210.73  2234.86  2251.04
                             2320.21  2334.69  2345.90  2349.55  4505.05
                             4511.40  4515.09  4524.51  4538.94  4550.17
                             4582.09  4586.42  4589.53  4646.29

 Zero-point correction=                           0.223102 (Hartree/Particle)
 Thermal correction to Energy=                    0.236994
 Thermal correction to Enthalpy=                  0.237938
 Thermal correction to Gibbs Free Energy=         0.181543
 Sum of electronic and zero-point Energies=           -842.475381
 Sum of electronic and thermal Energies=              -842.461489
 Sum of electronic and thermal Enthalpies=            -842.460545
 Sum of electronic and thermal Free Energies=         -842.516940

                     E (Thermal)             CV                S
                      KCal/Mol        Cal/Mol-Kelvin    Cal/Mol-Kelvin
 Total                  148.716             57.998            118.694
 Electronic               0.000              0.000              1.377
 Translational            0.889              2.981             42.544
 Rotational               0.889              2.981             33.449
 Vibrational            146.939             52.036             41.324
 Vibration     1          0.594              1.981              5.303
 Vibration     2          0.596              1.975              4.570
 Vibration     3          0.607              1.939              3.230
 Vibration     4          0.612              1.924              2.961
 Vibration     5          0.629              1.868              2.338
 Vibration     6          0.629              1.868              2.335
 Vibration     7          0.645              1.818              2.001
 Vibration     8          0.676              1.724              1.579
 Vibration     9          0.687              1.690              1.467
 Vibration    10          0.704              1.639              1.320
 Vibration    11          0.736              1.552              1.116
 Vibration    12          0.765              1.472              0.967
 Vibration    13          0.765              1.472              0.966
 Vibration    14          0.797              1.390              0.836
 Vibration    15          0.804              1.373              0.813
 Vibration    16          0.804              1.373              0.812
 Vibration    17          0.842              1.281              0.694
 Vibration    18          0.867              1.223              0.628
 Vibration    19          0.885              1.184              0.588
 Vibration    20          0.894              1.164              0.567
 Vibration    21          0.922              1.106              0.513
 Vibration    22          0.971              1.007              0.430

 Optimization completed.
    -- Stationary point found.
 Normal termination of Gaussian 16 at Thu Dec 21 08:49:45 2023.
