 Q-Chem 5.4, Q-Chem, Inc., Pleasanton, CA (2021)
 Q-Chem 5.4.0 for Intel X86 EM64T Linux

User input:
--------------------------------------------------------------
$molecule
0 1
C                  5.1095050000     -2.8445280000      0.1266160000
C                  5.9215700000     -2.2046650000     -0.8001110000
C                  5.3439800000     -1.2933380000     -1.6855800000
C                  3.7384050000     -2.5740450000      0.1669900000
C                  3.1739850000     -1.6560410000     -0.7354180000
C                  3.9864480000     -1.0118490000     -1.6723760000
C                  2.8950890000     -3.2803380000      1.1804310000
C                  1.4344330000     -2.9720860000      1.1938180000
C                  0.8700070000     -2.0541040000      0.2913840000
C                  1.7133210000     -1.3478360000     -0.7220750000
C                  0.6219790000     -3.6162330000      2.1308110000
C                 -0.5010850000     -1.7836080000      0.3317730000
C                 -1.3131400000     -2.4234230000      1.2585480000
O                  3.3821740000     -4.0761800000      1.9616350000
O                  1.2262240000     -0.5520660000     -1.5033470000
H                  5.5194100000     -3.5596380000      0.8285690000
H                  6.9834730000     -2.4092560000     -0.8519980000
S                  6.3931780000     -0.4662390000     -2.8846310000
H                 -2.3750320000     -2.2187730000      1.3104430000
H                  3.5459310000     -0.3147260000     -2.3738220000
H                  1.0624760000     -4.3133430000      2.8322820000
H                 -0.9110060000     -1.0685180000     -0.3701910000
C                 -0.7355500000     -3.3347090000      2.1440510000
S                 -1.7847200000     -4.1617220000      3.3431920000
O                 -0.9982250000     -4.5473830000      4.5053470000
O                 -3.0159230000     -3.4023860000      3.5101290000
O                 -2.0985070000     -5.4976380000      2.4471690000
C                 -2.9091190000     -6.5170660000      3.0879970000
H                 -2.4080920000     -6.8904970000      3.9822510000
H                 -2.9962820000     -7.3074490000      2.3462710000
H                 -3.8949340000     -6.1180790000      3.3322530000
O                  5.6068440000     -0.0811950000     -4.0471060000
O                  7.6246250000     -1.2252920000     -3.0510250000
O                  6.7062040000      0.8700130000     -1.9888560000
C                  7.5155650000      1.8901410000     -2.6301400000
H                  7.0138930000      2.2628410000     -3.5243350000
H                  8.5017280000      1.4921280000     -2.8745890000
H                  7.6021210000      2.6807750000     -1.8886110000
$end
$rem
MAX_SCF_CYCLES=200
BASIS  =  6-311++G(d,p)
GUI  =  2
JOB_TYPE  =  SP
METHOD  =  B3LYP
SOLVENT_METHOD = COSMO
$end
$solvent
dielectric 37.219
opticaldielectric 1.43
$end

--------------------------------------------------------------

             Standard Nuclear Orientation (Angstroms)
    I     Atom           X                Y                Z
 ----------------------------------------------------------------
    1      C      -1.9825159732    -2.0568056240    -0.0377291503
    2      C      -3.3295284376    -1.7497645797     0.1000401250
    3      C      -3.7028165444    -0.4141366069     0.2579526531
    4      C      -1.0230046689    -1.0400923942    -0.0193283768
    5      C      -1.4176630893     0.2989370456     0.1446422586
    6      C      -2.7719390076     0.6129564458     0.2871143834
    7      C       0.4185270569    -1.4081318354    -0.1730410684
    8      C       1.4175793066    -0.2991693754    -0.1445573472
    9      C       1.0229207616     1.0398607623     0.0194478642
   10      C      -0.4186088472     1.4078929951     0.1731904984
   11      C       2.7718486336    -0.6131803044    -0.2870861799
   12      C       1.9824285568     2.0565709474     0.0378277471
   13      C       3.3294391656     1.7495340836    -0.1000099905
   14      O       0.7617895130    -2.5670959211    -0.3139988997
   15      O      -0.7618687518     2.5668472046     0.3142475665
   16      H      -1.6529077298    -3.0808122438    -0.1598409179
   17      H      -4.0851793342    -2.5251192179     0.0978890925
   18      S      -5.4442036570    -0.0164463083     0.4369662004
   19      H       4.0850625647     2.5249166868    -0.0979050865
   20      H      -3.0708708325     1.6442339234     0.4255655432
   21      H       3.0708034321    -1.6444476113    -0.4255610625
   22      H       1.6528347313     3.0805793494     0.1599633045
   23      C       3.7027286027     0.4139180521    -0.2579744091
   24      S       5.4441067588     0.0162272031    -0.4371152336
   25      O       5.5933904377    -1.2283638416    -1.1764531474
   26      O       6.1695838599     1.2080969740    -0.8535877716
   27      O       5.7487885014    -0.2678229036     1.1479638274
   28      C       7.0972060733    -0.6987834066     1.4689449548
   29      H       7.3216621643    -1.6410274008     0.9669840982
   30      H       7.0936787078    -0.8371550612     2.5475092678
   31      H       7.8171699974     0.0720928203     1.1895086926
   32      O      -5.5935316250     1.2277814791     1.1769165623
   33      O      -6.1696991859    -1.2085195441     0.8528120515
   34      O      -5.7485649246     0.2684055251    -1.1480231329
   35      C      -7.0965386079     0.7008007025    -1.4689170297
   36      H      -7.3201849699     1.6429484878    -0.9664186326
   37      H      -7.8172503349    -0.0695777247    -1.1900285040
   38      H      -7.0927485094     0.8398004500    -2.5473993088
 ----------------------------------------------------------------

    9   -2015.3483016917      5.19e-06  Convergence criterion met
 Total energy in the final basis set =    -2015.3483016917
    5   -2015.3810448225      4.35e-06  Convergence criterion met
 Total energy in the final basis set =    -2015.3810448225

                    Orbital Energies (a.u.)
 --------------------------------------------------------------

 Alpha MOs
 -- Occupied --
-89.1063 -89.1063 -19.1918 -19.1918 -19.1547 -19.1547 -19.1544 -19.1543
-19.1484 -19.1484 -10.3008 -10.3007 -10.2492 -10.2492 -10.2350 -10.2350
-10.2307 -10.2307 -10.2296 -10.2296 -10.2263 -10.2263 -10.2247 -10.2247
-10.2157 -10.2157  -8.1672  -8.1672  -6.1308  -6.1308  -6.1293  -6.1292
 -6.1279  -6.1279  -1.1756  -1.1756  -1.0848  -1.0831  -1.0641  -1.0641
 -1.0497  -1.0497  -0.9197  -0.9112  -0.8471  -0.8173  -0.8040  -0.8006
 -0.7610  -0.7526  -0.7119  -0.7012  -0.6773  -0.6612  -0.6357  -0.6265
 -0.6075  -0.5896  -0.5814  -0.5669  -0.5447  -0.5399  -0.5294  -0.5279
 -0.5143  -0.5101  -0.5024  -0.4889  -0.4760  -0.4750  -0.4740  -0.4732
 -0.4699  -0.4690  -0.4689  -0.4631  -0.4622  -0.4406  -0.4358  -0.4252
 -0.4203  -0.4184  -0.4138  -0.4045  -0.3936  -0.3914  -0.3716  -0.3715
 -0.3679  -0.3673  -0.3571  -0.3567  -0.3522  -0.3520  -0.3198  -0.3197
 -0.3119  -0.3051  -0.3025  -0.3005  -0.2961  -0.2928

          Ground-State Mulliken Net Atomic Charges

     Atom                 Charge (a.u.)
  ----------------------------------------
      1 C                     0.071100
      2 C                    -0.263512
      3 C                    -0.942066
      4 C                     0.606320
      5 C                     0.243355
      6 C                     0.185369
      7 C                    -0.665195
      8 C                     0.243199
      9 C                     0.606275
     10 C                    -0.665951
     11 C                     0.185881
     12 C                     0.070632
     13 C                    -0.264391
     14 O                    -0.242613
     15 O                    -0.242516
     16 H                     0.215250
     17 H                     0.281735
     18 S                     0.294099
     19 H                     0.281570
     20 H                     0.251510
     21 H                     0.251469
     22 H                     0.215239
     23 C                    -0.941836
     24 S                     0.294262
     25 O                    -0.223538
     26 O                    -0.196578
     27 O                    -0.045318
     28 C                    -0.149903
     29 H                     0.187353
     30 H                     0.206896
     31 H                     0.186362
     32 O                    -0.223775
     33 O                    -0.196171
     34 O                    -0.045209
     35 C                    -0.150034
     36 H                     0.187388
     37 H                     0.186403
     38 H                     0.206826
  ----------------------------------------
  Sum of atomic charges =    -0.000112

                    Cartesian Multipole Moments
 -----------------------------------------------------------------
    Charge (ESU x 10^10)
                -0.0005
    Dipole Moment (Debye)
         X       0.0005      Y       0.0021      Z      -0.0000
       Tot       0.0022
    Quadrupole Moments (Debye-Ang)
        XX    -164.1024     XY       2.3799     YY    -172.9300
        XZ      48.9747     YZ      -6.2674     ZZ    -165.8263

 Total job time:  116.05s(wall), 891.15s(cpu)
        *  Thank you very much for using Q-Chem.  Have a nice day.  *
