 Gaussian 16, Revision A.03,
 Gaussian 16:  ES64L-G16RevA.03 25-Dec-2016

 --------------------------------------
 #P UB3LYP/6-311++G(d,p) nosym opt freq
 --------------------------------------

 -------
 Reduced
 -------
 Symbolic Z-matrix:
 Charge = -2 Multiplicity = 1

 SCF Done:  E(UB3LYP) =  -5764.55383782     A.U. after   37 cycles
 SCF Done:  E(UB3LYP) =  -5764.58397457     A.U. after   26 cycles
 SCF Done:  E(UB3LYP) =  -5764.59428073     A.U. after   22 cycles
 SCF Done:  E(UB3LYP) =  -5764.60120080     A.U. after   18 cycles
 SCF Done:  E(UB3LYP) =  -5764.60662210     A.U. after   20 cycles
 SCF Done:  E(UB3LYP) =  -5764.60827094     A.U. after   19 cycles
 SCF Done:  E(UB3LYP) =  -5764.60888014     A.U. after   19 cycles
 SCF Done:  E(UB3LYP) =  -5764.60897188     A.U. after   17 cycles
 SCF Done:  E(UB3LYP) =  -5764.60909668     A.U. after   18 cycles
 SCF Done:  E(UB3LYP) =  -5764.60910859     A.U. after   16 cycles
 SCF Done:  E(UB3LYP) =  -5764.60910694     A.U. after   15 cycles
 SCF Done:  E(UB3LYP) =  -5764.60912059     A.U. after   16 cycles
 SCF Done:  E(UB3LYP) =  -5764.60912142     A.U. after   14 cycles
 SCF Done:  E(UB3LYP) =  -5764.60912162     A.U. after   10 cycles
 Optimization completed.
    -- Stationary point found.
 Normal termination of Gaussian 16 at Sun Dec 17 22:58:01 2023.

 ----------------------------------------------------------------------
 #P Geom=AllCheck Guess=TCheck SCRF=Check GenChk UB3LYP/6-311++G(d,p) F
 req
 ----------------------------------------------------------------------

 Structure from the checkpoint file:  "020-an.chk"
 -------
 Reduced
 -------
 Charge = -2 Multiplicity = 1

                          Input orientation:
 ---------------------------------------------------------------------
 Center     Atomic      Atomic             Coordinates (Angstroms)
 Number     Number       Type             X           Y           Z
 ---------------------------------------------------------------------
      1          6           0       -2.040775    0.359992    1.568391
      2          6           0       -2.886220    1.178036    0.721127
      3          6           0       -2.473962    1.480608   -0.581730
      4          6           0       -1.269902    1.075975   -1.235039
      5          6           0       -0.424556    0.257757   -0.387848
      6          6           0       -0.836795   -0.044785    0.915023
      7          8           0       -0.944737    1.388651   -2.442997
      8          8           0       -2.366038    0.047132    2.776274
      9         35           0        0.318090   -1.169728    2.089336
     10         35           0       -3.628955    2.605371   -1.756108
     11          6           0        0.891686   -0.233405   -0.980583
     12          6           0        1.831913    0.936025   -1.340587
     13          6           0        0.665861   -1.155988   -2.196695
     14          6           0       -4.202551    1.669054    1.313787
     15          6           0       -3.976896    2.591406    2.530107
     16          6           0       -5.142822    0.499548    1.673432
     17          1           0        1.394548   -0.826779   -0.215374
     18          1           0        2.071377    1.519256   -0.444633
     19          1           0        1.340056    1.588030   -2.065955
     20          1           0        2.776207    0.561023   -1.764973
     21          1           0        0.088670   -2.038807   -1.900518
     22          1           0        1.627052   -1.500363   -2.608906
     23          1           0        0.112596   -0.613620   -2.966716
     24          1           0       -4.705318    2.262570    0.548625
     25          1           0       -4.938144    2.935692    2.942258
     26          1           0       -3.399673    3.474288    2.234179
     27          1           0       -3.423733    2.048891    3.300097
     28          1           0       -6.087175    0.874465    2.097764
     29          1           0       -4.651059   -0.152599    2.398734
     30          1           0       -5.382166   -0.083504    0.777328
 ---------------------------------------------------------------------

 SCF Done:  E(UB3LYP) =  -5764.60912162     A.U. after    2 cycles

 Alpha  occ. eigenvalues -- -482.56503-482.56503 -62.21778 -62.21778 -56.03764
 Alpha  occ. eigenvalues --  -56.03764 -56.03463 -56.03463 -56.03433 -56.03432
 Alpha  occ. eigenvalues --  -18.76937 -18.76936  -9.94277  -9.94276  -9.94097
 Alpha  occ. eigenvalues --   -9.94096  -9.93560  -9.93559  -9.92520  -9.92519
 Alpha  occ. eigenvalues --   -9.92519  -9.92518  -9.90766  -9.90765  -8.42724
 Alpha  occ. eigenvalues --   -8.42724  -6.25700  -6.25700  -6.24692  -6.24692
 Alpha  occ. eigenvalues --   -6.24604  -6.24604  -2.36820  -2.36820  -2.36549
 Alpha  occ. eigenvalues --   -2.36549  -2.36482  -2.36482  -2.35680  -2.35679
 Alpha  occ. eigenvalues --   -2.35679  -2.35679  -0.69321  -0.68848  -0.57943
 Alpha  occ. eigenvalues --   -0.56844  -0.54043  -0.52923  -0.50023  -0.45070
 Alpha  occ. eigenvalues --   -0.45067  -0.44662  -0.40320  -0.37576  -0.33037
 Alpha  occ. eigenvalues --   -0.29601  -0.27222  -0.24656  -0.21012  -0.20586
 Alpha  occ. eigenvalues --   -0.20338  -0.18035  -0.17937  -0.17630  -0.15605
 Alpha  occ. eigenvalues --   -0.15549  -0.15270  -0.13199  -0.12521  -0.11520
 Alpha  occ. eigenvalues --   -0.11137  -0.10543  -0.10139  -0.10105  -0.08977
 Alpha  occ. eigenvalues --   -0.08411  -0.08047  -0.07930  -0.04555  -0.04036
 Alpha  occ. eigenvalues --   -0.02850  -0.02154   0.01962   0.03145   0.04940
 Alpha  occ. eigenvalues --    0.05097   0.12207
 Alpha virt. eigenvalues --    0.16273   0.16320   0.18228   0.18441   0.18945
 Alpha virt. eigenvalues --    0.19162   0.19982   0.20788   0.21322   0.21858
 Alpha virt. eigenvalues --    0.21951   0.22790   0.22867   0.23578   0.24117

  Beta  occ. eigenvalues -- -482.56503-482.56503 -62.21778 -62.21778 -56.03764
  Beta  occ. eigenvalues --  -56.03764 -56.03463 -56.03463 -56.03433 -56.03432
  Beta  occ. eigenvalues --  -18.76937 -18.76936  -9.94277  -9.94276  -9.94097
  Beta  occ. eigenvalues --   -9.94096  -9.93560  -9.93559  -9.92520  -9.92519
  Beta  occ. eigenvalues --   -9.92519  -9.92518  -9.90766  -9.90765  -8.42724
  Beta  occ. eigenvalues --   -8.42724  -6.25700  -6.25700  -6.24692  -6.24692
  Beta  occ. eigenvalues --   -6.24604  -6.24604  -2.36820  -2.36820  -2.36549
  Beta  occ. eigenvalues --   -2.36549  -2.36482  -2.36482  -2.35680  -2.35679
  Beta  occ. eigenvalues --   -2.35679  -2.35679  -0.69321  -0.68848  -0.57943
  Beta  occ. eigenvalues --   -0.56844  -0.54043  -0.52923  -0.50023  -0.45070
  Beta  occ. eigenvalues --   -0.45067  -0.44662  -0.40320  -0.37576  -0.33037
  Beta  occ. eigenvalues --   -0.29601  -0.27222  -0.24656  -0.21012  -0.20586
  Beta  occ. eigenvalues --   -0.20338  -0.18035  -0.17937  -0.17630  -0.15605
  Beta  occ. eigenvalues --   -0.15549  -0.15270  -0.13199  -0.12521  -0.11520
  Beta  occ. eigenvalues --   -0.11137  -0.10543  -0.10139  -0.10105  -0.08977
  Beta  occ. eigenvalues --   -0.08411  -0.08047  -0.07930  -0.04555  -0.04036
  Beta  occ. eigenvalues --   -0.02850  -0.02154   0.01962   0.03145   0.04940
  Beta  occ. eigenvalues --    0.05097   0.12207
  Beta virt. eigenvalues --    0.16273   0.16320   0.18228   0.18441   0.18945
  Beta virt. eigenvalues --    0.19162   0.19982   0.20788   0.21322   0.21858
  Beta virt. eigenvalues --    0.21951   0.22790   0.22867   0.23578   0.24117

 Mulliken charges and spin densities:
               1          2
     1  C   -1.203650   0.000000
     2  C    1.525195  -0.000000
     3  C   -0.244563  -0.000000
     4  C   -1.203626  -0.000000
     5  C    1.525180   0.000000
     6  C   -0.244581  -0.000000
     7  O   -0.433295   0.000000
     8  O   -0.433293  -0.000000
     9  Br  -0.383691  -0.000000
    10  Br  -0.383691   0.000000
    11  C    0.294197  -0.000000
    12  C   -0.710561   0.000000
    13  C   -0.710711   0.000000
    14  C    0.294205  -0.000000
    15  C   -0.710533  -0.000000
    16  C   -0.710747   0.000000
    17  H    0.142511  -0.000000
    18  H    0.096823   0.000000
    19  H    0.209739  -0.000000
    20  H    0.055702   0.000000
    21  H    0.096747   0.000000
    22  H    0.055761   0.000000
    23  H    0.209801  -0.000000
    24  H    0.142506   0.000000
    25  H    0.055781   0.000000
    26  H    0.096724   0.000000
    27  H    0.209799  -0.000000
    28  H    0.055685   0.000000
    29  H    0.209738  -0.000000
    30  H    0.096848   0.000000
 Sum of Mulliken charges =  -2.00000   0.00000

 Dipole moment (field-independent basis, Debye):
    X=             15.9024    Y=             -6.8961    Z=             -1.6007  Tot=             17.4071
 Quadrupole moment (field-independent basis, Debye-Ang):
   XX=           -195.5931   YY=           -158.3612   ZZ=           -192.3588
   XY=             25.2432   XZ=             10.6973   YZ=             16.2479

  Exact polarizability: 291.090 -57.938 217.353 -17.807 -26.470 263.109
 Approx polarizability: 391.777 -73.573 317.491 -11.913 -61.709 418.270

                      1                      2                      3
                      A                      A                      A
 Frequencies --     40.3674                57.2419                66.4856
 Red. masses --      5.7150                 3.9725                 3.8279
 Frc consts  --      0.0055                 0.0077                 0.0100
 IR Inten    --      0.0758                 6.0928                 0.0000

                      4                      5                      6
                      A                      A                      A
 Frequencies --     67.6575                87.3858               138.8206
 Red. masses --      3.8256                 3.9471                 7.0095
 Frc consts  --      0.0103                 0.0178                 0.0796
 IR Inten    --      1.5224                 0.0000                 3.6125

                      7                      8                      9
                      A                      A                      A
 Frequencies --    148.5452               168.2452               182.0454
 Red. masses --      5.2945                 4.5151                45.1805
 Frc consts  --      0.0688                 0.0753                 0.8822
 IR Inten    --      0.0000                 5.8703                 0.0000

                     10                     11                     12
                      A                      A                      A
 Frequencies --    185.4512               213.4243               227.9371
 Red. masses --      5.4179                 3.4309                 1.9683
 Frc consts  --      0.1098                 0.0921                 0.0603
 IR Inten    --      6.2281                 0.0000                 0.0000

                     13                     14                     15
                      A                      A                      A
 Frequencies --    234.4840               234.7553               246.5806
 Red. masses --      1.0556                 1.0945                 1.1450
 Frc consts  --      0.0342                 0.0355                 0.0410
 IR Inten    --      0.5159                 0.0000                 3.0384

                     16                     17                     18
                      A                      A                      A
 Frequencies --    259.7242               295.6721               299.3496
 Red. masses --      1.3240                 6.9083                 8.0202
 Frc consts  --      0.0526                 0.3558                 0.4234
 IR Inten    --      0.0000                 0.0000                 0.9043

                     19                     20                     21
                      A                      A                      A
 Frequencies --    309.0047               312.0132               314.7335
 Red. masses --     12.1063                 2.9049                 4.2221
 Frc consts  --      0.6811                 0.1666                 0.2464
 IR Inten    --      0.0000                 5.6966                 1.1834

                     22                     23                     24
                      A                      A                      A
 Frequencies --    428.8178               433.3844               462.9016
 Red. masses --      2.7436                 5.2637                 2.7367
 Frc consts  --      0.2972                 0.5825                 0.3455
 IR Inten    --      0.0000                26.2298                 7.7777

                     25                     26                     27
                      A                      A                      A
 Frequencies --    463.5931               470.1288               518.5750
 Red. masses --      5.3865                 4.8754                 4.8133
 Frc consts  --      0.6821                 0.6349                 0.7626
 IR Inten    --      0.0000                 0.0000                 0.0000

                     28                     29                     30
                      A                      A                      A
 Frequencies --    583.0412               679.8197               721.6426
 Red. masses --      8.6033                 3.8965                 9.6042
 Frc consts  --      1.7231                 1.0610                 2.9468
 IR Inten    --      0.1117               142.6972                 6.7866

                     31                     32                     33
                      A                      A                      A
 Frequencies --    731.0578               741.4559               768.1082
 Red. masses --      6.2313                10.1658                 7.0695
 Frc consts  --      1.9622                 3.2928                 2.4575
 IR Inten    --      0.0000                 0.0000                 0.0000

                     34                     35                     36
                      A                      A                      A
 Frequencies --    843.8423               862.6239               922.5184
 Red. masses --      4.3304                 2.7673                 1.1533
 Frc consts  --      1.8168                 1.2133                 0.5783
 IR Inten    --    114.4043                 0.0000                 0.0011

                     37                     38                     39
                      A                      A                      A
 Frequencies --    922.5942               933.9825               947.7026
 Red. masses --      1.1529                 3.4299                 1.6040
 Frc consts  --      0.5782                 1.7628                 0.8488
 IR Inten    --      3.3220                79.3414                 2.4403

                     40                     41                     42
                      A                      A                      A
 Frequencies --    947.7049              1023.5495              1026.7630
 Red. masses --      1.6037                 2.4044                 1.9021
 Frc consts  --      0.8486                 1.4842                 1.1815
 IR Inten    --      0.2664                 0.0000               155.5679

                     43                     44                     45
                      A                      A                      A
 Frequencies --   1101.9377              1115.5996              1118.2847
 Red. masses --      8.5166                 2.3950                 2.4020
 Frc consts  --      6.0930                 1.7562                 1.7698
 IR Inten    --    286.5428                 0.0000                 9.6743

                     46                     47                     48
                      A                      A                      A
 Frequencies --   1135.1225              1184.1926              1193.9906
 Red. masses --      2.0968                 2.0364                 2.0498
 Frc consts  --      1.5918                 1.6825                 1.7217
 IR Inten    --      0.0000                 9.2486                 0.0000

                     49                     50                     51
                      A                      A                      A
 Frequencies --   1221.1688              1331.8579              1336.9059
 Red. masses --      4.0239                 2.6399                 1.7091
 Frc consts  --      3.5355                 2.7590                 1.7998
 IR Inten    --     23.9156                 0.0000               127.4687

                     52                     53                     54
                      A                      A                      A
 Frequencies --   1346.6318              1346.6509              1362.6236
 Red. masses --      1.2116                 1.2116                 1.3571
 Frc consts  --      1.2945                 1.2945                 1.4846
 IR Inten    --      0.0273                 8.4083                 0.0000

                     55                     56                     57
                      A                      A                      A
 Frequencies --   1362.7916              1362.8456              1363.7623
 Red. masses --      1.3093                 1.2665                 1.4229
 Frc consts  --      1.4326                 1.3860                 1.5592
 IR Inten    --      0.0546                35.3363               147.3787

                     58                     59                     60
                      A                      A                      A
 Frequencies --   1389.0368              1397.8975              1401.3733
 Red. masses --      2.0729                 3.6616                 5.7052
 Frc consts  --      2.3564                 4.2158                 6.6013
 IR Inten    --      0.0000               112.7371                 0.0000

                     61                     62                     63
                      A                      A                      A
 Frequencies --   1437.7507              1466.0985              1466.3073
 Red. masses --      3.1490                 1.0400                 1.0401
 Frc consts  --      3.8352                 1.3171                 1.3176
 IR Inten    --    596.5776                 0.0000                 0.5802

                     64                     65                     66
                      A                      A                      A
 Frequencies --   1482.8666              1487.4588              1506.5991
 Red. masses --      1.0795                 1.1578                 1.0542
 Frc consts  --      1.3985                 1.5093                 1.4098
 IR Inten    --      0.0000                31.7599                 0.0002

                     67                     68                     69
                      A                      A                      A
 Frequencies --   1506.6565              1520.0388              1521.6014
 Red. masses --      1.0542                 1.0645                 1.0681
 Frc consts  --      1.4100                 1.4491                 1.4570
 IR Inten    --      1.1386                 0.0000                 5.8665

                     70                     71                     72
                      A                      A                      A
 Frequencies --   1577.4547              2951.1832              2951.1852
 Red. masses --      8.2165                 1.0516                 1.0515
 Frc consts  --     12.0463                 5.3963                 5.3960
 IR Inten    --      0.0000               107.6771                 3.3097

                     73                     74                     75
                      A                      A                      A
 Frequencies --   2960.8699              2963.0187              3032.5543
 Red. masses --      1.0506                 1.0503                 1.0827
 Frc consts  --      5.4266                 5.4327                 5.8666
 IR Inten    --    817.4175                 0.0000                 0.0004

                     76                     77                     78
                      A                      A                      A
 Frequencies --   3032.9054              3035.7537              3035.9412
 Red. masses --      1.0827                 1.0835                 1.0836
 Frc consts  --      5.8677                 5.8831                 5.8843
 IR Inten    --    132.7702                88.6768                 0.0010

                     79                     80                     81
                      A                      A                      A
 Frequencies --   3058.4312              3058.6407              3088.7396
 Red. masses --      1.0842                 1.0842                 1.0997
 Frc consts  --      5.9752                 5.9761                 6.1811
 IR Inten    --     40.7316                 0.0053                 0.4754

                     82                     83                     84
                      A                      A                      A
 Frequencies --   3088.7464              3096.1693              3096.1727
 Red. masses --      1.0997                 1.0973                 1.0973
 Frc consts  --      6.1812                 6.1978                 6.1979
 IR Inten    --      0.0336                 1.7952                36.6021

 - Thermochemistry -
 -------------------
 Temperature   298.150 Kelvin.  Pressure   1.00000 Atm.
 Atom     1 has atomic number  6 and mass  12.00000

 Molecular mass:   347.93605 amu.
 Principal axes and moments of inertia in atomic units:
                           1         2         3
     Eigenvalues --  4364.431737801.88949**********
           X            0.72153  -0.51862   0.45872
           Y           -0.56576  -0.05969   0.82241
           Z            0.39914   0.85292   0.33648
 This molecule is an asymmetric top.
 Rotational symmetry number  1.
 Warning -- assumption of classical behavior for rotation
           may cause significant error
 Rotational temperatures (Kelvin)      0.01985     0.01110     0.00761
 Rotational constants (GHZ):           0.41351     0.23132     0.15858
 Zero-point vibrational energy     598249.8 (Joules/Mol)
                                  142.98512 (Kcal/Mol)
 Warning -- explicit consideration of  28 degrees of freedom as
           vibrations may cause significant error
 Vibrational temperatures:     58.08    82.36    95.66    97.34   125.73
          (Kelvin)            199.73   213.72   242.07   261.92   266.82
                              307.07   327.95   337.37   337.76   354.77
                              373.69   425.41   430.70   444.59   448.92
                              452.83   616.97   623.54   666.01   667.01
                              676.41   746.11   838.87   978.11  1038.28
                             1051.83  1066.79  1105.14  1214.10  1241.12
                             1327.30  1327.41  1343.79  1363.53  1363.54
                             1472.66  1477.28  1585.44  1605.10  1608.96
                             1633.19  1703.79  1717.89  1756.99  1916.25
                             1923.51  1937.50  1937.53  1960.51  1960.75
                             1960.83  1962.15  1998.51  2011.26  2016.26
                             2068.60  2109.39  2109.69  2133.51  2140.12
                             2167.66  2167.74  2187.00  2189.25  2269.61
                             4246.09  4246.10  4260.03  4263.12  4363.17
                             4363.67  4367.77  4368.04  4400.40  4400.70
                             4444.01  4444.02  4454.70  4454.70

 Zero-point correction=                           0.227861 (Hartree/Particle)
 Thermal correction to Energy=                    0.245850
 Thermal correction to Enthalpy=                  0.246794
 Thermal correction to Gibbs Free Energy=         0.181004
 Sum of electronic and zero-point Energies=          -5764.381260
 Sum of electronic and thermal Energies=             -5764.363272
 Sum of electronic and thermal Enthalpies=           -5764.362327
 Sum of electronic and thermal Free Energies=        -5764.428118

                     E (Thermal)             CV                S
                      KCal/Mol        Cal/Mol-Kelvin    Cal/Mol-Kelvin
 Total                  154.273             65.071            138.467
 Electronic               0.000              0.000              0.000
 Translational            0.889              2.981             43.435
 Rotational               0.889              2.981             34.315
 Vibrational            152.496             59.110             60.718
 Vibration     1          0.594              1.981              5.241
 Vibration     2          0.596              1.975              4.550
 Vibration     3          0.598              1.970              4.255
 Vibration     4          0.598              1.970              4.220
 Vibration     5          0.601              1.958              3.718
 Vibration     6          0.614              1.915              2.820
 Vibration     7          0.618              1.904              2.691
 Vibration     8          0.625              1.882              2.455
 Vibration     9          0.630              1.864              2.307
 Vibration    10          0.632              1.860              2.273
 Vibration    11          0.644              1.820              2.014
 Vibration    12          0.651              1.798              1.895
 Vibration    13          0.654              1.788              1.844
 Vibration    14          0.655              1.788              1.842
 Vibration    15          0.661              1.768              1.755
 Vibration    16          0.668              1.746              1.664
 Vibration    17          0.690              1.682              1.441
 Vibration    18          0.692              1.675              1.421
 Vibration    19          0.698              1.657              1.368
 Vibration    20          0.700              1.651              1.352
 Vibration    21          0.702              1.646              1.337
 Vibration    22          0.790              1.407              0.863
 Vibration    23          0.794              1.397              0.848
 Vibration    24          0.821              1.332              0.758
 Vibration    25          0.821              1.331              0.756
 Vibration    26          0.827              1.316              0.737
 Vibration    27          0.874              1.209              0.613
 Vibration    28          0.940              1.068              0.480

 Optimization completed.
    -- Stationary point found.
 Normal termination of Gaussian 16 at Mon Dec 18 00:03:47 2023.
