 Q-Chem 5.4, Q-Chem, Inc., Pleasanton, CA (2021)
 Q-Chem 5.4.0 for Intel X86 EM64T Linux

User input:
--------------------------------------------------------------
$molecule
-2 1
C                  5.7558610000     -5.2813300000      1.2502050000
C                  6.7304960000     -5.1597080000      0.2846340000
C                  6.6120560000     -4.1344540000     -0.6891050000
C                  4.6363850000     -4.4154320000      1.3045180000
C                  4.5052270000     -3.3541210000      0.3044760000
C                  5.5378630000     -3.2533990000     -0.6896360000
C                  3.6652430000     -4.6365010000      2.3710160000
C                  2.5840790000     -3.7246060000      2.3442830000
C                  2.4472340000     -2.7016880000      1.3897670000
C                  3.3594160000     -2.4429130000      0.3346810000
O                  3.7965270000     -5.5843570000      3.2518850000
O                  3.1775190000     -1.4774270000     -0.5204550000
H                  5.7980360000     -6.0482400000      2.0183560000
C                  5.5096340000     -2.1948210000     -1.7768570000
H                  7.5834850000     -5.8380130000      0.2628700000
H                  7.3778820000     -4.0295830000     -1.4580160000
H                  1.8237800000     -3.8404920000      3.1191150000
H                  1.5821270000     -2.0382670000      1.4380060000
H                  5.4839940000     -1.1873400000     -1.3562540000
H                  4.6022390000     -2.2632710000     -2.3806830000
H                  6.3952180000     -2.3064510000     -2.4221150000
$end
$rem
MAX_SCF_CYCLES=200
BASIS  =  6-311++G(d,p)
GUI  =  2
JOB_TYPE  =  SP
METHOD  =  B3LYP
SOLVENT_METHOD = COSMO
$end
$solvent
dielectric 37.219
opticaldielectric 1.43
$end

--------------------------------------------------------------

             Standard Nuclear Orientation (Angstroms)
    I     Atom           X                Y                Z
 ----------------------------------------------------------------
    1      C       0.4743055300    -2.0622654324    -0.0003255956
    2      C      -0.8009498300    -2.5826080212    -0.0004107864
    3      C      -1.9077613796    -1.6947400369    -0.0001379447
    4      C       0.7192323756    -0.6672863832    -0.0000901377
    5      C      -0.4161384867     0.2571596466    -0.0001561467
    6      C      -1.7336253681    -0.3163985014     0.0001014797
    7      C       2.1107792596    -0.2279648002     0.0002054479
    8      C       2.2556917124     1.1792249867     0.0003597119
    9      C       1.1737666540     2.0767920694     0.0000715766
   10      C      -0.1950860546     1.7046509196    -0.0003709480
   11      O       3.1083260564    -1.0625287909     0.0003246574
   12      O      -1.1548916785     2.5851508887    -0.0009021137
   13      H       1.3558239359    -2.6970180802    -0.0004431432
   14      C      -2.9860113692     0.5409009558     0.0009418053
   15      H      -0.9649474674    -3.6602286730    -0.0007015812
   16      H      -2.9214467223    -2.0961793237     0.0000613738
   17      H       3.2756408943     1.5685222073     0.0006807239
   18      H       1.3701955078     3.1502352447     0.0000979842
   19      H      -3.0164668129     1.2087145971    -0.8625856493
   20      H      -3.0154870333     1.2081199628     0.8650059862
   21      H      -3.8760055872    -0.1079351333     0.0013731823
 ----------------------------------------------------------------

   11    -574.5482256306      8.85e-06  Convergence criterion met
 Total energy in the final basis set =     -574.5482256306
    6    -574.8410640681      3.01e-06  Convergence criterion met
 Total energy in the final basis set =     -574.8410640681

                    Orbital Energies (a.u.)
 --------------------------------------------------------------

 Alpha MOs
 -- Occupied --
-19.0220 -19.0162 -10.1745 -10.1718 -10.1608 -10.1487 -10.1459 -10.1442
-10.1419 -10.1408 -10.1392 -10.1224 -10.1203  -0.9335  -0.9285  -0.8264
 -0.7650  -0.7449  -0.7015  -0.6642  -0.6366  -0.5808  -0.5731  -0.5113
 -0.4725  -0.4647  -0.4391  -0.4187  -0.3968  -0.3913  -0.3794  -0.3746
 -0.3606  -0.3580  -0.3558  -0.3382  -0.3192  -0.3130  -0.3117  -0.3051
 -0.2285  -0.2225  -0.2164  -0.2027  -0.1940  -0.1168

          Ground-State Mulliken Net Atomic Charges

     Atom                 Charge (a.u.)
  ----------------------------------------
      1 C                     0.241980
      2 C                    -0.591581
      3 C                    -0.607474
      4 C                     0.175979
      5 C                     0.169020
      6 C                     0.652163
      7 C                    -0.269997
      8 C                    -0.138112
      9 C                    -0.265922
     10 C                    -0.608252
     11 O                    -0.771834
     12 O                    -0.721289
     13 H                     0.154850
     14 C                    -0.457326
     15 H                     0.187454
     16 H                     0.125310
     17 H                     0.142998
     18 H                     0.141862
     19 H                     0.152009
     20 H                     0.151777
     21 H                     0.136385
  ----------------------------------------
  Sum of atomic charges =    -2.000000

                    Cartesian Multipole Moments
 -----------------------------------------------------------------
    Charge (ESU x 10^10)
                -9.6064
    Dipole Moment (Debye)
         X      -8.7571      Y      -5.2414      Z       0.0012
       Tot      10.2058
    Quadrupole Moments (Debye-Ang)
        XX    -129.9931     XY      21.7276     YY    -118.2476
        XZ      -0.0093     YZ       0.0084     ZZ     -87.5128

 Total job time:  34.92s(wall), 260.15s(cpu)
        *  Thank you very much for using Q-Chem.  Have a nice day.  *
