 Gaussian 16, Revision A.03,
 Gaussian 16:  ES64L-G16RevA.03 25-Dec-2016

 ----------------------------------------------------------------------
 #P UB3LYP/6-311++G(d,p) nosym opt freq SCRF=(PCM,Solvent=n,n-DiMethylF
 ormamide)
 ----------------------------------------------------------------------

 -------
 Reduced
 -------
 Symbolic Z-matrix:
 Charge = -2 Multiplicity = 1

 SCF Done:  E(UB3LYP) =  -838.307504211     A.U. after   19 cycles
 SCF Done:  E(UB3LYP) =  -838.308879087     A.U. after   14 cycles
 SCF Done:  E(UB3LYP) =  -838.307138496     A.U. after   15 cycles
 SCF Done:  E(UB3LYP) =  -838.309471428     A.U. after   14 cycles
 SCF Done:  E(UB3LYP) =  -838.309616112     A.U. after   14 cycles
 SCF Done:  E(UB3LYP) =  -838.309688624     A.U. after   12 cycles
 SCF Done:  E(UB3LYP) =  -838.309741019     A.U. after   13 cycles
 SCF Done:  E(UB3LYP) =  -838.309762012     A.U. after   12 cycles
 SCF Done:  E(UB3LYP) =  -838.309765251     A.U. after   12 cycles
 SCF Done:  E(UB3LYP) =  -838.309765821     A.U. after   10 cycles
 Optimization completed.
    -- Stationary point found.
 Normal termination of Gaussian 16 at Sun Feb 11 03:10:36 2024.

 ----------------------------------------------------------------------
 #P Geom=AllCheck Guess=TCheck SCRF=Check GenChk UB3LYP/6-311++G(d,p) F
 req
 ----------------------------------------------------------------------

 Structure from the checkpoint file:  "272-an.chk"
 -------
 Reduced
 -------
 Charge = -2 Multiplicity = 1

                          Input orientation:
 ---------------------------------------------------------------------
 Center     Atomic      Atomic             Coordinates (Angstroms)
 Number     Number       Type             X           Y           Z
 ---------------------------------------------------------------------
      1          6           0       -0.848942    3.865883   -0.204456
      2          6           0       -2.013187    3.146711   -0.037754
      3          6           0       -1.963738    1.730982    0.062877
      4          6           0        0.426888    3.238560   -0.276936
      5          6           0        0.474188    1.793888   -0.168063
      6          6           0       -0.744574    1.087013   -0.003741
      7          6           0        1.613057    4.022852   -0.467798
      8          6           0        2.838640    3.310248   -0.522200
      9          6           0        2.885756    1.905393   -0.351845
     10          6           0        1.728351    1.092005   -0.220537
     11          8           0        1.598625    5.334083   -0.608531
     12          8           0        1.833417   -0.213854   -0.172618
     13          7           0        3.991752    4.063485   -0.838023
     14          1           0       -0.875970    4.946936   -0.285804
     15          1           0       -2.968888    3.660065    0.015295
     16          1           0       -2.879224    1.161891    0.192116
     17          1           0       -0.690937    0.005917    0.070646
     18          1           0        3.756628    5.046511   -0.724162
     19          1           0        4.799970    3.790394   -0.283806
     20          7           0        4.078183    1.127125   -0.454049
     21          1           0        3.817318    0.165461   -0.669771
     22          6           0        5.305105    1.303772    0.082815
     23          6           0        6.268055    0.136404   -0.097456
     24          6           0        7.506811    0.521499   -0.918476
     25          8           0        5.672239    2.333250    0.676394
     26          1           0        5.762419   -0.714857   -0.560501
     27          1           0        6.579557   -0.175461    0.904969
     28          1           0        7.231045    0.807703   -1.937260
     29          1           0        8.199918   -0.321092   -0.980587
     30          1           0        8.032471    1.360854   -0.458656
 ---------------------------------------------------------------------

 SCF Done:  E(UB3LYP) =  -838.309765821     A.U. after    1 cycles

 Alpha  occ. eigenvalues --  -19.08317 -19.02506 -19.01446 -14.32957 -14.27476
 Alpha  occ. eigenvalues --  -10.26378 -10.17524 -10.17196 -10.16561 -10.16335
 Alpha  occ. eigenvalues --  -10.16268 -10.15961 -10.14766 -10.14655 -10.14537
 Alpha  occ. eigenvalues --  -10.14390 -10.13725 -10.13677  -1.02764  -0.94533
 Alpha  occ. eigenvalues --   -0.92498  -0.90498  -0.86165  -0.82344  -0.77440
 Alpha  occ. eigenvalues --   -0.75513  -0.72187  -0.70107  -0.65565  -0.63320
 Alpha  occ. eigenvalues --   -0.59825  -0.58413  -0.55404  -0.53340  -0.50554
 Alpha  occ. eigenvalues --   -0.48938  -0.47878  -0.46986  -0.44573  -0.43696
 Alpha  occ. eigenvalues --   -0.42581  -0.41673  -0.40886  -0.40415  -0.39461
 Alpha  occ. eigenvalues --   -0.39097  -0.37574  -0.36709  -0.36004  -0.35780
 Alpha  occ. eigenvalues --   -0.34591  -0.34389  -0.33255  -0.32201  -0.32041
 Alpha  occ. eigenvalues --   -0.30249  -0.28086  -0.26879  -0.25548  -0.22809
 Alpha  occ. eigenvalues --   -0.22132  -0.20902  -0.19772  -0.18122  -0.11191
 Alpha virt. eigenvalues --   -0.01067  -0.00174   0.00383   0.00942   0.01465
 Alpha virt. eigenvalues --    0.01831   0.02440   0.02708   0.03356   0.04010
 Alpha virt. eigenvalues --    0.04249   0.05022   0.05151   0.05750   0.06194

  Beta  occ. eigenvalues --  -19.08317 -19.02506 -19.01446 -14.32957 -14.27476
  Beta  occ. eigenvalues --  -10.26378 -10.17524 -10.17196 -10.16561 -10.16335
  Beta  occ. eigenvalues --  -10.16268 -10.15961 -10.14766 -10.14655 -10.14537
  Beta  occ. eigenvalues --  -10.14390 -10.13725 -10.13677  -1.02764  -0.94533
  Beta  occ. eigenvalues --   -0.92498  -0.90498  -0.86165  -0.82344  -0.77440
  Beta  occ. eigenvalues --   -0.75513  -0.72187  -0.70107  -0.65565  -0.63320
  Beta  occ. eigenvalues --   -0.59825  -0.58413  -0.55404  -0.53340  -0.50554
  Beta  occ. eigenvalues --   -0.48938  -0.47878  -0.46986  -0.44573  -0.43696
  Beta  occ. eigenvalues --   -0.42581  -0.41673  -0.40886  -0.40415  -0.39461
  Beta  occ. eigenvalues --   -0.39097  -0.37574  -0.36709  -0.36004  -0.35780
  Beta  occ. eigenvalues --   -0.34591  -0.34389  -0.33255  -0.32201  -0.32041
  Beta  occ. eigenvalues --   -0.30249  -0.28086  -0.26879  -0.25548  -0.22809
  Beta  occ. eigenvalues --   -0.22132  -0.20902  -0.19772  -0.18122  -0.11191
  Beta virt. eigenvalues --   -0.01067  -0.00174   0.00383   0.00942   0.01465
  Beta virt. eigenvalues --    0.01831   0.02440   0.02708   0.03356   0.04010
  Beta virt. eigenvalues --    0.04249   0.05022   0.05151   0.05750   0.06194

 Mulliken charges and spin densities:
               1          2
     1  C   -0.024275  -0.000000
     2  C   -0.352295   0.000000
     3  C   -0.437981   0.000000
     4  C    0.525458   0.000000
     5  C    0.113177  -0.000000
     6  C   -0.055235   0.000000
     7  C   -0.774737  -0.000000
     8  C    0.243871  -0.000000
     9  C    0.425865   0.000000
    10  C   -0.857338  -0.000000
    11  O   -0.729927   0.000000
    12  O   -0.675427   0.000000
    13  N   -0.484793  -0.000000
    14  H    0.142250  -0.000000
    15  H    0.153809   0.000000
    16  H    0.154150   0.000000
    17  H    0.144331  -0.000000
    18  H    0.275221   0.000000
    19  H    0.274424  -0.000000
    20  N    0.013133  -0.000000
    21  H    0.316213   0.000000
    22  C    0.061507  -0.000000
    23  C   -0.242978   0.000000
    24  C   -0.500345  -0.000000
    25  O   -0.478638  -0.000000
    26  H    0.138730   0.000000
    27  H    0.172297  -0.000000
    28  H    0.143623   0.000000
    29  H    0.157843  -0.000000
    30  H    0.158067   0.000000
 Sum of Mulliken charges =  -2.00000   0.00000

 Dipole moment (field-independent basis, Debye):
    X=            -16.9024    Y=            -28.1264    Z=              2.4046  Tot=             32.9024
 Quadrupole moment (field-independent basis, Debye-Ang):
   XX=           -169.3897   YY=           -241.1108   ZZ=           -122.9464
   XY=            -57.6658   XZ=             -0.2751   YZ=             13.4846

  Exact polarizability: 482.942   0.698 334.527 -14.829  -9.896 180.366
 Approx polarizability: 510.096  14.586 383.914 -13.672  -9.422 198.797

                      1                      2                      3
                      A                      A                      A
 Frequencies --     11.1157                49.2327                60.9980
 Red. masses --      2.8167                 5.6440                 3.7512
 Frc consts  --      0.0002                 0.0081                 0.0082
 IR Inten    --      1.8981                 3.9740                10.2098

                      4                      5                      6
                      A                      A                      A
 Frequencies --     87.3801               119.6410               137.5813
 Red. masses --      4.9458                 6.9880                 4.6749
 Frc consts  --      0.0222                 0.0589                 0.0521
 IR Inten    --      5.5570                16.2318                 2.8190

                      7                      8                      9
                      A                      A                      A
 Frequencies --    180.9375               195.3443               232.0628
 Red. masses --      4.9970                 1.9644                 3.5292
 Frc consts  --      0.0964                 0.0442                 0.1120
 IR Inten    --      1.1277                 4.3055                10.1925

                     10                     11                     12
                      A                      A                      A
 Frequencies --    236.9849               268.6270               280.2977
 Red. masses --      2.3303                 4.5104                 4.1380
 Frc consts  --      0.0771                 0.1918                 0.1915
 IR Inten    --      9.0819                27.6866                 3.2424

                     13                     14                     15
                      A                      A                      A
 Frequencies --    314.4640               341.8180               353.5125
 Red. masses --      4.8259                 4.1526                 4.7831
 Frc consts  --      0.2812                 0.2859                 0.3522
 IR Inten    --      0.3139                14.6012                15.5543

                     16                     17                     18
                      A                      A                      A
 Frequencies --    363.3461               395.1230               433.0615
 Red. masses --      7.3631                 7.7861                 7.2062
 Frc consts  --      0.5727                 0.7162                 0.7963
 IR Inten    --      8.5805                 2.3691                 6.4149

                     19                     20                     21
                      A                      A                      A
 Frequencies --    460.0729               483.9174               490.5777
 Red. masses --      2.6343                 2.1372                 2.0038
 Frc consts  --      0.3285                 0.2949                 0.2841
 IR Inten    --     16.3535                20.7042               107.9129

                     22                     23                     24
                      A                      A                      A
 Frequencies --    524.7036               549.2843               582.8335
 Red. masses --      5.4703                 4.2541                 4.3784
 Frc consts  --      0.8873                 0.7562                 0.8763
 IR Inten    --     12.0922                 2.9948                48.5176

                     25                     26                     27
                      A                      A                      A
 Frequencies --    653.1859               667.4474               679.7111
 Red. masses --      6.3341                 2.6965                 3.3440
 Frc consts  --      1.5922                 0.7078                 0.9103
 IR Inten    --     46.4559                72.8373                55.2183

                     28                     29                     30
                      A                      A                      A
 Frequencies --    688.8373               703.8459               710.2587
 Red. masses --      3.0954                 2.4992                 5.8627
 Frc consts  --      0.8654                 0.7295                 1.7425
 IR Inten    --    139.1679                 6.2350                 3.3558

                     31                     32                     33
                      A                      A                      A
 Frequencies --    748.4904               761.6870               776.1407
 Red. masses --      2.4668                 1.9952                 3.6839
 Frc consts  --      0.8143                 0.6820                 1.3075
 IR Inten    --     46.8722                34.3993                22.1316

                     34                     35                     36
                      A                      A                      A
 Frequencies --    800.4247               845.0195               846.9981
 Red. masses --      1.2906                 1.5984                 1.8158
 Frc consts  --      0.4872                 0.6725                 0.7675
 IR Inten    --     13.7770                17.6384               581.2534

                     37                     38                     39
                      A                      A                      A
 Frequencies --    866.3248               916.8192               950.5100
 Red. masses --      3.2706                 3.8976                 3.1857
 Frc consts  --      1.4462                 1.9302                 1.6958
 IR Inten    --    107.5406                38.5236                26.3511

                     40                     41                     42
                      A                      A                      A
 Frequencies --    959.3533               972.5680              1015.6605
 Red. masses --      1.3626                 1.2573                 2.5004
 Frc consts  --      0.7389                 0.7007                 1.5197
 IR Inten    --      2.8704                 0.7836                55.3787

                     43                     44                     45
                      A                      A                      A
 Frequencies --   1028.9476              1053.6060              1081.6148
 Red. masses --      2.7903                 3.4225                 1.9310
 Frc consts  --      1.7406                 2.2384                 1.3310
 IR Inten    --     36.8174               230.9000                 5.2513

                     46                     47                     48
                      A                      A                      A
 Frequencies --   1093.8457              1112.2340              1130.9774
 Red. masses --      1.9513                 1.7864                 1.4773
 Frc consts  --      1.3756                 1.3020                 1.1134
 IR Inten    --     53.8373                58.1066               114.8254

                     49                     50                     51
                      A                      A                      A
 Frequencies --   1156.0824              1183.2429              1201.8468
 Red. masses --      3.4194                 1.8386                 1.9527
 Frc consts  --      2.6926                 1.5166                 1.6618
 IR Inten    --    121.6519                82.2021               354.0843

                     52                     53                     54
                      A                      A                      A
 Frequencies --   1258.9451              1264.7654              1293.5412
 Red. masses --      2.8058                 1.6485                 1.8135
 Frc consts  --      2.6202                 1.5537                 1.7878
 IR Inten    --     84.5773               124.9699                79.0319

                     55                     56                     57
                      A                      A                      A
 Frequencies --   1300.8193              1324.4816              1369.4258
 Red. masses --      1.6974                 4.8869                 1.6009
 Frc consts  --      1.6923                 5.0510                 1.7689
 IR Inten    --     18.1367               359.6914                38.4959

                     58                     59                     60
                      A                      A                      A
 Frequencies --   1374.8861              1398.3492              1416.8035
 Red. masses --      7.7423                 1.2287                 4.9849
 Frc consts  --      8.6229                 1.4156                 5.8955
 IR Inten    --   1924.0841                 5.6143               145.3111

                     61                     62                     63
                      A                      A                      A
 Frequencies --   1439.8255              1459.6094              1469.2376
 Red. masses --      2.7964                 3.2264                 1.0881
 Frc consts  --      3.4156                 4.0498                 1.3839
 IR Inten    --     51.4787                26.5519                 8.0997

                     64                     65                     66
                      A                      A                      A
 Frequencies --   1486.2204              1497.1129              1505.5100
 Red. masses --      1.0435                 1.2096                 2.9576
 Frc consts  --      1.3580                 1.5974                 3.9497
 IR Inten    --     21.0822               104.4162               361.9796

                     67                     68                     69
                      A                      A                      A
 Frequencies --   1522.0213              1540.8687              1582.8037
 Red. masses --      4.4583                 2.6584                 1.7750
 Frc consts  --      6.0850                 3.7188                 2.6201
 IR Inten    --    119.2750               523.0334               136.5246

                     70                     71                     72
                      A                      A                      A
 Frequencies --   1596.3744              1604.4325              1647.4591
 Red. masses --      2.7316                 5.1710                 3.7896
 Frc consts  --      4.1015                 7.8427                 6.0601
 IR Inten    --     85.0017                29.1981               524.5058

                     73                     74                     75
                      A                      A                      A
 Frequencies --   3028.3967              3031.3481              3070.3868
 Red. masses --      1.0357                 1.0601                 1.1013
 Frc consts  --      5.5966                 5.7395                 6.1170
 IR Inten    --     55.6058                31.0224                17.5808

                     76                     77                     78
                      A                      A                      A
 Frequencies --   3090.9685              3104.6102              3136.9924
 Red. masses --      1.1027                 1.1025                 1.0845
 Frc consts  --      6.2069                 6.2608                 6.2878
 IR Inten    --     62.7436                55.2950                17.4131

                     79                     80                     81
                      A                      A                      A
 Frequencies --   3151.9481              3167.9516              3175.6581
 Red. masses --      1.0884                 1.0926                 1.0927
 Frc consts  --      6.3706                 6.4603                 6.4927
 IR Inten    --     29.5082                63.8250                61.1814

                     82                     83                     84
                      A                      A                      A
 Frequencies --   3433.6703              3453.4996              3528.9340
 Red. masses --      1.0486                 1.0752                 1.0967
 Frc consts  --      7.2841                 7.5552                 8.0472
 IR Inten    --     53.5285               208.9642               189.0979

 - Thermochemistry -
 -------------------
 Temperature   298.150 Kelvin.  Pressure   1.00000 Atm.
 Atom     1 has atomic number  6 and mass  12.00000

 Molecular mass:   244.08479 amu.
 Principal axes and moments of inertia in atomic units:
                           1         2         3
     Eigenvalues --  2011.685227130.100808902.78466
           X            0.97000   0.23997   0.03893
           Y           -0.24247   0.96659   0.08309
           Z           -0.01769  -0.09004   0.99578
 This molecule is an asymmetric top.
 Rotational symmetry number  1.
 Warning -- assumption of classical behavior for rotation
           may cause significant error
 Rotational temperatures (Kelvin)      0.04306     0.01215     0.00973
 Rotational constants (GHZ):           0.89713     0.25312     0.20272
 Zero-point vibrational energy     601042.5 (Joules/Mol)
                                  143.65260 (Kcal/Mol)
 Warning -- explicit consideration of  24 degrees of freedom as
           vibrations may cause significant error
 Vibrational temperatures:     15.99    70.83    87.76   125.72   172.14
          (Kelvin)            197.95   260.33   281.06   333.89   340.97
                              386.49   403.29   452.44   491.80   508.63
                              522.77   568.49   623.08   661.94   696.25
                              705.83   754.93   790.30   838.57   939.79
                              960.31   977.95   991.08  1012.68  1021.90
                             1076.91  1095.90  1116.69  1151.63  1215.79
                             1218.64  1246.45  1319.10  1367.57  1380.30
                             1399.31  1461.31  1480.43  1515.90  1556.20
                             1573.80  1600.26  1627.22  1663.34  1702.42
                             1729.19  1811.34  1819.72  1861.12  1871.59
                             1905.63  1970.30  1978.15  2011.91  2038.46
                             2071.59  2100.05  2113.91  2138.34  2154.01
                             2166.09  2189.85  2216.97  2277.30  2296.83
                             2308.42  2370.33  4357.19  4361.43  4417.60
                             4447.21  4466.84  4513.43  4534.95  4557.98
                             4569.06  4940.29  4968.82  5077.35

 Zero-point correction=                           0.228925 (Hartree/Particle)
 Thermal correction to Energy=                    0.244722
 Thermal correction to Enthalpy=                  0.245666
 Thermal correction to Gibbs Free Energy=         0.184432
 Sum of electronic and zero-point Energies=           -838.080841
 Sum of electronic and thermal Energies=              -838.065044
 Sum of electronic and thermal Enthalpies=            -838.064100
 Sum of electronic and thermal Free Energies=         -838.125334

                     E (Thermal)             CV                S
                      KCal/Mol        Cal/Mol-Kelvin    Cal/Mol-Kelvin
 Total                  153.565             61.207            128.877
 Electronic               0.000              0.000              0.000
 Translational            0.889              2.981             42.378
 Rotational               0.889              2.981             33.212
 Vibrational            151.788             55.245             53.287
 Vibration     1          0.593              1.987              7.801
 Vibration     2          0.595              1.978              4.848
 Vibration     3          0.597              1.973              4.425
 Vibration     4          0.601              1.958              3.718
 Vibration     5          0.609              1.933              3.106
 Vibration     6          0.614              1.916              2.837
 Vibration     7          0.630              1.866              2.319
 Vibration     8          0.636              1.846              2.177
 Vibration     9          0.653              1.792              1.863
 Vibration    10          0.656              1.784              1.825
 Vibration    11          0.673              1.731              1.605
 Vibration    12          0.680              1.710              1.532
 Vibration    13          0.702              1.646              1.339
 Vibration    14          0.721              1.592              1.204
 Vibration    15          0.730              1.568              1.150
 Vibration    16          0.737              1.548              1.108
 Vibration    17          0.762              1.481              0.981
 Vibration    18          0.794              1.398              0.849
 Vibration    19          0.818              1.339              0.766
 Vibration    20          0.840              1.286              0.700
 Vibration    21          0.846              1.271              0.682
 Vibration    22          0.880              1.195              0.599
 Vibration    23          0.905              1.141              0.546
 Vibration    24          0.940              1.068              0.480

                           ! Non-Optimized Parameters !
 Normal termination of Gaussian 16 at Sun Feb 11 03:44:08 2024.
