 Q-Chem 5.4, Q-Chem, Inc., Pleasanton, CA (2021)
 Q-Chem 5.4.0 for Intel X86 EM64T Linux

User input:
--------------------------------------------------------------
$molecule
-2 1
C                 -0.9838140000      3.9160650000      0.0124000000
C                 -2.1563630000      3.1990840000      0.1474640000
C                 -2.1234930000      1.7747450000      0.1284960000
C                  0.2792900000      3.2862310000     -0.1452320000
C                  0.3096250000      1.8303670000     -0.1543480000
C                 -0.9110090000      1.1264900000     -0.0202230000
C                  1.4661630000      4.0828980000     -0.3025750000
C                  2.6856890000      3.3545340000     -0.4639090000
C                  2.7151860000      1.9465620000     -0.3975520000
C                  1.5492130000      1.1237320000     -0.2905170000
O                  1.4721610000      5.3863720000     -0.3176470000
O                  1.6638070000     -0.1790190000     -0.3379590000
N                  3.8259050000      4.1315230000     -0.7519920000
H                 -0.9830400000      5.0021930000      0.0180560000
H                 -3.1058730000      3.7200940000      0.2659850000
H                 -3.0447190000      1.2033840000      0.2322720000
H                 -0.8528780000      0.0417740000     -0.0358620000
H                  3.5810160000      5.0964110000     -0.5337010000
H                  4.6694580000      3.7965080000     -0.2946500000
N                  3.8607200000      1.1159460000     -0.5694630000
C                  5.1570290000      1.2094060000     -0.2399160000
C                  5.9628800000     -0.0633130000     -0.5163630000
H                  3.4665320000      0.1698120000     -0.7017810000
H                  5.3451720000     -0.9075350000     -0.8338440000
H                  6.5111680000     -0.3353630000      0.3915400000
H                  6.7044190000      0.1456330000     -1.2953490000
O                  5.7532320000      2.1947030000      0.2342010000
$end

$rem
BASIS  =  6-311++G(d,p)
GUI  =  2
JOB_TYPE  =  SP
METHOD  =  B3LYP
SCF_CONVERGENCE  = 8
SOLVENT_METHOD = sm12
$end

$smx
solvent dimethylformamide
charges CM5
$end

--------------------------------------------------------------

             Standard Nuclear Orientation (Angstroms)
    I     Atom           X                Y                Z
 ----------------------------------------------------------------
    1      C      -0.9838140000     3.9160650000     0.0124000000
    2      C      -2.1563630000     3.1990840000     0.1474640000
    3      C      -2.1234930000     1.7747450000     0.1284960000
    4      C       0.2792900000     3.2862310000    -0.1452320000
    5      C       0.3096250000     1.8303670000    -0.1543480000
    6      C      -0.9110090000     1.1264900000    -0.0202230000
    7      C       1.4661630000     4.0828980000    -0.3025750000
    8      C       2.6856890000     3.3545340000    -0.4639090000
    9      C       2.7151860000     1.9465620000    -0.3975520000
   10      C       1.5492130000     1.1237320000    -0.2905170000
   11      O       1.4721610000     5.3863720000    -0.3176470000
   12      O       1.6638070000    -0.1790190000    -0.3379590000
   13      N       3.8259050000     4.1315230000    -0.7519920000
   14      H      -0.9830400000     5.0021930000     0.0180560000
   15      H      -3.1058730000     3.7200940000     0.2659850000
   16      H      -3.0447190000     1.2033840000     0.2322720000
   17      H      -0.8528780000     0.0417740000    -0.0358620000
   18      H       3.5810160000     5.0964110000    -0.5337010000
   19      H       4.6694580000     3.7965080000    -0.2946500000
   20      N       3.8607200000     1.1159460000    -0.5694630000
   21      C       5.1570290000     1.2094060000    -0.2399160000
   22      C       5.9628800000    -0.0633130000    -0.5163630000
   23      H       3.4665320000     0.1698120000    -0.7017810000
   24      H       5.3451720000    -0.9075350000    -0.8338440000
   25      H       6.5111680000    -0.3353630000     0.3915400000
   26      H       6.7044190000     0.1456330000    -1.2953490000
   27      O       5.7532320000     2.1947030000     0.2342010000
 ----------------------------------------------------------------

   17    -798.7099885510      9.89e-09  Convergence criterion met
 Total energy in the final basis set =     -798.9916955123

                    Orbital Energies (a.u.)
 --------------------------------------------------------------

 Alpha MOs
 -- Occupied --
-19.0890 -19.0389 -19.0268 -14.3387 -14.2944 -10.2738 -10.1896 -10.1827
-10.1809 -10.1805 -10.1748 -10.1725 -10.1710 -10.1697 -10.1675 -10.1546
-10.1539  -1.0311  -0.9615  -0.9427  -0.9156  -0.8798  -0.8425  -0.7776
 -0.7440  -0.7428  -0.7053  -0.6614  -0.6258  -0.6035  -0.5675  -0.5520
 -0.5227  -0.4985  -0.4893  -0.4793  -0.4539  -0.4488  -0.4354  -0.4302
 -0.4183  -0.4105  -0.4051  -0.3954  -0.3932  -0.3725  -0.3690  -0.3605
 -0.3519  -0.3403  -0.3344  -0.3205  -0.2936  -0.2834  -0.2615  -0.2471
 -0.2356  -0.2213  -0.2069  -0.1930  -0.1233

          Ground-State Mulliken Net Atomic Charges

     Atom                 Charge (a.u.)
  ----------------------------------------
      1 C                    -0.335478
      2 C                     1.602373
      3 C                     1.376402
      4 C                    -1.543838
      5 C                    -0.966566
      6 C                     0.149203
      7 C                    -2.193633
      8 C                    -0.339884
      9 C                     0.391299
     10 C                    -1.860049
     11 O                    -0.407067
     12 O                    -0.288959
     13 N                    -0.340914
     14 H                     0.095410
     15 H                     0.383176
     16 H                     0.392614
     17 H                     0.140700
     18 H                     0.263957
     19 H                     0.290346
     20 N                     0.069355
     21 C                    -0.356370
     22 C                     0.771866
     23 H                     0.305335
     24 H                     0.289170
     25 H                     0.263249
     26 H                     0.269194
     27 O                    -0.420890
  ----------------------------------------
  Sum of atomic charges =    -2.000000

                    Cartesian Multipole Moments
 -----------------------------------------------------------------
    Charge (ESU x 10^10)
                -9.6064
    Dipole Moment (Debye)
         X     -14.7762      Y     -27.8119      Z       2.2774
       Tot      31.5756
    Quadrupole Moments (Debye-Ang)
        XX    -175.2026     XY     -48.6316     YY    -232.3698
        XZ       3.0924     YZ       9.2033     ZZ    -115.4889

 Total job time:  677.74s(wall), 4663.24s(cpu)
        *  Thank you very much for using Q-Chem.  Have a nice day.  *
