 Gaussian 16, Revision A.03,
 Gaussian 16:  ES64L-G16RevA.03 25-Dec-2016

 ----------------------------------------------------------------------
 #P UB3LYP/6-311++G(d,p) nosym opt freq SCRF=(PCM,Solvent=n,n-DiMethylF
 ormamide)
 ----------------------------------------------------------------------

 -------
 Reduced
 -------
 Symbolic Z-matrix:
 Charge = -2 Multiplicity = 1

 SCF Done:  E(UB3LYP) =  -1485.66221979     A.U. after   15 cycles
 SCF Done:  E(UB3LYP) =  -1485.66267249     A.U. after   13 cycles
 SCF Done:  E(UB3LYP) =  -1485.66273925     A.U. after   13 cycles
 SCF Done:  E(UB3LYP) =  -1485.66275445     A.U. after   12 cycles
 SCF Done:  E(UB3LYP) =  -1485.66275813     A.U. after   11 cycles
 Optimization completed.
    -- Stationary point found.
 Normal termination of Gaussian 16 at Sat Feb 10 10:17:43 2024.

 ----------------------------------------------------------------------
 #P Geom=AllCheck Guess=TCheck SCRF=Check GenChk UB3LYP/6-311++G(d,p) F
 req
 ----------------------------------------------------------------------

 Structure from the checkpoint file:  "002-an.chk"
 -------
 Reduced
 -------
 Charge = -2 Multiplicity = 1

                          Input orientation:
 ---------------------------------------------------------------------
 Center     Atomic      Atomic             Coordinates (Angstroms)
 Number     Number       Type             X           Y           Z
 ---------------------------------------------------------------------
      1          6           0        0.078015    1.743400    0.000294
      2          6           0       -1.127778    0.921121   -0.000852
      3          6           0       -1.115703   -0.454680    0.000140
      4          6           0        0.104216   -1.255616    0.002272
      5          6           0        1.291670   -0.467488    0.002940
      6          6           0        1.278937    0.975870    0.001886
      7          8           0        0.036007    3.014165    0.000140
      8          8           0        0.084184   -2.526775    0.004757
      9          6           0        2.493333    1.693885    0.002518
     10          6           0        2.518188   -1.164849    0.004465
     11          7           0        3.496090    2.284570    0.002857
     12          7           0        3.530088   -1.739725    0.005465
     13         17           0       -2.646816    1.807338   -0.003814
     14         17           0       -2.618541   -1.368326   -0.001580
 ---------------------------------------------------------------------

 SCF Done:  E(UB3LYP) =  -1485.66275813     A.U. after    1 cycles

 Alpha  occ. eigenvalues -- -101.54995-101.54995 -19.05182 -19.05177 -14.29724
 Alpha  occ. eigenvalues --  -14.29723 -10.22972 -10.22911 -10.22506 -10.22501
 Alpha  occ. eigenvalues --  -10.20272 -10.20270 -10.18315 -10.18277  -9.46456
 Alpha  occ. eigenvalues --   -9.46455  -7.22898  -7.22898  -7.21980  -7.21980
 Alpha  occ. eigenvalues --   -7.21882  -7.21881  -0.98189  -0.97701  -0.90126
 Alpha  occ. eigenvalues --   -0.89506  -0.88717  -0.84118  -0.81851  -0.73855
 Alpha  occ. eigenvalues --   -0.71136  -0.62975  -0.59980  -0.50460  -0.50325
 Alpha  occ. eigenvalues --   -0.49793  -0.44516  -0.42520  -0.40586  -0.39529
 Alpha  occ. eigenvalues --   -0.39016  -0.37622  -0.37243  -0.36682  -0.36522
 Alpha  occ. eigenvalues --   -0.34288  -0.32996  -0.32817  -0.32686  -0.32184
 Alpha  occ. eigenvalues --   -0.31950  -0.30003  -0.25557  -0.23849  -0.23393
 Alpha  occ. eigenvalues --   -0.23116  -0.15905
 Alpha virt. eigenvalues --   -0.05116  -0.00854   0.01126   0.01745   0.02399
 Alpha virt. eigenvalues --    0.02544   0.03220   0.03452   0.04737   0.05025
 Alpha virt. eigenvalues --    0.05601   0.06048   0.06313   0.06719   0.07260

  Beta  occ. eigenvalues -- -101.54995-101.54995 -19.05182 -19.05177 -14.29724
  Beta  occ. eigenvalues --  -14.29723 -10.22972 -10.22911 -10.22506 -10.22501
  Beta  occ. eigenvalues --  -10.20272 -10.20270 -10.18315 -10.18277  -9.46456
  Beta  occ. eigenvalues --   -9.46455  -7.22898  -7.22898  -7.21980  -7.21980
  Beta  occ. eigenvalues --   -7.21882  -7.21881  -0.98189  -0.97701  -0.90126
  Beta  occ. eigenvalues --   -0.89506  -0.88717  -0.84118  -0.81851  -0.73855
  Beta  occ. eigenvalues --   -0.71136  -0.62975  -0.59980  -0.50460  -0.50325
  Beta  occ. eigenvalues --   -0.49793  -0.44516  -0.42520  -0.40586  -0.39529
  Beta  occ. eigenvalues --   -0.39016  -0.37622  -0.37243  -0.36682  -0.36522
  Beta  occ. eigenvalues --   -0.34288  -0.32996  -0.32817  -0.32686  -0.32184
  Beta  occ. eigenvalues --   -0.31950  -0.30003  -0.25557  -0.23849  -0.23393
  Beta  occ. eigenvalues --   -0.23116  -0.15905
  Beta virt. eigenvalues --   -0.05116  -0.00854   0.01126   0.01745   0.02399
  Beta virt. eigenvalues --    0.02544   0.03220   0.03452   0.04737   0.05025
  Beta virt. eigenvalues --    0.05601   0.06048   0.06313   0.06719   0.07260

 Mulliken charges and spin densities:
               1          2
     1  C   -1.539603   0.000000
     2  C    0.751368   0.000000
     3  C    0.749582  -0.000000
     4  C   -1.539024   0.000000
     5  C    1.804601   0.000000
     6  C    1.802211  -0.000000
     7  O   -0.550481  -0.000000
     8  O   -0.549985   0.000000
     9  C   -1.439900  -0.000000
    10  C   -1.437968  -0.000000
    11  N   -0.377847   0.000000
    12  N   -0.377965   0.000000
    13  Cl   0.352519  -0.000000
    14  Cl   0.352494  -0.000000
 Sum of Mulliken charges =  -2.00000   0.00000

 Dipole moment (field-independent basis, Debye):
    X=            -10.5475    Y=             -2.4236    Z=             -0.0249  Tot=             10.8224
 Quadrupole moment (field-independent basis, Debye-Ang):
   XX=           -159.6154   YY=           -167.2341   ZZ=            -97.2952
   XY=             -2.4900   XZ=             -0.0705   YZ=              0.0473

  Exact polarizability: 354.053   0.811 256.492   0.266  -0.110 103.190
 Approx polarizability: 407.905   0.922 295.314   0.293  -0.131 116.213

                      1                      2                      3
                      A                      A                      A
 Frequencies --     53.9933                59.8433                88.1106
 Red. masses --     19.4261                16.3414                16.8533
 Frc consts  --      0.0334                 0.0345                 0.0771
 IR Inten    --      0.1094                 1.8467                 0.0007

                      4                      5                      6
                      A                      A                      A
 Frequencies --    130.3253               152.6129               157.6695
 Red. masses --     13.9654                15.4566                13.4444
 Frc consts  --      0.1398                 0.2121                 0.1969
 IR Inten    --      1.1735                 4.3594                31.3487

                      7                      8                      9
                      A                      A                      A
 Frequencies --    215.3078               268.6163               274.8595
 Red. masses --     32.1077                19.2376                12.6559
 Frc consts  --      0.8770                 0.8178                 0.5633
 IR Inten    --      0.6121                 8.7333                 0.5106

                     10                     11                     12
                      A                      A                      A
 Frequencies --    325.5267               341.5236               347.1614
 Red. masses --     17.6615                20.4167                12.5397
 Frc consts  --      1.1027                 1.4031                 0.8904
 IR Inten    --      0.4103                 0.4628                 0.0000

                     13                     14                     15
                      A                      A                      A
 Frequencies --    364.4937               443.0833               448.6624
 Red. masses --     14.7043                14.6278                12.2802
 Frc consts  --      1.1510                 1.6920                 1.4564
 IR Inten    --      3.4301                 0.0044                 0.0000

                     16                     17                     18
                      A                      A                      A
 Frequencies --    492.5210               509.5892               543.0457
 Red. masses --     14.2603                13.8590                12.4903
 Frc consts  --      2.0381                 2.1204                 2.1702
 IR Inten    --     52.4365                 6.2176                 6.3914

                     19                     20                     21
                      A                      A                      A
 Frequencies --    564.0637               611.7371               734.9995
 Red. masses --     12.2198                12.1116                12.2168
 Frc consts  --      2.2907                 2.6704                 3.8885
 IR Inten    --      9.1778                 0.0000                15.4940

                     22                     23                     24
                      A                      A                      A
 Frequencies --    771.8336               772.4166               780.8562
 Red. masses --     12.1200                13.2645                12.4372
 Frc consts  --      4.2540                 4.6628                 4.4680
 IR Inten    --      0.0008                80.4764                 4.9430

                     25                     26                     27
                      A                      A                      A
 Frequencies --    852.7826              1022.5043              1034.3767
 Red. masses --     12.8292                12.7841                12.3110
 Frc consts  --      5.4970                 7.8750                 7.7607
 IR Inten    --    205.1167                59.5048               719.3193

                     28                     29                     30
                      A                      A                      A
 Frequencies --   1208.5678              1223.3934              1360.7231
 Red. masses --     12.1111                12.3132                12.2496
 Frc consts  --     10.4226                10.8581                13.3632
 IR Inten    --    226.0071               206.4379               459.3258

                     31                     32                     33
                      A                      A                      A
 Frequencies --   1418.5342              1463.4494              1465.0119
 Red. masses --     12.1171                12.5894                12.7261
 Frc consts  --     14.3658                15.8858                16.0927
 IR Inten    --    203.3072                67.3193              1728.8331

                     34                     35                     36
                      A                      A                      A
 Frequencies --   1573.2282              2243.5912              2247.8073
 Red. masses --     12.1866                12.6794                12.6730
 Frc consts  --     17.7711                37.6043                37.7267
 IR Inten    --     28.3820              1701.2285               204.8028

 - Thermochemistry -
 -------------------
 Temperature   298.150 Kelvin.  Pressure   1.00000 Atm.
 Atom     1 has atomic number  6 and mass  12.00000

 Molecular mass:   225.93368 amu.
 Principal axes and moments of inertia in atomic units:
                           1         2         3
     Eigenvalues --  2364.621513749.452966114.07363
           X            0.99996  -0.00861  -0.00117
           Y            0.00861   0.99996   0.00073
           Z            0.00116  -0.00074   1.00000
 This molecule is an asymmetric top.
 Rotational symmetry number  1.
 Warning -- assumption of classical behavior for rotation
           may cause significant error
 Rotational temperatures (Kelvin)      0.03663     0.02310     0.01417
 Rotational constants (GHZ):           0.76323     0.48133     0.29518
 Zero-point vibrational energy     158904.9 (Joules/Mol)
                                   37.97918 (Kcal/Mol)
 Warning -- explicit consideration of  20 degrees of freedom as
           vibrations may cause significant error
 Vibrational temperatures:     77.68    86.10   126.77   187.51   219.58
          (Kelvin)            226.85   309.78   386.48   395.46   468.36
                              491.38   499.49   524.43   637.50   645.53
                              708.63   733.19   781.32   811.56   880.15
                             1057.50  1110.50  1111.34  1123.48  1226.96
                             1471.16  1488.24  1738.86  1760.19  1957.78
                             2040.95  2105.58  2107.83  2263.52  3228.03
                             3234.09

 Zero-point correction=                           0.060524 (Hartree/Particle)
 Thermal correction to Energy=                    0.072683
 Thermal correction to Enthalpy=                  0.073627
 Thermal correction to Gibbs Free Energy=         0.020741
 Sum of electronic and zero-point Energies=          -1485.602234
 Sum of electronic and thermal Energies=             -1485.590075
 Sum of electronic and thermal Enthalpies=           -1485.589131
 Sum of electronic and thermal Free Energies=        -1485.642017

                     E (Thermal)             CV                S
                      KCal/Mol        Cal/Mol-Kelvin    Cal/Mol-Kelvin
 Total                   45.609             42.654            111.307
 Electronic               0.000              0.000              0.000
 Translational            0.889              2.981             42.148
 Rotational               0.889              2.981             32.361
 Vibrational             43.832             36.692             36.799
 Vibration     1          0.596              1.976              4.665
 Vibration     2          0.597              1.973              4.462
 Vibration     3          0.601              1.958              3.702
 Vibration     4          0.612              1.923              2.941
 Vibration     5          0.619              1.900              2.639
 Vibration     6          0.621              1.894              2.578
 Vibration     7          0.645              1.818              1.998
 Vibration     8          0.673              1.731              1.605
 Vibration     9          0.677              1.720              1.565
 Vibration    10          0.710              1.624              1.282
 Vibration    11          0.721              1.592              1.205
 Vibration    12          0.725              1.581              1.179
 Vibration    13          0.738              1.545              1.103
 Vibration    14          0.803              1.376              0.817
 Vibration    15          0.808              1.364              0.800
 Vibration    16          0.848              1.267              0.677
 Vibration    17          0.865              1.229              0.635
 Vibration    18          0.898              1.155              0.559
 Vibration    19          0.920              1.109              0.516
 Vibration    20          0.971              1.007              0.430

 Optimization completed.
    -- Stationary point found.
 Normal termination of Gaussian 16 at Sat Feb 10 10:35:39 2024.
