 Gaussian 16, Revision A.03,
 Gaussian 16:  ES64L-G16RevA.03 25-Dec-2016

 --------------------------------------
 #P UB3LYP/6-311++G(d,p) nosym opt freq
 --------------------------------------

 -------
 Reduced
 -------
 Symbolic Z-matrix:
 Charge = -2 Multiplicity = 1

 SCF Done:  E(UB3LYP) =  -573.507320084     A.U. after   49 cycles
 SCF Done:  E(UB3LYP) =  -573.539266214     A.U. after   27 cycles
 SCF Done:  E(UB3LYP) =  -573.533765456     A.U. after   20 cycles
 SCF Done:  E(UB3LYP) =  -573.548758015     A.U. after   18 cycles
 SCF Done:  E(UB3LYP) =  -573.548945624     A.U. after   18 cycles
 SCF Done:  E(UB3LYP) =  -573.549182262     A.U. after   18 cycles
 SCF Done:  E(UB3LYP) =  -573.549426797     A.U. after   18 cycles
 SCF Done:  E(UB3LYP) =  -573.410830079     A.U. after   22 cycles
 SCF Done:  E(UB3LYP) =  -573.547409755     A.U. after   21 cycles
 SCF Done:  E(UB3LYP) =  -573.549786829     A.U. after   18 cycles
 SCF Done:  E(UB3LYP) =  -573.559131486     A.U. after   19 cycles
 SCF Done:  E(UB3LYP) =  -573.559136499     A.U. after   19 cycles
 SCF Done:  E(UB3LYP) =  -573.559138962     A.U. after   19 cycles
 SCF Done:  E(UB3LYP) =  -573.559139806     A.U. after   17 cycles
 SCF Done:  E(UB3LYP) =  -573.559140310     A.U. after   17 cycles
 SCF Done:  E(UB3LYP) =  -573.559140666     A.U. after   17 cycles
 SCF Done:  E(UB3LYP) =  -573.559140914     A.U. after   17 cycles
 SCF Done:  E(UB3LYP) =  -573.559141055     A.U. after   17 cycles
 SCF Done:  E(UB3LYP) =  -573.559141085     A.U. after   16 cycles
 Optimization completed.
    -- Stationary point found.
 Normal termination of Gaussian 16 at Sun Dec 17 22:15:16 2023.

 ----------------------------------------------------------------------
 #P Geom=AllCheck Guess=TCheck SCRF=Check GenChk UB3LYP/6-311++G(d,p) F
 req
 ----------------------------------------------------------------------

 Structure from the checkpoint file:  "057-an.chk"
 -------
 Reduced
 -------
 Charge = -2 Multiplicity = 1

                          Input orientation:
 ---------------------------------------------------------------------
 Center     Atomic      Atomic             Coordinates (Angstroms)
 Number     Number       Type             X           Y           Z
 ---------------------------------------------------------------------
      1          6           0       -0.392806    1.122774   -0.344544
      2          6           0       -1.431768    0.133926   -0.559224
      3          6           0       -1.260040   -1.215451   -0.356718
      4          6           0       -0.030603   -1.804176    0.112484
      5          6           0        1.007538   -0.868570    0.368719
      6          6           0        0.847685    0.557340    0.188133
      7          8           0       -0.630608    2.358163   -0.556812
      8          8           0        0.098555   -3.095398    0.241178
      9          6           0        1.875525    1.484338    0.655819
     10          6           0        2.528881    1.209525    2.033888
     11          8           0        2.226593    2.540258    0.108698
     12          1           0       -2.381378    0.525330   -0.925812
     13          1           0       -2.074820   -1.910507   -0.569260
     14          1           0        2.124911    0.337815    2.548262
     15          1           0        2.348363    2.105367    2.639896
     16          1           0        3.617626    1.098538    1.934376
     17          6           0        2.353474   -1.489142    0.672120
     18          1           0        2.414893   -2.446343    0.140361
     19          1           0        2.503841   -1.739327    1.738679
     20          1           0        3.187528   -0.846221    0.368837
 ---------------------------------------------------------------------

 SCF Done:  E(UB3LYP) =  -573.559141085     A.U. after    1 cycles

 Alpha  occ. eigenvalues --  -18.81605 -18.75753 -18.74835  -9.96901  -9.92401
 Alpha  occ. eigenvalues --   -9.91732  -9.90572  -9.89564  -9.87921  -9.87358
 Alpha  occ. eigenvalues --   -9.87193  -9.87104  -0.74081  -0.67506  -0.65702
 Alpha  occ. eigenvalues --   -0.52859  -0.48786  -0.46275  -0.42256  -0.37339
 Alpha  occ. eigenvalues --   -0.32716  -0.27078  -0.23345  -0.19725  -0.18646
 Alpha  occ. eigenvalues --   -0.17459  -0.16716  -0.15023  -0.13793  -0.13459
 Alpha  occ. eigenvalues --   -0.11549  -0.11128  -0.09000  -0.08767  -0.07274
 Alpha  occ. eigenvalues --   -0.06294  -0.05331  -0.04176   0.02647   0.03685
 Alpha  occ. eigenvalues --    0.04991   0.07213   0.07711   0.14315
 Alpha virt. eigenvalues --    0.17643   0.19544   0.19716   0.21038   0.21407
 Alpha virt. eigenvalues --    0.21838   0.23807   0.24303   0.24380   0.26227
 Alpha virt. eigenvalues --    0.27868   0.28397   0.28729   0.29963   0.30442

  Beta  occ. eigenvalues --  -18.81605 -18.75753 -18.74835  -9.96901  -9.92401
  Beta  occ. eigenvalues --   -9.91732  -9.90572  -9.89564  -9.87921  -9.87358
  Beta  occ. eigenvalues --   -9.87193  -9.87104  -0.74081  -0.67506  -0.65702
  Beta  occ. eigenvalues --   -0.52859  -0.48786  -0.46275  -0.42256  -0.37339
  Beta  occ. eigenvalues --   -0.32716  -0.27078  -0.23345  -0.19725  -0.18646
  Beta  occ. eigenvalues --   -0.17459  -0.16716  -0.15023  -0.13793  -0.13459
  Beta  occ. eigenvalues --   -0.11549  -0.11128  -0.09000  -0.08767  -0.07274
  Beta  occ. eigenvalues --   -0.06294  -0.05331  -0.04176   0.02647   0.03685
  Beta  occ. eigenvalues --    0.04991   0.07213   0.07711   0.14315
  Beta virt. eigenvalues --    0.17643   0.19544   0.19716   0.21038   0.21407
  Beta virt. eigenvalues --    0.21838   0.23807   0.24303   0.24380   0.26227
  Beta virt. eigenvalues --    0.27868   0.28397   0.28729   0.29963   0.30442

 Mulliken charges and spin densities:
               1          2
     1  C   -1.296399   0.000000
     2  C    0.320941  -0.000000
     3  C    0.319500   0.000000
     4  C   -1.126634   0.000000
     5  C    0.910550  -0.000000
     6  C    0.803061  -0.000000
     7  O   -0.481089  -0.000000
     8  O   -0.570630  -0.000000
     9  C   -0.012673  -0.000000
    10  C   -0.468001   0.000000
    11  O   -0.332082   0.000000
    12  H    0.058521   0.000000
    13  H    0.056438  -0.000000
    14  H    0.125734  -0.000000
    15  H    0.120243   0.000000
    16  H    0.022850  -0.000000
    17  C   -0.747264  -0.000000
    18  H    0.160957  -0.000000
    19  H    0.029209   0.000000
    20  H    0.106769   0.000000
 Sum of Mulliken charges =  -2.00000  -0.00000

 Dipole moment (field-independent basis, Debye):
    X=             -4.2358    Y=             -0.5534    Z=             -0.2898  Tot=              4.2816
 Quadrupole moment (field-independent basis, Debye-Ang):
   XX=           -103.3951   YY=           -149.6704   ZZ=            -86.1202
   XY=             -6.1684   XZ=             -7.4345   YZ=              7.2895

  Exact polarizability: 380.088  24.679 210.567 174.992  -0.033 238.411
 Approx polarizability: 472.808  43.710 317.643 165.729  -8.169 258.449

                      1                      2                      3
                      A                      A                      A
 Frequencies --     56.9389                87.5922               123.2768
 Red. masses --      6.5558                 2.9954                 5.5781
 Frc consts  --      0.0125                 0.0135                 0.0499
 IR Inten    --      1.1246                 2.2390                10.3879

                      4                      5                      6
                      A                      A                      A
 Frequencies --    129.7533               195.1651               202.0270
 Red. masses --      1.2021                 2.8905                 1.7881
 Frc consts  --      0.0119                 0.0649                 0.0430
 IR Inten    --      1.8988                 2.0449                 0.4157

                      7                      8                      9
                      A                      A                      A
 Frequencies --    241.7888               314.0479               316.3760
 Red. masses --      1.8800                 5.1723                 5.3982
 Frc consts  --      0.0648                 0.3006                 0.3184
 IR Inten    --      3.8201                 2.3273                 5.0899

                     10                     11                     12
                      A                      A                      A
 Frequencies --    343.2970               383.2828               410.3080
 Red. masses --      3.5955                 4.4547                 7.3409
 Frc consts  --      0.2497                 0.3856                 0.7281
 IR Inten    --      0.7026                 1.9954                 4.3114

                     13                     14                     15
                      A                      A                      A
 Frequencies --    459.7841               491.9240               516.7397
 Red. masses --      9.1958                 5.9376                 3.9485
 Frc consts  --      1.1454                 0.8466                 0.6212
 IR Inten    --    102.8676                 6.1656                 5.9471

                     16                     17                     18
                      A                      A                      A
 Frequencies --    578.6574               616.7322               628.4411
 Red. masses --      2.4093                 3.9973                 4.3254
 Frc consts  --      0.4753                 0.8958                 1.0065
 IR Inten    --     10.3555                 1.8932                 6.0637

                     19                     20                     21
                      A                      A                      A
 Frequencies --    644.2518               750.9354               759.8967
 Red. masses --      2.7161                 4.9572                 7.0409
 Frc consts  --      0.6642                 1.6470                 2.3955
 IR Inten    --      0.5731                 0.7821                23.6333

                     22                     23                     24
                      A                      A                      A
 Frequencies --    815.1608               876.8868               905.3037
 Red. masses --      2.3049                 3.0036                 2.9216
 Frc consts  --      0.9024                 1.3608                 1.4108
 IR Inten    --     22.4094                33.7233                 9.3573

                     25                     26                     27
                      A                      A                      A
 Frequencies --    909.3293               993.0507              1003.7065
 Red. masses --      1.3466                 1.9992                 1.7501
 Frc consts  --      0.6560                 1.1616                 1.0388
 IR Inten    --      4.1062                31.7186                17.2897

                     28                     29                     30
                      A                      A                      A
 Frequencies --   1037.4747              1044.4498              1082.1135
 Red. masses --      1.4921                 2.3330                 2.0410
 Frc consts  --      0.9463                 1.4995                 1.4081
 IR Inten    --      6.4941                36.3646                20.3726

                     31                     32                     33
                      A                      A                      A
 Frequencies --   1147.2089              1174.3072              1243.7894
 Red. masses --      1.6974                 2.6609                 4.9212
 Frc consts  --      1.3162                 2.1619                 4.4856
 IR Inten    --    140.7526               112.1472                70.9857

                     34                     35                     36
                      A                      A                      A
 Frequencies --   1321.7577              1336.6481              1349.1413
 Red. masses --      2.8981                 1.3001                 5.4235
 Frc consts  --      2.9830                 1.3685                 5.8162
 IR Inten    --    299.9432                14.0842                74.5376

                     37                     38                     39
                      A                      A                      A
 Frequencies --   1370.9796              1410.0360              1422.2530
 Red. masses --      1.4174                 4.4797                 4.9931
 Frc consts  --      1.5697                 5.2476                 5.9508
 IR Inten    --     14.0028               151.0958               209.3920

                     40                     41                     42
                      A                      A                      A
 Frequencies --   1453.6423              1464.3172              1471.8781
 Red. masses --      1.1541                 1.0990                 1.0566
 Frc consts  --      1.4368                 1.3884                 1.3487
 IR Inten    --    143.8481                20.3470                25.3557

                     43                     44                     45
                      A                      A                      A
 Frequencies --   1483.1290              1498.1399              1579.2787
 Red. masses --      3.8441                 1.0899                 6.4483
 Frc consts  --      4.9820                 1.4413                 9.4758
 IR Inten    --    285.0632                39.2277               656.6226

                     46                     47                     48
                      A                      A                      A
 Frequencies --   1627.8958              2888.1471              2975.2559
 Red. masses --      9.1180                 1.0702                 1.0469
 Frc consts  --     14.2365                 5.2594                 5.4603
 IR Inten    --    629.3974               746.1934               455.9812

                     49                     50                     51
                      A                      A                      A
 Frequencies --   2989.1342              3029.7089              3043.3580
 Red. masses --      1.0568                 1.0926                 1.1006
 Frc consts  --      5.5631                 5.9088                 6.0061
 IR Inten    --    120.5139               211.8836                32.3626

                     52                     53                     54
                      A                      A                      A
 Frequencies --   3064.0402              3097.5745              3114.4111
 Red. masses --      1.0830                 1.0927                 1.0962
 Frc consts  --      5.9907                 6.1770                 6.2645
 IR Inten    --     69.1953               234.9778                36.9326

 - Thermochemistry -
 -------------------
 Temperature   298.150 Kelvin.  Pressure   1.00000 Atm.
 Atom     1 has atomic number  6 and mass  12.00000

 Molecular mass:   164.04734 amu.
 Principal axes and moments of inertia in atomic units:
                           1         2         3
     Eigenvalues --  1345.827122082.033693239.12690
           X            0.40122   0.81359  -0.42083
           Y            0.90961  -0.40797   0.07849
           Z            0.10782   0.41429   0.90374
 This molecule is an asymmetric top.
 Rotational symmetry number  1.
 Warning -- assumption of classical behavior for rotation
           may cause significant error
 Rotational temperatures (Kelvin)      0.06436     0.04160     0.02674
 Rotational constants (GHZ):           1.34099     0.86682     0.55717
 Zero-point vibrational energy     379663.2 (Joules/Mol)
                                   90.74167 (Kcal/Mol)
 Warning -- explicit consideration of  17 degrees of freedom as
           vibrations may cause significant error
 Vibrational temperatures:     81.92   126.03   177.37   186.69   280.80
          (Kelvin)            290.67   347.88   451.84   455.19   493.93
                              551.46   590.34   661.53   707.77   743.47
                              832.56   887.34   904.19   926.93  1080.43
                             1093.32  1172.83  1261.64  1302.53  1308.32
                             1428.78  1444.11  1492.69  1502.73  1556.92
                             1650.58  1689.57  1789.54  1901.71  1923.14
                             1941.11  1972.53  2028.73  2046.30  2091.47
                             2106.83  2117.70  2133.89  2155.49  2272.23
                             2342.18  4155.40  4280.73  4300.70  4359.08
                             4378.71  4408.47  4456.72  4480.94

 Zero-point correction=                           0.144606 (Hartree/Particle)
 Thermal correction to Energy=                    0.155837
 Thermal correction to Enthalpy=                  0.156781
 Thermal correction to Gibbs Free Energy=         0.107571
 Sum of electronic and zero-point Energies=           -573.414535
 Sum of electronic and thermal Energies=              -573.403304
 Sum of electronic and thermal Enthalpies=            -573.402360
 Sum of electronic and thermal Free Energies=         -573.451570

                     E (Thermal)             CV                S
                      KCal/Mol        Cal/Mol-Kelvin    Cal/Mol-Kelvin
 Total                   97.789             42.030            103.571
 Electronic               0.000              0.000              0.000
 Translational            0.889              2.981             41.193
 Rotational               0.889              2.981             30.585
 Vibrational             96.012             36.069             31.792
 Vibration     1          0.596              1.975              4.561
 Vibration     2          0.601              1.958              3.713
 Vibration     3          0.610              1.930              3.048
 Vibration     4          0.612              1.924              2.950
 Vibration     5          0.636              1.847              2.178
 Vibration     6          0.639              1.837              2.115
 Vibration     7          0.658              1.776              1.790
 Vibration     8          0.702              1.647              1.341
 Vibration     9          0.703              1.642              1.329
 Vibration    10          0.722              1.589              1.197
 Vibration    11          0.752              1.506              1.026
 Vibration    12          0.774              1.448              0.926
 Vibration    13          0.818              1.339              0.767
 Vibration    14          0.848              1.268              0.679
 Vibration    15          0.872              1.213              0.618
 Vibration    16          0.935              1.077              0.488
 Vibration    17          0.976              0.997              0.422

 Optimization completed.
    -- Stationary point found.
 Normal termination of Gaussian 16 at Sun Dec 17 22:27:52 2023.
