 Q-Chem 5.4, Q-Chem, Inc., Pleasanton, CA (2021)
 Q-Chem 5.4.0 for Intel X86 EM64T Linux

User input:
--------------------------------------------------------------
$molecule
0 1
C                 -1.8111720000      0.1118710000      1.4126850000
C                 -2.8847660000      0.9471410000      0.7601280000
C                 -2.9063380000      0.7906930000     -0.5781560000
C                 -1.8142770000      0.0550290000     -1.3177410000
C                 -0.4501980000     -0.0435930000     -0.6808720000
C                 -0.5217410000     -0.1233360000      0.6624320000
O                 -2.0408460000     -0.4556610000     -2.3927070000
O                 -1.9783760000     -0.3759210000      2.5089530000
Cl                 0.7689080000     -0.6010160000      1.7340130000
Cl                -4.1910950000      1.2832340000     -1.6501200000
C                  0.7666900000     -0.1977630000     -1.6154120000
C                  0.5792330000      0.6782810000     -2.8827350000
C                  2.0852330000      0.2768890000     -0.9605740000
C                  0.9040650000     -1.6836900000     -2.0248710000
C                 -3.8657170000      1.6994350000      1.6819890000
C                 -3.1123590000      2.2582400000      2.9184040000
C                 -4.5154960000      2.9211720000      0.9906980000
C                 -4.9738790000      0.7234190000      2.1443950000
H                 -0.2561460000      0.3548460000     -3.4982840000
H                  1.4884740000      0.6178850000     -3.4853070000
H                  0.4319240000      1.7297590000     -2.6158370000
H                  1.9795260000      1.2656020000     -0.5060030000
H                  2.8461070000      0.3507150000     -1.7414980000
H                  2.4565430000     -0.4093940000     -0.2043650000
H                  1.0617000000     -2.3183520000     -1.1489900000
H                  1.7681130000     -1.8002550000     -2.6860540000
H                  0.0161070000     -2.0305200000     -2.5543620000
H                 -2.7137850000      1.4749190000      3.5578850000
H                 -3.8092000000      2.8572490000      3.5092330000
H                 -2.2908860000      2.9151860000      2.6148720000
H                 -3.7705530000      3.5540020000      0.5008570000
H                 -5.0096280000      3.5233770000      1.7571180000
H                 -5.2664160000      2.6450860000      0.2554530000
H                 -4.5535320000     -0.1162570000      2.6987840000
H                 -5.5354490000      0.3355860000      1.2905570000
H                 -5.6748680000      1.2522430000      2.7972980000
$end

$rem
BASIS  =  6-311++G(d,p)
GUI  =  2
JOB_TYPE  =  SP
METHOD  =  B3LYP
SCF_CONVERGENCE  = 8
SOLVENT_METHOD = sm12
$end

$smx
solvent dimethylformamide
charges CM5
$end

--------------------------------------------------------------

             Standard Nuclear Orientation (Angstroms)
    I     Atom           X                Y                Z
 ----------------------------------------------------------------
    1      C      -1.8111720000     0.1118710000     1.4126850000
    2      C      -2.8847660000     0.9471410000     0.7601280000
    3      C      -2.9063380000     0.7906930000    -0.5781560000
    4      C      -1.8142770000     0.0550290000    -1.3177410000
    5      C      -0.4501980000    -0.0435930000    -0.6808720000
    6      C      -0.5217410000    -0.1233360000     0.6624320000
    7      O      -2.0408460000    -0.4556610000    -2.3927070000
    8      O      -1.9783760000    -0.3759210000     2.5089530000
    9      Cl      0.7689080000    -0.6010160000     1.7340130000
   10      Cl     -4.1910950000     1.2832340000    -1.6501200000
   11      C       0.7666900000    -0.1977630000    -1.6154120000
   12      C       0.5792330000     0.6782810000    -2.8827350000
   13      C       2.0852330000     0.2768890000    -0.9605740000
   14      C       0.9040650000    -1.6836900000    -2.0248710000
   15      C      -3.8657170000     1.6994350000     1.6819890000
   16      C      -3.1123590000     2.2582400000     2.9184040000
   17      C      -4.5154960000     2.9211720000     0.9906980000
   18      C      -4.9738790000     0.7234190000     2.1443950000
   19      H      -0.2561460000     0.3548460000    -3.4982840000
   20      H       1.4884740000     0.6178850000    -3.4853070000
   21      H       0.4319240000     1.7297590000    -2.6158370000
   22      H       1.9795260000     1.2656020000    -0.5060030000
   23      H       2.8461070000     0.3507150000    -1.7414980000
   24      H       2.4565430000    -0.4093940000    -0.2043650000
   25      H       1.0617000000    -2.3183520000    -1.1489900000
   26      H       1.7681130000    -1.8002550000    -2.6860540000
   27      H       0.0161070000    -2.0305200000    -2.5543620000
   28      H      -2.7137850000     1.4749190000     3.5578850000
   29      H      -3.8092000000     2.8572490000     3.5092330000
   30      H      -2.2908860000     2.9151860000     2.6148720000
   31      H      -3.7705530000     3.5540020000     0.5008570000
   32      H      -5.0096280000     3.5233770000     1.7571180000
   33      H      -5.2664160000     2.6450860000     0.2554530000
   34      H      -4.5535320000    -0.1162570000     2.6987840000
   35      H      -5.5354490000     0.3355860000     1.2905570000
   36      H      -5.6748680000     1.2522430000     2.7972980000
 ----------------------------------------------------------------

   15   -1615.3710219868      5.78e-09  Convergence criterion met
 Total energy in the final basis set =    -1615.3806664514

                    Orbital Energies (a.u.)
 --------------------------------------------------------------

 Alpha MOs
 -- Occupied --
********-101.5716 -19.1476 -19.1476 -10.3015 -10.3015 -10.2699 -10.2699
-10.2317 -10.2316 -10.2133 -10.2133 -10.1648 -10.1648 -10.1623 -10.1623
-10.1620 -10.1620  -9.4866  -9.4866  -7.2514  -7.2514  -7.2417  -7.2417
 -7.2405  -7.2404  -1.0877  -1.0850  -0.9146  -0.9003  -0.8476  -0.8378
 -0.8127  -0.7619  -0.6981  -0.6949  -0.6946  -0.6913  -0.6899  -0.6485
 -0.5994  -0.5765  -0.5609  -0.5458  -0.4974  -0.4919  -0.4840  -0.4754
 -0.4559  -0.4543  -0.4529  -0.4493  -0.4443  -0.4351  -0.4342  -0.4221
 -0.4055  -0.3982  -0.3891  -0.3846  -0.3774  -0.3760  -0.3728  -0.3705
 -0.3634  -0.3609  -0.3486  -0.3484  -0.3463  -0.3423  -0.3240  -0.3193
 -0.2951  -0.2949  -0.2814  -0.2713

          Ground-State Mulliken Net Atomic Charges

     Atom                 Charge (a.u.)
  ----------------------------------------
      1 C                    -1.723979
      2 C                     1.064210
      3 C                    -0.259910
      4 C                    -1.729832
      5 C                     1.071248
      6 C                    -0.260033
      7 O                    -0.156017
      8 O                    -0.156072
      9 Cl                    0.566250
     10 Cl                    0.566119
     11 C                     0.808072
     12 C                    -0.592116
     13 C                    -0.427643
     14 C                    -0.679382
     15 C                     0.810253
     16 C                    -0.592788
     17 C                    -0.429250
     18 C                    -0.677439
     19 H                     0.117094
     20 H                     0.186352
     21 H                     0.147503
     22 H                     0.156210
     23 H                     0.173950
     24 H                     0.119852
     25 H                     0.135127
     26 H                     0.198467
     27 H                     0.163932
     28 H                     0.117397
     29 H                     0.186441
     30 H                     0.147814
     31 H                     0.156268
     32 H                     0.174029
     33 H                     0.119986
     34 H                     0.164450
     35 H                     0.135000
     36 H                     0.198439
  ----------------------------------------
  Sum of atomic charges =     0.000000

                    Cartesian Multipole Moments
 -----------------------------------------------------------------
    Charge (ESU x 10^10)
                -0.0000
    Dipole Moment (Debye)
         X       0.8397      Y       2.1265      Z      -0.0444
       Tot       2.2867
    Quadrupole Moments (Debye-Ang)
        XX    -119.1253     XY      -6.7228     YY    -121.4979
        XZ      -8.2333     YZ       3.1815     ZZ    -132.8685

 Total job time:  1158.38s(wall), 9097.19s(cpu)
        *  Thank you very much for using Q-Chem.  Have a nice day.  *
