 Gaussian 16, Revision A.03,
 Gaussian 16:  ES64L-G16RevA.03 25-Dec-2016

 --------------------------------------
 #P UB3LYP/6-311++G(d,p) nosym opt freq
 --------------------------------------

 --------
 Oxidized
 --------
 Symbolic Z-matrix:
 Charge =  0 Multiplicity = 1

 SCF Done:  E(UB3LYP) =  -1615.37136453     A.U. after   16 cycles
 Optimization completed.
    -- Stationary point found.
 Normal termination of Gaussian 16 at Sat Jan  6 05:48:33 2024.

 ----------------------------------------------------------------------
 #P Geom=AllCheck Guess=TCheck SCRF=Check GenChk UB3LYP/6-311++G(d,p) F
 req
 ----------------------------------------------------------------------

 Structure from the checkpoint file:  "018.chk"
 --------
 Oxidized
 --------
 Charge =  0 Multiplicity = 1

                          Input orientation:
 ---------------------------------------------------------------------
 Center     Atomic      Atomic             Coordinates (Angstroms)
 Number     Number       Type             X           Y           Z
 ---------------------------------------------------------------------
      1          6           0       -1.811172    0.111871    1.412685
      2          6           0       -2.884766    0.947141    0.760128
      3          6           0       -2.906338    0.790693   -0.578156
      4          6           0       -1.814277    0.055029   -1.317741
      5          6           0       -0.450198   -0.043593   -0.680872
      6          6           0       -0.521741   -0.123336    0.662432
      7          8           0       -2.040846   -0.455661   -2.392707
      8          8           0       -1.978376   -0.375921    2.508953
      9         17           0        0.768908   -0.601016    1.734013
     10         17           0       -4.191095    1.283234   -1.650120
     11          6           0        0.766690   -0.197763   -1.615412
     12          6           0        0.579233    0.678281   -2.882735
     13          6           0        2.085233    0.276889   -0.960574
     14          6           0        0.904065   -1.683690   -2.024871
     15          6           0       -3.865717    1.699435    1.681989
     16          6           0       -3.112359    2.258240    2.918404
     17          6           0       -4.515496    2.921172    0.990698
     18          6           0       -4.973879    0.723419    2.144395
     19          1           0       -0.256146    0.354846   -3.498284
     20          1           0        1.488474    0.617885   -3.485307
     21          1           0        0.431924    1.729759   -2.615837
     22          1           0        1.979526    1.265602   -0.506003
     23          1           0        2.846107    0.350715   -1.741498
     24          1           0        2.456543   -0.409394   -0.204365
     25          1           0        1.061700   -2.318352   -1.148990
     26          1           0        1.768113   -1.800255   -2.686054
     27          1           0        0.016107   -2.030520   -2.554362
     28          1           0       -2.713785    1.474919    3.557885
     29          1           0       -3.809200    2.857249    3.509233
     30          1           0       -2.290886    2.915186    2.614872
     31          1           0       -3.770553    3.554002    0.500857
     32          1           0       -5.009628    3.523377    1.757118
     33          1           0       -5.266416    2.645086    0.255453
     34          1           0       -4.553532   -0.116257    2.698784
     35          1           0       -5.535449    0.335586    1.290557
     36          1           0       -5.674868    1.252243    2.797298
 ---------------------------------------------------------------------

 SCF Done:  E(UB3LYP) =  -1615.37136453     A.U. after    2 cycles

 Alpha  occ. eigenvalues -- -101.57346-101.57345 -19.14836 -19.14835 -10.30231
 Alpha  occ. eigenvalues --  -10.30230 -10.27183 -10.27183 -10.23383 -10.23382
 Alpha  occ. eigenvalues --  -10.21820 -10.21820 -10.16947 -10.16946 -10.16898
 Alpha  occ. eigenvalues --  -10.16898 -10.16728 -10.16727  -9.48834  -9.48833
 Alpha  occ. eigenvalues --   -7.25309  -7.25308  -7.24342  -7.24342  -7.24226
 Alpha  occ. eigenvalues --   -7.24225  -1.08834  -1.08559  -0.91653  -0.90231
 Alpha  occ. eigenvalues --   -0.85026  -0.84178  -0.81648  -0.76476  -0.70079
 Alpha  occ. eigenvalues --   -0.70000  -0.69971  -0.69714  -0.69435  -0.65154
 Alpha  occ. eigenvalues --   -0.60105  -0.58103  -0.56418  -0.54756  -0.50037
 Alpha  occ. eigenvalues --   -0.49457  -0.48521  -0.47840  -0.45830  -0.45745
 Alpha  occ. eigenvalues --   -0.45632  -0.45435  -0.44884  -0.43919  -0.43585
 Alpha  occ. eigenvalues --   -0.42533  -0.41014  -0.40340  -0.39447  -0.39107
 Alpha  occ. eigenvalues --   -0.38211  -0.37995  -0.37712  -0.37474  -0.36793
 Alpha  occ. eigenvalues --   -0.36308  -0.35319  -0.35279  -0.35116  -0.34706
 Alpha  occ. eigenvalues --   -0.32625  -0.32232  -0.29669  -0.29597  -0.28224
 Alpha  occ. eigenvalues --   -0.27365
 Alpha virt. eigenvalues --   -0.12868  -0.05538  -0.02805  -0.01538  -0.00620
 Alpha virt. eigenvalues --   -0.00008   0.00854   0.01224   0.01780   0.01816
 Alpha virt. eigenvalues --    0.01878   0.02514   0.03277   0.03791   0.03955

  Beta  occ. eigenvalues -- -101.57346-101.57345 -19.14836 -19.14835 -10.30231
  Beta  occ. eigenvalues --  -10.30230 -10.27183 -10.27183 -10.23383 -10.23382
  Beta  occ. eigenvalues --  -10.21820 -10.21820 -10.16947 -10.16946 -10.16898
  Beta  occ. eigenvalues --  -10.16898 -10.16728 -10.16727  -9.48834  -9.48833
  Beta  occ. eigenvalues --   -7.25309  -7.25308  -7.24342  -7.24342  -7.24226
  Beta  occ. eigenvalues --   -7.24225  -1.08834  -1.08559  -0.91653  -0.90231
  Beta  occ. eigenvalues --   -0.85026  -0.84178  -0.81648  -0.76476  -0.70079
  Beta  occ. eigenvalues --   -0.70000  -0.69971  -0.69714  -0.69435  -0.65154
  Beta  occ. eigenvalues --   -0.60105  -0.58103  -0.56418  -0.54756  -0.50037
  Beta  occ. eigenvalues --   -0.49457  -0.48521  -0.47840  -0.45830  -0.45745
  Beta  occ. eigenvalues --   -0.45632  -0.45435  -0.44884  -0.43919  -0.43585
  Beta  occ. eigenvalues --   -0.42533  -0.41014  -0.40340  -0.39447  -0.39107
  Beta  occ. eigenvalues --   -0.38211  -0.37995  -0.37712  -0.37474  -0.36793
  Beta  occ. eigenvalues --   -0.36308  -0.35319  -0.35279  -0.35116  -0.34706
  Beta  occ. eigenvalues --   -0.32625  -0.32232  -0.29669  -0.29597  -0.28224
  Beta  occ. eigenvalues --   -0.27365
  Beta virt. eigenvalues --   -0.12868  -0.05538  -0.02805  -0.01538  -0.00620
  Beta virt. eigenvalues --   -0.00008   0.00854   0.01224   0.01780   0.01816
  Beta virt. eigenvalues --    0.01878   0.02514   0.03277   0.03791   0.03955

 Mulliken charges and spin densities:
               1          2
     1  C   -1.310238  -0.000000
     2  C    1.040543   0.000000
     3  C   -0.244900   0.000000
     4  C   -1.310601  -0.000000
     5  C    1.040772   0.000000
     6  C   -0.244111   0.000000
     7  O   -0.108011  -0.000000
     8  O   -0.108013   0.000000
     9  Cl   0.608041  -0.000000
    10  Cl   0.608396  -0.000000
    11  C    0.519398   0.000000
    12  C   -0.662565   0.000000
    13  C   -0.608041   0.000000
    14  C   -0.666936   0.000000
    15  C    0.519544  -0.000000
    16  C   -0.662555   0.000000
    17  C   -0.608041  -0.000000
    18  C   -0.666935   0.000000
    19  H    0.180118  -0.000000
    20  H    0.151285   0.000000
    21  H    0.140578  -0.000000
    22  H    0.157405  -0.000000
    23  H    0.140694   0.000000
    24  H    0.138115   0.000000
    25  H    0.144419   0.000000
    26  H    0.165783  -0.000000
    27  H    0.213711  -0.000000
    28  H    0.180104  -0.000000
    29  H    0.151265   0.000000
    30  H    0.140605   0.000000
    31  H    0.157414   0.000000
    32  H    0.140695  -0.000000
    33  H    0.138133   0.000000
    34  H    0.213723   0.000000
    35  H    0.144430   0.000000
    36  H    0.165777   0.000000
 Sum of Mulliken charges =  -0.00000   0.00000

 Dipole moment (field-independent basis, Debye):
    X=              0.7521    Y=              1.9067    Z=             -0.0405  Tot=              2.0501
 Quadrupole moment (field-independent basis, Debye-Ang):
   XX=           -119.9432   YY=           -121.9851   ZZ=           -132.5327
   XY=             -5.9882   XZ=             -7.4542   YZ=              2.8761

  Exact polarizability: 208.926 -25.134 155.509  -5.795   4.101 230.804
 Approx polarizability: 280.330 -20.337 235.299  25.203  -6.015 411.878

                      1                      2                      3
                      A                      A                      A
 Frequencies --     21.3663                24.6739                38.6392
 Red. masses --      3.3469                 2.9198                 5.9812
 Frc consts  --      0.0009                 0.0010                 0.0053
 IR Inten    --      0.0462                 0.1985                 0.1078

                      4                      5                      6
                      A                      A                      A
 Frequencies --     60.5568                78.1541               158.5082
 Red. masses --      6.4963                 6.3058                 5.1686
 Frc consts  --      0.0140                 0.0227                 0.0765
 IR Inten    --      1.4170                 1.2886                 2.9606

                      7                      8                      9
                      A                      A                      A
 Frequencies --    165.8466               171.1963               173.6133
 Red. masses --      2.2604                 3.7293                 2.1724
 Frc consts  --      0.0366                 0.0644                 0.0386
 IR Inten    --      0.0425                 0.9394                 0.4862

                     10                     11                     12
                      A                      A                      A
 Frequencies --    215.9397               217.4104               229.3641
 Red. masses --      2.8585                 3.4076                 1.8535
 Frc consts  --      0.0785                 0.0949                 0.0575
 IR Inten    --      0.5803                 0.2188                 0.2267

                     13                     14                     15
                      A                      A                      A
 Frequencies --    241.3826               260.3937               265.6651
 Red. masses --      1.5666                 1.4190                 1.0790
 Frc consts  --      0.0538                 0.0567                 0.0449
 IR Inten    --      0.0850                 0.1748                 0.0889

                     16                     17                     18
                      A                      A                      A
 Frequencies --    271.3217               284.3847               287.0104
 Red. masses --      1.1597                 1.7411                 4.2769
 Frc consts  --      0.0503                 0.0830                 0.2076
 IR Inten    --      0.0123                 1.2963                 0.3920

                     19                     20                     21
                      A                      A                      A
 Frequencies --    309.2090               318.0898               322.7468
 Red. masses --      2.4232                 2.0025                 4.7683
 Frc consts  --      0.1365                 0.1194                 0.2926
 IR Inten    --      0.1210                 0.8324                 0.0028

                     22                     23                     24
                      A                      A                      A
 Frequencies --    334.9367               352.7954               355.2295
 Red. masses --      3.1538                 5.2523                 3.4851
 Frc consts  --      0.2085                 0.3852                 0.2591
 IR Inten    --      0.3497                 7.5365                 0.2281

                     25                     26                     27
                      A                      A                      A
 Frequencies --    400.4583               402.0521               409.6747
 Red. masses --      2.5916                10.4206                 2.8015
 Frc consts  --      0.2449                 0.9924                 0.2770
 IR Inten    --      0.0500                 3.3195                 1.9017

                     28                     29                     30
                      A                      A                      A
 Frequencies --    414.9752               445.4187               504.1021
 Red. masses --      2.3420                 2.4641                 5.7826
 Frc consts  --      0.2376                 0.2880                 0.8658
 IR Inten    --      0.3807                 0.1547                 0.0886

                     31                     32                     33
                      A                      A                      A
 Frequencies --    532.7707               548.0634               576.5484
 Red. masses --      3.6376                 3.0729                 5.3608
 Frc consts  --      0.6083                 0.5438                 1.0499
 IR Inten    --      6.9272                 0.0021                19.9060

                     34                     35                     36
                      A                      A                      A
 Frequencies --    629.8715               697.1419               751.1253
 Red. masses --      8.1794                 6.5082                 8.4875
 Frc consts  --      1.9119                 1.8636                 2.8213
 IR Inten    --      0.0045                82.6263                 1.5491

                     37                     38                     39
                      A                      A                      A
 Frequencies --    757.1020               768.4404               809.2111
 Red. masses --      8.2894                 5.5736                 7.3531
 Frc consts  --      2.7995                 1.9391                 2.8369
 IR Inten    --      6.4430                 3.5021                38.7305

                     40                     41                     42
                      A                      A                      A
 Frequencies --    829.1417               867.3944               910.0706
 Red. masses --      3.5790                 4.2716                 4.7781
 Frc consts  --      1.4497                 1.8935                 2.3316
 IR Inten    --     37.5851                 0.0430                 0.2004

                     43                     44                     45
                      A                      A                      A
 Frequencies --    930.9538               932.4089               936.0988
 Red. masses --      1.8485                 1.8974                 1.9709
 Frc consts  --      0.9439                 0.9719                 1.0175
 IR Inten    --      0.3365                 0.9507                 0.6847

                     46                     47                     48
                      A                      A                      A
 Frequencies --    939.4336               956.2729               967.6394
 Red. masses --      1.8391                 3.9949                 1.1958
 Frc consts  --      0.9563                 2.1524                 0.6597
 IR Inten    --      8.3672                 0.1173                 0.1625

                     49                     50                     51
                      A                      A                      A
 Frequencies --    967.8601              1045.2508              1048.5792
 Red. masses --      1.1956                 1.6335                 1.3910
 Frc consts  --      0.6599                 1.0515                 0.9011
 IR Inten    --      0.1564                53.1243                 0.7554

                     52                     53                     54
                      A                      A                      A
 Frequencies --   1049.2648              1054.7440              1101.1719
 Red. masses --      1.4336                 1.3937                 3.2058
 Frc consts  --      0.9299                 0.9135                 2.2903
 IR Inten    --      9.8779                 0.0102               153.6749

                     55                     56                     57
                      A                      A                      A
 Frequencies --   1187.8053              1201.3326              1218.1664
 Red. masses --      8.1900                 3.7532                 2.6697
 Frc consts  --      6.8081                 3.1913                 2.3342
 IR Inten    --    170.4452                 0.5329                 9.2383

                     58                     59                     60
                      A                      A                      A
 Frequencies --   1218.4440              1228.3216              1229.3057
 Red. masses --      2.6686                 2.7215                 2.6192
 Frc consts  --      2.3343                 2.4193                 2.3321
 IR Inten    --      9.0384                38.1083                 1.0868

                     61                     62                     63
                      A                      A                      A
 Frequencies --   1260.6132              1276.5555              1396.3080
 Red. masses --      2.9385                 4.0413                 1.1951
 Frc consts  --      2.7513                 3.8801                 1.3728
 IR Inten    --     70.9789                 2.7758                 5.7582

                     64                     65                     66
                      A                      A                      A
 Frequencies --   1396.5537              1401.9898              1402.3500
 Red. masses --      1.1955                 1.1998                 1.1998
 Frc consts  --      1.3737                 1.3895                 1.3902
 IR Inten    --     14.6704                 5.3189                18.5460

                     67                     68                     69
                      A                      A                      A
 Frequencies --   1433.7302              1434.0028              1480.7399
 Red. masses --      1.2086                 1.2095                 1.0469
 Frc consts  --      1.4638                 1.4654                 1.3524
 IR Inten    --      9.8705                 4.9127                 0.0469

                     70                     71                     72
                      A                      A                      A
 Frequencies --   1480.9416              1491.9142              1492.2127
 Red. masses --      1.0468                 1.0446                 1.0445
 Frc consts  --      1.3527                 1.3699                 1.3704
 IR Inten    --      0.1236                 2.4247                 1.8452

                     73                     74                     75
                      A                      A                      A
 Frequencies --   1498.6060              1498.7529              1505.0562
 Red. masses --      1.0465                 1.0466                 1.0489
 Frc consts  --      1.3847                 1.3851                 1.3999
 IR Inten    --      0.6514                 3.0505                 3.1419

                     76                     77                     78
                      A                      A                      A
 Frequencies --   1505.2659              1512.5590              1512.9279
 Red. masses --      1.0486                 1.0543                 1.0527
 Frc consts  --      1.3999                 1.4212                 1.4196
 IR Inten    --     18.6504                 4.8574                12.7746

                     79                     80                     81
                      A                      A                      A
 Frequencies --   1530.1962              1530.6709              1595.1225
 Red. masses --      1.0579                 1.0564                10.9693
 Frc consts  --      1.4595                 1.4582                16.4444
 IR Inten    --     44.7593                 2.4431               118.1822

                     82                     83                     84
                      A                      A                      A
 Frequencies --   1635.9292              1738.3668              1742.0261
 Red. masses --     11.3068                12.6621                12.7882
 Frc consts  --     17.8287                22.5443                22.8650
 IR Inten    --      3.1972               330.3983                49.0909

                     85                     86                     87
                      A                      A                      A
 Frequencies --   3026.8599              3026.9396              3029.5907
 Red. masses --      1.0368                 1.0369                 1.0417
 Frc consts  --      5.5968                 5.5973                 5.6332
 IR Inten    --     31.7239                32.4446                11.6893

                     88                     89                     90
                      A                      A                      A
 Frequencies --   3029.6720              3039.7874              3040.0185
 Red. masses --      1.0417                 1.0414                 1.0414
 Frc consts  --      5.6334                 5.6695                 5.6704
 IR Inten    --      7.1386                22.6434                41.2991

                     91                     92                     93
                      A                      A                      A
 Frequencies --   3086.2258              3086.3237              3088.7850
 Red. masses --      1.1005                 1.1005                 1.1014
 Frc consts  --      6.1759                 6.1761                 6.1912
 IR Inten    --      2.2044                 5.0129                12.8313

                     94                     95                     96
                      A                      A                      A
 Frequencies --   3088.8590              3096.2497              3096.5115
 Red. masses --      1.1014                 1.1000                 1.0999
 Frc consts  --      6.1914                 6.2132                 6.2136
 IR Inten    --     13.5976               131.5704                 4.1246

                     97                     98                     99
                      A                      A                      A
 Frequencies --   3121.0081              3121.0202              3151.4528
 Red. masses --      1.1011                 1.1011                 1.0960
 Frc consts  --      6.3193                 6.3193                 6.4132
 IR Inten    --      4.2001                11.3211                 7.2569

                    100                    101                    102
                      A                      A                      A
 Frequencies --   3151.4712              3152.2511              3152.3106
 Red. masses --      1.0960                 1.0963                 1.0962
 Frc consts  --      6.4133                 6.4180                 6.4182
 IR Inten    --     11.6126                 3.9092                14.1598

 - Thermochemistry -
 -------------------
 Temperature   298.150 Kelvin.  Pressure   1.00000 Atm.
 Atom     1 has atomic number  6 and mass  12.00000

 Molecular mass:   288.06839 amu.
 Principal axes and moments of inertia in atomic units:
                           1         2         3
     Eigenvalues --  3622.060476498.475788950.50737
           X            0.86464   0.34327   0.36683
           Y           -0.34871  -0.11556   0.93008
           Z           -0.36166   0.93210  -0.01979
 This molecule is an asymmetric top.
 Rotational symmetry number  1.
 Warning -- assumption of classical behavior for rotation
           may cause significant error
 Rotational temperatures (Kelvin)      0.02391     0.01333     0.00968
 Rotational constants (GHZ):           0.49826     0.27772     0.20164
 Zero-point vibrational energy     759412.0 (Joules/Mol)
                                  181.50383 (Kcal/Mol)
 Warning -- explicit consideration of  33 degrees of freedom as
           vibrations may cause significant error
 Vibrational temperatures:     30.74    35.50    55.59    87.13   112.45
          (Kelvin)            228.06   238.62   246.31   249.79   310.69
                              312.81   330.00   347.30   374.65   382.23
                              390.37   409.17   412.94   444.88   457.66
                              464.36   481.90   507.59   511.10   576.17
                              578.46   589.43   597.06   640.86   725.29
                              766.54   788.54   829.52   906.24  1003.03
                             1080.70  1089.30  1105.61  1164.27  1192.95
                             1247.99  1309.39  1339.43  1341.53  1346.84
                             1351.64  1375.86  1392.22  1392.53  1503.88
                             1508.67  1509.66  1517.54  1584.34  1708.99
                             1728.45  1752.67  1753.07  1767.28  1768.70
                             1813.74  1836.68  2008.98  2009.33  2017.15
                             2017.67  2062.82  2063.21  2130.45  2130.74
                             2146.53  2146.96  2156.16  2156.37  2165.44
                             2165.74  2176.24  2176.77  2201.61  2202.29
                             2295.03  2353.74  2501.12  2506.39  4354.98
                             4355.09  4358.91  4359.02  4373.58  4373.91
                             4440.39  4440.53  4444.07  4444.18  4454.81
                             4455.19  4490.43  4490.45  4534.24  4534.26
                             4535.39  4535.47

 Zero-point correction=                           0.289245 (Hartree/Particle)
 Thermal correction to Energy=                    0.309165
 Thermal correction to Enthalpy=                  0.310109
 Thermal correction to Gibbs Free Energy=         0.240454
 Sum of electronic and zero-point Energies=          -1615.082120
 Sum of electronic and thermal Energies=             -1615.062200
 Sum of electronic and thermal Enthalpies=           -1615.061256
 Sum of electronic and thermal Free Energies=        -1615.130910

                     E (Thermal)             CV                S
                      KCal/Mol        Cal/Mol-Kelvin    Cal/Mol-Kelvin
 Total                  194.004             74.763            146.601
 Electronic               0.000              0.000              0.000
 Translational            0.889              2.981             42.872
 Rotational               0.889              2.981             33.710
 Vibrational            192.226             68.802             70.020
 Vibration     1          0.593              1.985              6.503
 Vibration     2          0.593              1.985              6.217
 Vibration     3          0.594              1.981              5.328
 Vibration     4          0.597              1.973              4.439
 Vibration     5          0.599              1.964              3.937
 Vibration     6          0.621              1.893              2.568
 Vibration     7          0.624              1.884              2.482
 Vibration     8          0.626              1.878              2.422
 Vibration     9          0.627              1.875              2.396
 Vibration    10          0.645              1.817              1.993
 Vibration    11          0.646              1.815              1.981
 Vibration    12          0.652              1.796              1.884
 Vibration    13          0.658              1.777              1.793
 Vibration    14          0.668              1.745              1.659
 Vibration    15          0.671              1.736              1.624
 Vibration    16          0.675              1.726              1.588
 Vibration    17          0.683              1.703              1.507
 Vibration    18          0.684              1.698              1.492
 Vibration    19          0.699              1.656              1.367
 Vibration    20          0.704              1.639              1.320
 Vibration    21          0.708              1.630              1.296
 Vibration    22          0.716              1.606              1.236
 Vibration    23          0.729              1.570              1.154
 Vibration    24          0.731              1.565              1.143
 Vibration    25          0.766              1.469              0.961
 Vibration    26          0.768              1.466              0.955
 Vibration    27          0.774              1.449              0.928
 Vibration    28          0.778              1.438              0.909
 Vibration    29          0.805              1.371              0.810
 Vibration    30          0.859              1.241              0.648
 Vibration    31          0.888              1.178              0.581
 Vibration    32          0.903              1.144              0.548
 Vibration    33          0.933              1.082              0.492

 Optimization completed.
    -- Stationary point found.
 Normal termination of Gaussian 16 at Sat Jan  6 08:17:29 2024.
