 Q-Chem 5.4, Q-Chem, Inc., Pleasanton, CA (2021)
 Q-Chem 5.4.0 for Intel X86 EM64T Linux

User input:
--------------------------------------------------------------
$molecule
-3 2
C                 -1.6861420000      2.9402020000     -0.7223270000
C                 -2.8241080000      2.2277420000     -0.4109430000
C                 -2.7162350000      0.8880800000      0.0082870000
C                 -0.3996630000      2.3657870000     -0.6343140000
C                 -0.2825550000      1.0032830000     -0.2085600000
C                 -1.4706230000      0.2857640000      0.1081040000
C                  0.7582980000      3.2098380000     -0.9890510000
C                  2.1016740000      2.5872560000     -0.8899530000
C                  2.1482740000      1.2075620000     -0.4532910000
C                  1.0586740000      0.4457980000     -0.1299260000
O                  0.6067070000      4.4050800000     -1.3587620000
O                  3.1594900000      3.2235600000     -1.1710320000
H                 -1.7416630000      3.9736710000     -1.0477960000
H                 -3.8059220000      2.6823060000     -0.4835720000
S                 -4.2880610000      0.0315500000      0.3988260000
H                 -1.4029260000     -0.7447910000      0.4314820000
H                  3.1316820000      0.7574760000     -0.3823590000
S                  1.3944830000     -1.2872290000      0.3977580000
O                  2.8817840000     -1.4440270000      0.3381250000
O                  0.6870180000     -2.1578550000     -0.5854010000
O                  0.8617840000     -1.4018380000      1.7863560000
O                 -4.9098060000      0.8425220000      1.4948680000
O                 -3.9448370000     -1.3546970000      0.8093510000
O                 -5.0905540000      0.0989000000     -0.8649490000
$end

$rem
BASIS  =  6-311++G(d,p)
GUI  =  2
JOB_TYPE  =  SP
METHOD  =  B3LYP
SCF_CONVERGENCE  = 8
SOLVENT_METHOD = sm12
$end

$smx
solvent dimethylformamide
charges CM5
$end

--------------------------------------------------------------

             Standard Nuclear Orientation (Angstroms)
    I     Atom           X                Y                Z
 ----------------------------------------------------------------
    1      C      -1.6861420000     2.9402020000    -0.7223270000
    2      C      -2.8241080000     2.2277420000    -0.4109430000
    3      C      -2.7162350000     0.8880800000     0.0082870000
    4      C      -0.3996630000     2.3657870000    -0.6343140000
    5      C      -0.2825550000     1.0032830000    -0.2085600000
    6      C      -1.4706230000     0.2857640000     0.1081040000
    7      C       0.7582980000     3.2098380000    -0.9890510000
    8      C       2.1016740000     2.5872560000    -0.8899530000
    9      C       2.1482740000     1.2075620000    -0.4532910000
   10      C       1.0586740000     0.4457980000    -0.1299260000
   11      O       0.6067070000     4.4050800000    -1.3587620000
   12      O       3.1594900000     3.2235600000    -1.1710320000
   13      H      -1.7416630000     3.9736710000    -1.0477960000
   14      H      -3.8059220000     2.6823060000    -0.4835720000
   15      S      -4.2880610000     0.0315500000     0.3988260000
   16      H      -1.4029260000    -0.7447910000     0.4314820000
   17      H       3.1316820000     0.7574760000    -0.3823590000
   18      S       1.3944830000    -1.2872290000     0.3977580000
   19      O       2.8817840000    -1.4440270000     0.3381250000
   20      O       0.6870180000    -2.1578550000    -0.5854010000
   21      O       0.8617840000    -1.4018380000     1.7863560000
   22      O      -4.9098060000     0.8425220000     1.4948680000
   23      O      -3.9448370000    -1.3546970000     0.8093510000
   24      O      -5.0905540000     0.0989000000    -0.8649490000
 ----------------------------------------------------------------

   19   -1781.8367001811      8.42e-09  Convergence criterion met
 Total energy in the final basis set =    -1782.3392893119

                    Orbital Energies (a.u.)
 --------------------------------------------------------------

 Alpha MOs
 -- Occupied --
-89.0290 -89.0274 -19.0824 -19.0785 -19.0731 -19.0712 -19.0712 -19.0708
-19.0703 -19.0703 -10.2235 -10.2182 -10.1979 -10.1966 -10.1956 -10.1844
-10.1842 -10.1826 -10.1813 -10.1677  -8.0874  -8.0858  -6.0501  -6.0500
 -6.0493  -6.0486  -6.0483  -6.0477  -1.0864  -1.0855  -1.0110  -0.9827
 -0.9523  -0.9492  -0.9479  -0.9457  -0.8717  -0.8169  -0.7660  -0.7408
 -0.6998  -0.6369  -0.6234  -0.6032  -0.5707  -0.5427  -0.5142  -0.4973
 -0.4833  -0.4668  -0.4508  -0.4373  -0.4339  -0.4337  -0.4315  -0.4248
 -0.4193  -0.4184  -0.4123  -0.3909  -0.3773  -0.3772  -0.3559  -0.3484
 -0.3249  -0.3122  -0.3120  -0.3110  -0.3097  -0.2856  -0.2807  -0.2772
 -0.2744  -0.2708  -0.2688  -0.2565  -0.2535  -0.2342  -0.2328  -0.2323
 -0.2237  -0.1628

 Beta MOs
 -- Occupied --
-89.0290 -89.0274 -19.0760 -19.0731 -19.0713 -19.0712 -19.0712 -19.0709
-19.0701 -19.0701 -10.2223 -10.2171 -10.1972 -10.1959 -10.1936 -10.1843
-10.1843 -10.1821 -10.1810 -10.1676  -8.0874  -8.0858  -6.0501  -6.0500
 -6.0494  -6.0486  -6.0483  -6.0478  -1.0863  -1.0853  -0.9997  -0.9698
 -0.9523  -0.9488  -0.9478  -0.9456  -0.8697  -0.8133  -0.7636  -0.7391
 -0.6921  -0.6347  -0.6219  -0.5998  -0.5697  -0.5403  -0.5128  -0.4958
 -0.4816  -0.4659  -0.4495  -0.4370  -0.4325  -0.4319  -0.4304  -0.4245
 -0.4172  -0.4063  -0.4061  -0.3887  -0.3742  -0.3646  -0.3545  -0.3282
 -0.3142  -0.3121  -0.3117  -0.3094  -0.3052  -0.2791  -0.2790  -0.2768
 -0.2741  -0.2700  -0.2656  -0.2501  -0.2473  -0.2329  -0.2320  -0.2229
 -0.2177

          Ground-State Mulliken Net Atomic Charges

     Atom                 Charge (a.u.)    Spin (a.u.)
  --------------------------------------------------------
      1 C                     0.727434       0.052843
      2 C                     0.201594       0.009223
      3 C                    -1.102445       0.046388
      4 C                     0.371485       0.071645
      5 C                    -0.571556       0.048433
      6 C                    -0.550595      -0.011657
      7 C                    -0.742323       0.065570
      8 C                     0.759180       0.129302
      9 C                    -0.004431      -0.027626
     10 C                    -2.111295       0.102602
     11 O                    -0.198138       0.247662
     12 O                    -0.262278       0.264805
     13 H                     0.283006      -0.004467
     14 H                     0.315108      -0.001584
     15 S                     0.793581      -0.001950
     16 H                    -0.069725       0.001053
     17 H                     0.181602      -0.004030
     18 S                     0.725422      -0.002163
     19 O                    -0.195385       0.000260
     20 O                    -0.336661       0.005525
     21 O                    -0.338380       0.005555
     22 O                    -0.242405       0.001048
     23 O                    -0.388699       0.000547
     24 O                    -0.244095       0.001020
  --------------------------------------------------------
  Sum of atomic charges =    -3.000000

                    Cartesian Multipole Moments
 -----------------------------------------------------------------
    Charge (ESU x 10^10)
               -14.4096
    Dipole Moment (Debye)
         X       9.3143      Y      -6.3930      Z       0.0389
       Tot      11.2973
    Quadrupole Moments (Debye-Ang)
        XX    -303.6123     XY     -16.5353     YY    -227.7783
        XZ      17.1604     YZ      23.9036     ZZ    -163.7467

 Total job time:  646.98s(wall), 4762.88s(cpu)
        *  Thank you very much for using Q-Chem.  Have a nice day.  *
