 Q-Chem 5.4, Q-Chem, Inc., Pleasanton, CA (2021)
 Q-Chem 5.4.0 for Intel X86 EM64T Linux

User input:
--------------------------------------------------------------
$molecule
-1 2
C                  0.5292760000      1.9000900000     -1.3327470000
C                 -0.5607560000      1.3488050000     -1.9802670000
C                 -0.6581690000     -0.0488750000     -2.1332210000
C                  1.5553570000      1.0790690000     -0.8172520000
C                  1.4587120000     -0.3337000000     -0.9711280000
C                  0.3404570000     -0.8690480000     -1.6336980000
C                  2.6963610000      1.6579260000     -0.1390850000
C                  3.6939570000      0.7373500000      0.3539670000
C                  3.6266530000     -0.6341720000      0.2293880000
C                  2.5042830000     -1.2409900000     -0.4523100000
O                  2.8829340000      2.9040470000      0.0530500000
O                  2.4130020000     -2.4879530000     -0.5982750000
O                  4.7411100000      1.3512250000      0.9782740000
H                  0.6264790000      2.9720800000     -1.2030880000
H                 -1.3428910000      1.9926070000     -2.3721420000
H                 -1.5145510000     -0.4807860000     -2.6423550000
H                  0.2920000000     -1.9470320000     -1.7382410000
H                  4.4894630000      2.2991180000      0.9099160000
C                  4.7094720000     -1.5289630000      0.7741660000
C                  5.7764620000     -1.8754010000     -0.2841920000
C                  6.8197310000     -2.9165210000      0.1864830000
C                  7.7079290000     -3.3647470000     -0.9630810000
C                  8.6144660000     -2.4877120000     -1.5757290000
C                  7.6337470000     -4.6708050000     -1.4594930000
C                  9.4224660000     -2.8986160000     -2.6327220000
C                  9.3331520000     -4.2085900000     -3.0923470000
C                  8.4366750000     -5.0990040000     -2.5168570000
H                  4.2433330000     -2.4607060000      1.1116520000
H                  5.1782620000     -1.0427870000      1.6333390000
H                  6.2886230000     -0.9569860000     -0.5947870000
H                  5.2646290000     -2.2700680000     -1.1663310000
H                  6.2616760000     -3.8002900000      0.5191250000
C                  7.6568890000     -2.4204650000      1.3811500000
H                  8.6847080000     -1.4620570000     -1.2313560000
H                  6.9262490000     -5.3647630000     -1.0174220000
H                  8.3663290000     -6.1103620000     -2.9005250000
O                 10.0918340000     -4.6104550000     -4.1945260000
C                 11.3615790000     -5.0936610000     -4.0070250000
C                 11.9589890000     -5.2586590000     -2.7555430000
C                 12.0619000000     -5.4345460000     -5.1693400000
C                 13.3540160000     -5.9373360000     -5.0760180000
C                 13.2573250000     -5.7644280000     -2.6793390000
C                 13.9626210000     -6.1063300000     -3.8302360000
H                 10.1134140000     -2.2115980000     -3.1079000000
H                  7.0189960000     -2.2131450000      2.2426050000
H                  8.1888360000     -1.4955990000      1.1374770000
H                  8.3985320000     -3.1679910000      1.6795580000
H                 11.4177310000     -4.9955190000     -1.8563990000
H                 11.5757980000     -5.2968510000     -6.1278150000
H                 13.8895340000     -6.1984100000     -5.9825170000
H                 13.7159480000     -5.8898620000     -1.7043490000
H                 14.9707950000     -6.4979820000     -3.7603850000
$end
$rem
MAX_SCF_CYCLES=200
BASIS  =  6-311++G(d,p)
GUI  =  2
JOB_TYPE  =  SP
SCF_CONVERGENCE = 8
SCF_ALGORITHM = DIIS_GDM
THRESH = 14
scf_guess = GWH
METHOD  =  B3LYP
SOLVENT_METHOD = PCM
$end
$pcm
theory = CPCM
$end
$solvent
dielectric 37.219
opticaldielectric 1.43
$end

--------------------------------------------------------------

             Standard Nuclear Orientation (Angstroms)
    I     Atom           X                Y                Z
 ----------------------------------------------------------------
    1      C       0.5292760000     1.9000900000    -1.3327470000
    2      C      -0.5607560000     1.3488050000    -1.9802670000
    3      C      -0.6581690000    -0.0488750000    -2.1332210000
    4      C       1.5553570000     1.0790690000    -0.8172520000
    5      C       1.4587120000    -0.3337000000    -0.9711280000
    6      C       0.3404570000    -0.8690480000    -1.6336980000
    7      C       2.6963610000     1.6579260000    -0.1390850000
    8      C       3.6939570000     0.7373500000     0.3539670000
    9      C       3.6266530000    -0.6341720000     0.2293880000
   10      C       2.5042830000    -1.2409900000    -0.4523100000
   11      O       2.8829340000     2.9040470000     0.0530500000
   12      O       2.4130020000    -2.4879530000    -0.5982750000
   13      O       4.7411100000     1.3512250000     0.9782740000
   14      H       0.6264790000     2.9720800000    -1.2030880000
   15      H      -1.3428910000     1.9926070000    -2.3721420000
   16      H      -1.5145510000    -0.4807860000    -2.6423550000
   17      H       0.2920000000    -1.9470320000    -1.7382410000
   18      H       4.4894630000     2.2991180000     0.9099160000
   19      C       4.7094720000    -1.5289630000     0.7741660000
   20      C       5.7764620000    -1.8754010000    -0.2841920000
   21      C       6.8197310000    -2.9165210000     0.1864830000
   22      C       7.7079290000    -3.3647470000    -0.9630810000
   23      C       8.6144660000    -2.4877120000    -1.5757290000
   24      C       7.6337470000    -4.6708050000    -1.4594930000
   25      C       9.4224660000    -2.8986160000    -2.6327220000
   26      C       9.3331520000    -4.2085900000    -3.0923470000
   27      C       8.4366750000    -5.0990040000    -2.5168570000
   28      H       4.2433330000    -2.4607060000     1.1116520000
   29      H       5.1782620000    -1.0427870000     1.6333390000
   30      H       6.2886230000    -0.9569860000    -0.5947870000
   31      H       5.2646290000    -2.2700680000    -1.1663310000
   32      H       6.2616760000    -3.8002900000     0.5191250000
   33      C       7.6568890000    -2.4204650000     1.3811500000
   34      H       8.6847080000    -1.4620570000    -1.2313560000
   35      H       6.9262490000    -5.3647630000    -1.0174220000
   36      H       8.3663290000    -6.1103620000    -2.9005250000
   37      O      10.0918340000    -4.6104550000    -4.1945260000
   38      C      11.3615790000    -5.0936610000    -4.0070250000
   39      C      11.9589890000    -5.2586590000    -2.7555430000
   40      C      12.0619000000    -5.4345460000    -5.1693400000
   41      C      13.3540160000    -5.9373360000    -5.0760180000
   42      C      13.2573250000    -5.7644280000    -2.6793390000
   43      C      13.9626210000    -6.1063300000    -3.8302360000
   44      H      10.1134140000    -2.2115980000    -3.1079000000
   45      H       7.0189960000    -2.2131450000     2.2426050000
   46      H       8.1888360000    -1.4955990000     1.1374770000
   47      H       8.3985320000    -3.1679910000     1.6795580000
   48      H      11.4177310000    -4.9955190000    -1.8563990000
   49      H      11.5757980000    -5.2968510000    -6.1278150000
   50      H      13.8895340000    -6.1984100000    -5.9825170000
   51      H      13.7159480000    -5.8898620000    -1.7043490000
   52      H      14.9707950000    -6.4979820000    -3.7603850000
 ----------------------------------------------------------------

   76   -1305.4278080161      4.94e-09  Convergence criterion met
 Total energy in the final basis set =    -1305.4278080161

                    Orbital Energies (a.u.)
 --------------------------------------------------------------

 Alpha MOs
 -- Occupied --
-19.1678 -19.1440 -19.0874 -19.0761 -10.2439 -10.2360 -10.2245 -10.2222
-10.2218 -10.1820 -10.1800 -10.1798 -10.1795 -10.1791 -10.1770 -10.1769
-10.1766 -10.1754 -10.1750 -10.1745 -10.1729 -10.1720 -10.1719 -10.1710
-10.1706 -10.1693 -10.1631 -10.1592 -10.1583 -10.1530  -1.0862  -1.0639
 -1.0018  -0.9975  -0.8714  -0.8588  -0.8575  -0.8169  -0.8009  -0.7680
 -0.7555  -0.7550  -0.7522  -0.7504  -0.7248  -0.7062  -0.6732  -0.6519
 -0.6345  -0.6227  -0.6171  -0.6149  -0.5971  -0.5818  -0.5698  -0.5605
 -0.5523  -0.5370  -0.5082  -0.5045  -0.4904  -0.4861  -0.4804  -0.4738
 -0.4629  -0.4527  -0.4493  -0.4458  -0.4395  -0.4368  -0.4290  -0.4270
 -0.4264  -0.4227  -0.4176  -0.4149  -0.4094  -0.4030  -0.3950  -0.3904
 -0.3883  -0.3820  -0.3762  -0.3698  -0.3688  -0.3641  -0.3599  -0.3509
 -0.3468  -0.3439  -0.3422  -0.3377  -0.3346  -0.3264  -0.3222  -0.3162
 -0.2681  -0.2664  -0.2617  -0.2613  -0.2581  -0.2475  -0.2411  -0.2349
 -0.2275  -0.1522

 Beta MOs
 -- Occupied --
-19.1678 -19.1435 -19.0812 -19.0708 -10.2439 -10.2359 -10.2231 -10.2209
-10.2191 -10.1820 -10.1800 -10.1798 -10.1795 -10.1791 -10.1770 -10.1769
-10.1766 -10.1754 -10.1749 -10.1745 -10.1719 -10.1719 -10.1718 -10.1702
-10.1701 -10.1694 -10.1623 -10.1592 -10.1584 -10.1530  -1.0862  -1.0617
 -0.9926  -0.9870  -0.8714  -0.8575  -0.8564  -0.8154  -0.7987  -0.7669
 -0.7553  -0.7549  -0.7510  -0.7487  -0.7243  -0.7050  -0.6661  -0.6505
 -0.6335  -0.6227  -0.6164  -0.6137  -0.5957  -0.5809  -0.5675  -0.5602
 -0.5523  -0.5352  -0.5078  -0.5026  -0.4902  -0.4839  -0.4804  -0.4732
 -0.4613  -0.4518  -0.4492  -0.4458  -0.4378  -0.4304  -0.4287  -0.4266
 -0.4252  -0.4189  -0.4136  -0.4123  -0.4084  -0.4016  -0.3938  -0.3873
 -0.3806  -0.3782  -0.3745  -0.3698  -0.3648  -0.3626  -0.3558  -0.3464
 -0.3451  -0.3421  -0.3365  -0.3344  -0.3288  -0.3249  -0.3213  -0.3158
 -0.2664  -0.2613  -0.2562  -0.2512  -0.2486  -0.2468  -0.2364  -0.2349
 -0.2191

          Ground-State Mulliken Net Atomic Charges

     Atom                 Charge (a.u.)    Spin (a.u.)
  --------------------------------------------------------
      1 C                     0.032152       0.074943
      2 C                    -0.430248       0.000032
      3 C                    -0.495619       0.070875
      4 C                     0.274075      -0.010679
      5 C                     0.170225       0.063899
      6 C                     0.069280       0.002921
      7 C                    -0.853162       0.176921
      8 C                    -0.701515       0.056955
      9 C                     2.035549       0.043069
     10 C                    -0.755898       0.085486
     11 O                    -0.538361       0.226339
     12 O                    -0.476265       0.193029
     13 O                    -0.279867       0.016835
     14 H                     0.176922      -0.004020
     15 H                     0.197731      -0.000626
     16 H                     0.195729      -0.005025
     17 H                     0.174199      -0.000259
     18 H                     0.299620      -0.003485
     19 C                    -0.313753       0.010274
     20 C                    -1.042023      -0.001754
     21 C                     0.223995       0.005743
     22 C                     0.733057      -0.003169
     23 C                    -0.343355      -0.001364
     24 C                    -0.258638       0.000795
     25 C                    -0.047016       0.000699
     26 C                    -0.365427       0.000455
     27 C                    -0.076021      -0.000016
     28 H                     0.186013       0.002782
     29 H                     0.261599      -0.001064
     30 H                     0.185731       0.003119
     31 H                     0.197660      -0.002122
     32 H                     0.216825       0.000311
     33 C                    -0.776952      -0.001930
     34 H                     0.211114      -0.000074
     35 H                     0.196866      -0.000047
     36 H                     0.228555       0.000004
     37 O                    -0.064808       0.000003
     38 C                    -0.252991      -0.000072
     39 C                     0.095100       0.000022
     40 C                    -0.264773       0.000027
     41 C                    -0.227011       0.000004
     42 C                    -0.163797       0.000013
     43 C                    -0.351958       0.000007
     44 H                     0.220386      -0.000028
     45 H                     0.145374      -0.000083
     46 H                     0.172071       0.000036
     47 H                     0.157813       0.000205
     48 H                     0.194996       0.000015
     49 H                     0.201781      -0.000000
     50 H                     0.211496      -0.000000
     51 H                     0.229694      -0.000001
     52 H                     0.183849      -0.000000
  --------------------------------------------------------
  Sum of atomic charges =    -1.000000

                    Cartesian Multipole Moments
 -----------------------------------------------------------------
    Charge (ESU x 10^10)
                -4.8032
    Dipole Moment (Debye)
         X     -14.3695      Y       0.3986      Z       3.1768
       Tot      14.7218
    Quadrupole Moments (Debye-Ang)
        XX    -226.6556     XY       2.9174     YY    -211.9709
        XZ      21.4188     YZ     -12.7365     ZZ    -189.2552

 Total job time:  3829.70s(wall), 28032.30s(cpu)
        *  Thank you very much for using Q-Chem.  Have a nice day.  *
