 Q-Chem 5.4, Q-Chem, Inc., Pleasanton, CA (2021)
 Q-Chem 5.4.0 for Intel X86 EM64T Linux

User input:
--------------------------------------------------------------
$molecule
-1 2
C                 -2.1767190000     -2.1014920000      4.9811520000
C                 -1.2991420000     -3.1441910000      4.4844160000
C                 -1.2403990000     -3.3830210000      3.1268500000
C                 -2.0101080000     -2.6529800000      2.1370340000
C                 -2.8681570000     -1.6114520000      2.6407180000
C                 -2.9402850000     -1.3321990000      3.9851810000
O                 -2.3357830000     -1.8164960000      6.2143430000
O                 -1.9220190000     -2.9249490000      0.9044630000
N                 -3.6980260000     -0.3121040000      4.5474640000
C                 -4.8840240000      0.2420160000      3.9203050000
C                 -6.0530540000     -0.7592700000      3.8422310000
C                 -5.2919780000      1.5178380000      4.6641670000
H                 -3.4412280000     -1.0539230000      1.9067870000
H                 -3.7153390000     -0.4183820000      5.5596750000
H                 -4.6132470000      0.5244380000      2.8962250000
H                 -6.8987640000     -0.3394480000      3.2850220000
H                 -6.3989980000     -1.0187640000      4.8487410000
H                 -5.7341620000     -1.6771950000      3.3442920000
H                 -6.1713770000      1.9771960000      4.2021060000
H                 -4.4740890000      2.2425400000      4.6626250000
H                 -5.5417190000      1.2917330000      5.7072770000
C                 -0.4680500000     -3.9585280000      5.4946800000
C                 -1.4111680000     -4.7000930000      6.4731410000
C                  0.4203310000     -5.0142330000      4.8093650000
C                  0.4585340000     -3.0115020000      6.2951760000
H                 -0.6013200000     -4.1551830000      2.7162050000
H                 -2.0450630000     -3.9884680000      7.0017890000
H                 -0.8272170000     -5.2729250000      7.2052340000
H                 -2.0512510000     -5.4011960000      5.9272410000
H                  0.9900090000     -5.5584150000      5.5710010000
H                  1.1348340000     -4.5577970000      4.1182400000
H                 -0.1720780000     -5.7436600000      4.2495450000
H                 -0.1291290000     -2.2572260000      6.8181460000
H                  1.1584610000     -2.5051170000      5.6222480000
H                  1.0442050000     -3.5811830000      7.0282930000
$end

$rem
BASIS  =  6-311++G(d,p)
GUI  =  2
JOB_TYPE  =  SP
METHOD  =  B3LYP
SCF_CONVERGENCE  = 8
SOLVENT_METHOD = sm12
$end

$smx
solvent dimethylformamide
charges CM5
$end

--------------------------------------------------------------

             Standard Nuclear Orientation (Angstroms)
    I     Atom           X                Y                Z
 ----------------------------------------------------------------
    1      C      -2.1767190000    -2.1014920000     4.9811520000
    2      C      -1.2991420000    -3.1441910000     4.4844160000
    3      C      -1.2403990000    -3.3830210000     3.1268500000
    4      C      -2.0101080000    -2.6529800000     2.1370340000
    5      C      -2.8681570000    -1.6114520000     2.6407180000
    6      C      -2.9402850000    -1.3321990000     3.9851810000
    7      O      -2.3357830000    -1.8164960000     6.2143430000
    8      O      -1.9220190000    -2.9249490000     0.9044630000
    9      N      -3.6980260000    -0.3121040000     4.5474640000
   10      C      -4.8840240000     0.2420160000     3.9203050000
   11      C      -6.0530540000    -0.7592700000     3.8422310000
   12      C      -5.2919780000     1.5178380000     4.6641670000
   13      H      -3.4412280000    -1.0539230000     1.9067870000
   14      H      -3.7153390000    -0.4183820000     5.5596750000
   15      H      -4.6132470000     0.5244380000     2.8962250000
   16      H      -6.8987640000    -0.3394480000     3.2850220000
   17      H      -6.3989980000    -1.0187640000     4.8487410000
   18      H      -5.7341620000    -1.6771950000     3.3442920000
   19      H      -6.1713770000     1.9771960000     4.2021060000
   20      H      -4.4740890000     2.2425400000     4.6626250000
   21      H      -5.5417190000     1.2917330000     5.7072770000
   22      C      -0.4680500000    -3.9585280000     5.4946800000
   23      C      -1.4111680000    -4.7000930000     6.4731410000
   24      C       0.4203310000    -5.0142330000     4.8093650000
   25      C       0.4585340000    -3.0115020000     6.2951760000
   26      H      -0.6013200000    -4.1551830000     2.7162050000
   27      H      -2.0450630000    -3.9884680000     7.0017890000
   28      H      -0.8272170000    -5.2729250000     7.2052340000
   29      H      -2.0512510000    -5.4011960000     5.9272410000
   30      H       0.9900090000    -5.5584150000     5.5710010000
   31      H       1.1348340000    -4.5577970000     4.1182400000
   32      H      -0.1720780000    -5.7436600000     4.2495450000
   33      H      -0.1291290000    -2.2572260000     6.8181460000
   34      H       1.1584610000    -2.5051170000     5.6222480000
   35      H       1.0442050000    -3.5811830000     7.0282930000
 ----------------------------------------------------------------

   18    -712.2837302093      4.33e-09  Convergence criterion met
 Total energy in the final basis set =     -712.3681033896

                    Orbital Energies (a.u.)
 --------------------------------------------------------------

 Alpha MOs
 -- Occupied --
-19.0758 -19.0645 -14.3155 -10.2171 -10.2141 -10.2121 -10.2053 -10.1915
-10.1721 -10.1642 -10.1624 -10.1619 -10.1576 -10.1575 -10.1570 -10.1490
 -1.0000  -0.9847  -0.9280  -0.8351  -0.8040  -0.7722  -0.7226  -0.6920
 -0.6907  -0.6865  -0.6712  -0.6238  -0.5855  -0.5773  -0.5297  -0.4974
 -0.4921  -0.4671  -0.4583  -0.4492  -0.4463  -0.4413  -0.4287  -0.4239
 -0.4096  -0.3995  -0.3919  -0.3904  -0.3848  -0.3766  -0.3760  -0.3714
 -0.3666  -0.3630  -0.3532  -0.3451  -0.3371  -0.3356  -0.3276  -0.3034
 -0.2671  -0.2412  -0.2287  -0.2127  -0.1529

 Beta MOs
 -- Occupied --
-19.0687 -19.0584 -14.3147 -10.2146 -10.2133 -10.2121 -10.2043 -10.1915
-10.1715 -10.1642 -10.1624 -10.1619 -10.1576 -10.1574 -10.1547 -10.1490
 -0.9883  -0.9741  -0.9254  -0.8325  -0.8014  -0.7702  -0.7208  -0.6919
 -0.6895  -0.6863  -0.6622  -0.6217  -0.5837  -0.5742  -0.5280  -0.4953
 -0.4907  -0.4655  -0.4552  -0.4481  -0.4455  -0.4404  -0.4263  -0.4215
 -0.4026  -0.3948  -0.3907  -0.3891  -0.3784  -0.3753  -0.3732  -0.3680
 -0.3640  -0.3554  -0.3448  -0.3389  -0.3358  -0.3327  -0.3268  -0.2908
 -0.2406  -0.2350  -0.2229  -0.2043

          Ground-State Mulliken Net Atomic Charges

     Atom                 Charge (a.u.)    Spin (a.u.)
  --------------------------------------------------------
      1 C                    -1.804834       0.166149
      2 C                     0.762044       0.012851
      3 C                    -1.186911       0.178481
      4 C                    -1.808313       0.047551
      5 C                     0.007976       0.016933
      6 C                     0.134225       0.073784
      7 O                    -0.248965       0.265800
      8 O                    -0.416742       0.216330
      9 N                     0.049186       0.037387
     10 C                    -0.039023      -0.004301
     11 C                    -0.351899       0.004254
     12 C                     0.253715       0.001873
     13 H                     0.061292      -0.001891
     14 H                     0.273263      -0.002528
     15 H                     0.114112       0.000372
     16 H                     0.269387       0.000307
     17 H                     0.130851       0.000241
     18 H                     0.094090      -0.001008
     19 H                     0.274124      -0.000128
     20 H                     0.160002       0.000598
     21 H                     0.183304      -0.000049
     22 C                     1.026510      -0.017210
     23 C                    -0.434416       0.009491
     24 C                     0.312663       0.001946
     25 C                    -0.431151       0.008510
     26 H                     0.072429      -0.014109
     27 H                     0.123890      -0.001338
     28 H                     0.258040       0.000410
     29 H                     0.094759       0.000813
     30 H                     0.349428       0.000244
     31 H                     0.121543      -0.000611
     32 H                     0.125414      -0.000576
     33 H                     0.113493      -0.001716
     34 H                     0.094999       0.000708
     35 H                     0.261518       0.000436
  --------------------------------------------------------
  Sum of atomic charges =    -1.000000

                    Cartesian Multipole Moments
 -----------------------------------------------------------------
    Charge (ESU x 10^10)
                -4.8032
    Dipole Moment (Debye)
         X       8.4985      Y      12.6544      Z     -15.6055
       Tot      21.8149
    Quadrupole Moments (Debye-Ang)
        XX    -118.3848     XY     -24.8395     YY    -140.1589
        XZ      27.2072     YZ      36.3387     ZZ    -189.9457

 Total job time:  1281.75s(wall), 9882.86s(cpu)
        *  Thank you very much for using Q-Chem.  Have a nice day.  *
