 Gaussian 16, Revision A.03,
 Gaussian 16:  ES64L-G16RevA.03 25-Dec-2016

 ----------------------------------------------------------------------
 #P UB3LYP/6-311++G(d,p) nosym opt freq SCRF=(PCM,Solvent=n,n-DiMethylF
 ormamide)
 ----------------------------------------------------------------------

 -------
 Radical
 -------
 Symbolic Z-matrix:
 Charge = -1 Multiplicity = 2

 SCF Done:  E(UB3LYP) =  -696.308584801     A.U. after   17 cycles
 SCF Done:  E(UB3LYP) =  -696.308791829     A.U. after   14 cycles
 SCF Done:  E(UB3LYP) =  -696.308937759     A.U. after   13 cycles
 SCF Done:  E(UB3LYP) =  -696.308791803     A.U. after   13 cycles
 SCF Done:  E(UB3LYP) =  -696.308965166     A.U. after   13 cycles
 SCF Done:  E(UB3LYP) =  -696.308966102     A.U. after   10 cycles
 SCF Done:  E(UB3LYP) =  -696.308964977     A.U. after    9 cycles
 SCF Done:  E(UB3LYP) =  -696.308966013     A.U. after   10 cycles
 SCF Done:  E(UB3LYP) =  -696.308966336     A.U. after    9 cycles
 Optimization completed.
    -- Stationary point found.
 Normal termination of Gaussian 16 at Sat Feb 10 11:16:18 2024.

 ----------------------------------------------------------------------
 #P Geom=AllCheck Guess=TCheck SCRF=Check GenChk UB3LYP/6-311++G(d,p) F
 req
 ----------------------------------------------------------------------

 Structure from the checkpoint file:  "045-rad.chk"
 -------
 Radical
 -------
 Charge = -1 Multiplicity = 2

                          Input orientation:
 ---------------------------------------------------------------------
 Center     Atomic      Atomic             Coordinates (Angstroms)
 Number     Number       Type             X           Y           Z
 ---------------------------------------------------------------------
      1          6           0       -1.277812    1.815632   -0.857326
      2          6           0       -2.562577    1.153711   -0.796381
      3          6           0       -2.887882    0.106271    0.031180
      4          6           0       -1.844592   -0.383826    0.929925
      5          6           0       -0.559838    0.278116    0.869002
      6          6           0       -0.234532    1.325559    0.041442
      7          8           0       -1.106574    2.779130   -1.673140
      8          8           0       -2.015852   -1.347290    1.745773
      9          6           0        1.162783    1.969322    0.044722
     10          6           0        1.048994    3.467494    0.416937
     11          6           0        2.111626    1.307166    1.062167
     12          6           0        1.806899    1.831029   -1.356074
     13          6           0       -4.285198   -0.537488    0.027920
     14          6           0       -5.234056    0.124662   -0.989516
     15          6           0       -4.929292   -0.399193    1.428725
     16          6           0       -4.171407   -2.035662   -0.344287
     17          1           0       -3.295062    1.559693   -1.484317
     18          1           0        0.172642   -0.127852    1.556952
     19          1           0        0.409694    3.995439   -0.289648
     20          1           0        2.040621    3.932875    0.411294
     21          1           0        0.629740    3.583961    1.421496
     22          1           0        1.738939    1.393779    2.086787
     23          1           0        3.085919    1.803052    1.021333
     24          1           0        2.270428    0.246962    0.845471
     25          1           0        2.798852    2.295735   -1.361437
     26          1           0        1.929651    0.775947   -1.621116
     27          1           0        1.190775    2.310693   -2.115890
     28          1           0       -4.861395    0.038024   -2.014144
     29          1           0       -5.392836    1.184873   -0.772837
     30          1           0       -6.208355   -0.371208   -0.948650
     31          1           0       -5.052034    0.655888    1.693771
     32          1           0       -4.313162   -0.878865    2.188531
     33          1           0       -5.921249   -0.863893    1.434099
     34          1           0       -3.752174   -2.152134   -1.348854
     35          1           0       -5.163030   -2.501050   -0.338618
     36          1           0       -3.532088   -2.563598    0.362289
 ---------------------------------------------------------------------

 SCF Done:  E(UB3LYP) =  -696.308966336     A.U. after    1 cycles

 Alpha  occ. eigenvalues --  -19.06692 -19.06692 -10.21089 -10.21089 -10.17997
 Alpha  occ. eigenvalues --  -10.17996 -10.16381 -10.16380 -10.15040 -10.15038
 Alpha  occ. eigenvalues --  -10.14929 -10.14929 -10.14467 -10.14467 -10.14464
 Alpha  occ. eigenvalues --  -10.14464  -0.98718  -0.98451  -0.83127  -0.81661
 Alpha  occ. eigenvalues --   -0.78158  -0.72113  -0.68053  -0.67811  -0.67450
 Alpha  occ. eigenvalues --   -0.67445  -0.66482  -0.60656  -0.56765  -0.54196
 Alpha  occ. eigenvalues --   -0.50982  -0.47365  -0.46429  -0.45324  -0.43196
 Alpha  occ. eigenvalues --   -0.42947  -0.42656  -0.42539  -0.41199  -0.40633
 Alpha  occ. eigenvalues --   -0.40470  -0.39057  -0.38967  -0.37422  -0.36810
 Alpha  occ. eigenvalues --   -0.36445  -0.36212  -0.35494  -0.35064  -0.34862
 Alpha  occ. eigenvalues --   -0.33178  -0.32580  -0.32529  -0.32400  -0.32021
 Alpha  occ. eigenvalues --   -0.31410  -0.26820  -0.24144  -0.23029  -0.22533
 Alpha  occ. eigenvalues --   -0.15346
 Alpha virt. eigenvalues --   -0.00484   0.00149   0.00292   0.01366   0.01382
 Alpha virt. eigenvalues --    0.02174   0.02523   0.02709   0.03502   0.03683
 Alpha virt. eigenvalues --    0.03803   0.03877   0.04484   0.05157   0.05183

  Beta  occ. eigenvalues --  -19.06000 -19.06000 -10.20932 -10.20932 -10.18003
  Beta  occ. eigenvalues --  -10.18003 -10.16269 -10.16268 -10.14945 -10.14944
  Beta  occ. eigenvalues --  -10.14929 -10.14929 -10.14460 -10.14460 -10.14457
  Beta  occ. eigenvalues --  -10.14457  -0.97509  -0.97208  -0.82758  -0.81574
  Beta  occ. eigenvalues --   -0.77855  -0.71894  -0.67834  -0.67790  -0.67428
  Beta  occ. eigenvalues --   -0.67423  -0.65639  -0.60371  -0.56411  -0.54078
  Beta  occ. eigenvalues --   -0.50717  -0.47194  -0.46171  -0.45271  -0.43058
  Beta  occ. eigenvalues --   -0.42911  -0.42500  -0.42349  -0.41140  -0.40174
  Beta  occ. eigenvalues --   -0.39578  -0.38566  -0.38394  -0.37409  -0.36394
  Beta  occ. eigenvalues --   -0.36194  -0.35810  -0.35250  -0.34776  -0.33108
  Beta  occ. eigenvalues --   -0.32983  -0.32346  -0.32226  -0.32190  -0.31976
  Beta  occ. eigenvalues --   -0.31347  -0.23591  -0.23408  -0.22406  -0.21944
  Beta virt. eigenvalues --   -0.08113  -0.00470   0.00294   0.01366   0.01387
  Beta virt. eigenvalues --    0.01594   0.02194   0.02527   0.02719   0.03705
  Beta virt. eigenvalues --    0.03807   0.03907   0.04499   0.05144   0.05184

 Mulliken charges and spin densities:
               1          2
     1  C   -0.974625   0.100853
     2  C   -0.403692   0.054643
     3  C    1.150018   0.103192
     4  C   -0.974612   0.100852
     5  C   -0.403693   0.054644
     6  C    1.150030   0.103194
     7  O   -0.461095   0.247325
     8  O   -0.461093   0.247325
     9  C    0.572606  -0.016286
    10  C   -0.683253   0.011370
    11  C   -0.552938  -0.002416
    12  C   -0.683211   0.011350
    13  C    0.572604  -0.016287
    14  C   -0.552936  -0.002417
    15  C   -0.683214   0.011350
    16  C   -0.683248   0.011370
    17  H    0.190166  -0.008555
    18  H    0.190166  -0.008555
    19  H    0.176287  -0.001747
    20  H    0.146670   0.000410
    21  H    0.132239   0.000957
    22  H    0.133060  -0.000330
    23  H    0.169395  -0.000058
    24  H    0.133102  -0.000329
    25  H    0.146696   0.000406
    26  H    0.132270   0.000955
    27  H    0.176293  -0.001739
    28  H    0.133061  -0.000330
    29  H    0.133102  -0.000329
    30  H    0.169395  -0.000058
    31  H    0.132270   0.000955
    32  H    0.176292  -0.001739
    33  H    0.146694   0.000406
    34  H    0.132238   0.000957
    35  H    0.146670   0.000410
    36  H    0.176288  -0.001747
 Sum of Mulliken charges =  -1.00000   1.00000

 Dipole moment (field-independent basis, Debye):
    X=              7.4988    Y=             -3.4387    Z=             -0.1744  Tot=              8.2515
 Quadrupole moment (field-independent basis, Debye-Ang):
   XX=           -116.7699   YY=           -130.8307   ZZ=           -121.4169
   XY=              0.9838   XZ=              4.7818   YZ=             18.5164

  Exact polarizability: 275.707  41.772 281.171  -3.015 -63.945 250.321
 Approx polarizability: 270.944  35.844 313.208  -5.827 -82.441 280.861

                      1                      2                      3
                      A                      A                      A
 Frequencies --     41.4887                59.3401                87.3976
 Red. masses --      3.8216                 2.9749                 4.0097
 Frc consts  --      0.0039                 0.0062                 0.0180
 IR Inten    --      8.5415                 0.8869                 0.0000

                      4                      5                      6
                      A                      A                      A
 Frequencies --    152.7025               156.0667               165.6883
 Red. masses --      3.1195                 3.4179                 5.3895
 Frc consts  --      0.0429                 0.0490                 0.0872
 IR Inten    --      0.0000                 7.2856                15.0449

                      7                      8                      9
                      A                      A                      A
 Frequencies --    223.6950               229.6065               230.7446
 Red. masses --      3.1705                 1.0955                 1.0828
 Frc consts  --      0.0935                 0.0340                 0.0340
 IR Inten    --      0.0000                 0.0000                 0.8483

                     10                     11                     12
                      A                      A                      A
 Frequencies --    241.2165               263.3669               264.9997
 Red. masses --      2.8329                 1.0812                 1.3271
 Frc consts  --      0.0971                 0.0442                 0.0549
 IR Inten    --      0.0000                 2.1098                 0.0000

                     13                     14                     15
                      A                      A                      A
 Frequencies --    285.3114               295.1306               301.5086
 Red. masses --      3.6033                 2.9241                 2.7178
 Frc consts  --      0.1728                 0.1501                 0.1456
 IR Inten    --      0.0000                 0.4657                 3.1753

                     16                     17                     18
                      A                      A                      A
 Frequencies --    317.1040               329.5194               331.2260
 Red. masses --      2.5655                 1.0352                 1.0393
 Frc consts  --      0.1520                 0.0662                 0.0672
 IR Inten    --      0.0000                 0.0954                 0.0000

                     19                     20                     21
                      A                      A                      A
 Frequencies --    340.6034               378.1101               391.9065
 Red. masses --      4.6097                 2.3686                 2.3220
 Frc consts  --      0.3151                 0.1995                 0.2101
 IR Inten    --     28.7608                 0.0000                 0.5860

                     22                     23                     24
                      A                      A                      A
 Frequencies --    402.7250               417.0076               464.2755
 Red. masses --      2.6113                 2.6766                 3.4325
 Frc consts  --      0.2495                 0.2742                 0.4359
 IR Inten    --      0.0000                 3.1319                15.0058

                     25                     26                     27
                      A                      A                      A
 Frequencies --    477.6937               493.1613               524.6068
 Red. masses --      5.7103                 2.8755                 3.4708
 Frc consts  --      0.7677                 0.4120                 0.5628
 IR Inten    --      0.0000                 3.1902                 0.0000

                     28                     29                     30
                      A                      A                      A
 Frequencies --    527.0419               621.7747               648.2507
 Red. masses --      5.2911                 3.7511                 4.8993
 Frc consts  --      0.8659                 0.8544                 1.2130
 IR Inten    --      0.0000                12.5202                 0.0000

                     31                     32                     33
                      A                      A                      A
 Frequencies --    702.4274               740.2608               765.5152
 Red. masses --      5.9163                 6.9182                 2.8063
 Frc consts  --      1.7199                 2.2337                 0.9689
 IR Inten    --      0.0000                 6.8756                 0.0000

                     34                     35                     36
                      A                      A                      A
 Frequencies --    809.5982               814.9400               865.7841
 Red. masses --      3.0492                 3.5674                 2.9595
 Frc consts  --      1.1775                 1.3959                 1.3070
 IR Inten    --      0.0000                28.8553                80.0169

                     37                     38                     39
                      A                      A                      A
 Frequencies --    878.1092               903.7210               926.7173
 Red. masses --      1.7193                 1.5550                 1.7659
 Frc consts  --      0.7811                 0.7482                 0.8935
 IR Inten    --      0.0000                60.5124                 0.0000

                     40                     41                     42
                      A                      A                      A
 Frequencies --    927.2932               930.7694               931.7992
 Red. masses --      1.7339                 1.7535                 1.7278
 Frc consts  --      0.8785                 0.8950                 0.8839
 IR Inten    --      6.6221                 5.6873                 0.0000

                     43                     44                     45
                      A                      A                      A
 Frequencies --    957.1864               957.1988              1007.7319
 Red. masses --      1.1985                 1.1986                 3.5549
 Frc consts  --      0.6470                 0.6470                 2.1270
 IR Inten    --      0.0001                 0.5886                 0.0000

                     46                     47                     48
                      A                      A                      A
 Frequencies --   1033.2726              1042.8234              1044.4204
 Red. masses --      1.5318                 1.3863                 1.3824
 Frc consts  --      0.9636                 0.8882                 0.8885
 IR Inten    --     59.6216                 0.0000                 0.0000

                     49                     50                     51
                      A                      A                      A
 Frequencies --   1045.1859              1099.6924              1185.3929
 Red. masses --      1.3843                 2.2445                 4.9853
 Frc consts  --      0.8910                 1.5992                 4.1273
 IR Inten    --      0.2711               128.4381                 5.6337

                     52                     53                     54
                      A                      A                      A
 Frequencies --   1213.5664              1213.9217              1221.4950
 Red. masses --      2.7221                 2.7317                 2.5004
 Frc consts  --      2.3620                 2.3717                 2.1981
 IR Inten    --      0.0000                16.6965                 0.0000

                     55                     56                     57
                      A                      A                      A
 Frequencies --   1226.2180              1262.5338              1267.0225
 Red. masses --      3.0336                 2.6795                 2.3946
 Frc consts  --      2.6875                 2.5164                 2.2649
 IR Inten    --     17.0931                 0.0000                85.2958

                     58                     59                     60
                      A                      A                      A
 Frequencies --   1274.2163              1323.7645              1375.2685
 Red. masses --      1.4051                 2.3988                 1.2109
 Frc consts  --      1.3442                 2.4767                 1.3493
 IR Inten    --      0.0000                30.7333                 0.0002

                     61                     62                     63
                      A                      A                      A
 Frequencies --   1375.3065              1380.9744              1383.7725
 Red. masses --      1.2110                 1.2584                 1.2473
 Frc consts  --      1.3495                 1.4140                 1.4072
 IR Inten    --     26.0475                 0.0000                72.3881

                     64                     65                     66
                      A                      A                      A
 Frequencies --   1407.9607              1409.4052              1423.3236
 Red. masses --      1.2695                 1.2913                 4.5352
 Frc consts  --      1.4828                 1.5113                 5.4132
 IR Inten    --     78.7653                 0.0000                 0.0000

                     67                     68                     69
                      A                      A                      A
 Frequencies --   1464.9363              1467.5174              1470.7319
 Red. masses --      4.6918                 2.6582                 1.0473
 Frc consts  --      5.9323                 3.3728                 1.3348
 IR Inten    --      0.0000              1016.8273                 0.0005

                     70                     71                     72
                      A                      A                      A
 Frequencies --   1470.7455              1488.2078              1488.2895
 Red. masses --      1.0480                 1.0480                 1.0479
 Frc consts  --      1.3357                 1.3676                 1.3675
 IR Inten    --      1.6663                 0.0000                 2.8296

                     73                     74                     75
                      A                      A                      A
 Frequencies --   1488.6333              1488.8391              1492.0859
 Red. masses --      1.0516                 1.0540                 1.2196
 Frc consts  --      1.3730                 1.3765                 1.5998
 IR Inten    --      0.0000                 4.5919                 0.0000

                     76                     77                     78
                      A                      A                      A
 Frequencies --   1493.9156              1500.7750              1500.7918
 Red. masses --      1.3659                 1.0508                 1.0509
 Frc consts  --      1.7960                 1.3944                 1.3947
 IR Inten    --    118.9277                 0.0025                17.7318

                     79                     80                     81
                      A                      A                      A
 Frequencies --   1515.8108              1517.3580              1525.3301
 Red. masses --      1.0611                 1.1117                 3.9873
 Frc consts  --      1.4364                 1.5080                 5.4659
 IR Inten    --      0.0000                48.2918               193.4663

                     82                     83                     84
                      A                      A                      A
 Frequencies --   1632.0671              3009.0264              3009.0455
 Red. masses --      6.8438                 1.0383                 1.0383
 Frc consts  --     10.7405                 5.5387                 5.5389
 IR Inten    --      0.0000                 0.0141               161.3753

                     85                     86                     87
                      A                      A                      A
 Frequencies --   3011.6582              3011.8770              3020.1842
 Red. masses --      1.0374                 1.0372                 1.0365
 Frc consts  --      5.5436                 5.5433                 5.5702
 IR Inten    --    111.7452                 0.0001               165.5115

                     88                     89                     90
                      A                      A                      A
 Frequencies --   3020.5038              3064.4874              3064.5244
 Red. masses --      1.0366                 1.1016                 1.1016
 Frc consts  --      5.5722                 6.0952                 6.0953
 IR Inten    --      0.0000                 0.0093                69.3469

                     91                     92                     93
                      A                      A                      A
 Frequencies --   3066.1981              3066.2533              3079.3369
 Red. masses --      1.1009                 1.1009                 1.1012
 Frc consts  --      6.0979                 6.0981                 6.1521
 IR Inten    --    137.6606                 0.0091               226.8793

                     94                     95                     96
                      A                      A                      A
 Frequencies --   3079.5003              3083.2366              3083.2630
 Red. masses --      1.1011                 1.1020                 1.1020
 Frc consts  --      6.1521                 6.1722                 6.1723
 IR Inten    --      0.0005                 0.0009               134.2082

                     97                     98                     99
                      A                      A                      A
 Frequencies --   3120.2081              3120.2141              3123.0108
 Red. masses --      1.0981                 1.0981                 1.0972
 Frc consts  --      6.2987                 6.2989                 6.3050
 IR Inten    --      0.2187                 3.7606                 0.1827

                    100                    101                    102
                      A                      A                      A
 Frequencies --   3123.0188              3174.0830              3176.8305
 Red. masses --      1.0972                 1.0874                 1.0882
 Frc consts  --      6.3049                 6.4545                 6.4706
 IR Inten    --     63.3268                51.9234                 0.0000

 - Thermochemistry -
 -------------------
 Temperature   298.150 Kelvin.  Pressure   1.00000 Atm.
 Atom     1 has atomic number  6 and mass  12.00000

 Molecular mass:   220.14633 amu.
 Principal axes and moments of inertia in atomic units:
                           1         2         3
     Eigenvalues --  1703.492025804.852226707.14654
           X            0.88192   0.36368  -0.29993
           Y            0.46821  -0.60177   0.64704
           Z           -0.05483   0.71106   0.70099
 This molecule is an asymmetric top.
 Rotational symmetry number  1.
 Warning -- assumption of classical behavior for rotation
           may cause significant error
 Rotational temperatures (Kelvin)      0.05084     0.01492     0.01291
 Rotational constants (GHZ):           1.05944     0.31090     0.26908
 Zero-point vibrational energy     804514.7 (Joules/Mol)
                                  192.28363 (Kcal/Mol)
 Warning -- explicit consideration of  28 degrees of freedom as
           vibrations may cause significant error
 Vibrational temperatures:     59.69    85.38   125.75   219.70   224.55
          (Kelvin)            238.39   321.85   330.35   331.99   347.06
                              378.93   381.28   410.50   424.63   433.80
                              456.24   474.10   476.56   490.05   544.02
                              563.87   579.43   599.98   667.99   687.29
                              709.55   754.79   758.30   894.60   932.69
                             1010.64  1065.07  1101.41  1164.83  1172.52
                             1245.67  1263.40  1300.25  1333.34  1334.17
                             1339.17  1340.65  1377.18  1377.20  1449.90
                             1486.65  1500.39  1502.69  1503.79  1582.21
                             1705.52  1746.05  1746.56  1757.46  1764.25
                             1816.50  1822.96  1833.31  1904.60  1978.70
                             1978.76  1986.91  1990.94  2025.74  2027.82
                             2047.85  2107.72  2111.43  2116.06  2116.07
                             2141.20  2141.32  2141.81  2142.11  2146.78
                             2149.41  2159.28  2159.30  2180.91  2183.14
                             2194.61  2348.18  4329.32  4329.35  4333.10
                             4333.42  4345.37  4345.83  4409.11  4409.17
                             4411.58  4411.65  4430.48  4430.71  4436.09
                             4436.13  4489.28  4489.29  4493.32  4493.33
                             4566.80  4570.75

 Zero-point correction=                           0.306423 (Hartree/Particle)
 Thermal correction to Energy=                    0.323395
 Thermal correction to Enthalpy=                  0.324339
 Thermal correction to Gibbs Free Energy=         0.263163
 Sum of electronic and zero-point Energies=           -696.002543
 Sum of electronic and thermal Energies=              -695.985572
 Sum of electronic and thermal Enthalpies=            -695.984627
 Sum of electronic and thermal Free Energies=         -696.045803

                     E (Thermal)             CV                S
                      KCal/Mol        Cal/Mol-Kelvin    Cal/Mol-Kelvin
 Total                  202.933             67.213            128.755
 Electronic               0.000              0.000              1.377
 Translational            0.889              2.981             42.070
 Rotational               0.889              2.981             32.561
 Vibrational            201.156             61.252             52.746
 Vibration     1          0.594              1.981              5.187
 Vibration     2          0.597              1.974              4.479
 Vibration     3          0.601              1.958              3.717
 Vibration     4          0.619              1.900              2.638
 Vibration     5          0.620              1.896              2.597
 Vibration     6          0.624              1.885              2.484
 Vibration     7          0.649              1.805              1.929
 Vibration     8          0.652              1.796              1.882
 Vibration     9          0.652              1.794              1.873
 Vibration    10          0.658              1.777              1.794
 Vibration    11          0.670              1.740              1.639
 Vibration    12          0.671              1.737              1.629
 Vibration    13          0.683              1.701              1.502
 Vibration    14          0.689              1.683              1.444
 Vibration    15          0.693              1.671              1.409
 Vibration    16          0.704              1.641              1.325
 Vibration    17          0.712              1.617              1.262
 Vibration    18          0.714              1.613              1.254
 Vibration    19          0.720              1.594              1.209
 Vibration    20          0.748              1.517              1.047
 Vibration    21          0.759              1.487              0.993
 Vibration    22          0.768              1.464              0.953
 Vibration    23          0.780              1.433              0.902
 Vibration    24          0.822              1.329              0.754
 Vibration    25          0.834              1.300              0.716
 Vibration    26          0.849              1.265              0.675
 Vibration    27          0.880              1.196              0.599
 Vibration    28          0.882              1.190              0.594

 Optimization completed.
    -- Stationary point found.
 Normal termination of Gaussian 16 at Sat Feb 10 13:32:27 2024.
