 Gaussian 16, Revision A.03,
 Gaussian 16:  ES64L-G16RevA.03 25-Dec-2016

 ----------------------------------------------------------------
 #P UB3LYP/6-311++G(d,p) SCRF=(PCM,Solvent=n,n-DiMethylFormamide)
 ----------------------------------------------------------------

 ------------------
 Radical PCM in DMF
 ------------------
 Symbolic Z-matrix:
 Charge = -1 Multiplicity = 2

                         Standard orientation:
 ---------------------------------------------------------------------
 Center     Atomic      Atomic             Coordinates (Angstroms)
 Number     Number       Type             X           Y           Z
 ---------------------------------------------------------------------
      1          6           0        1.384613   -1.690319   -0.000071
      2          6           0        2.712413   -1.303963    0.000012
      3          6           0        3.048839    0.066243    0.000082
      4          6           0        0.337492   -0.744807   -0.000135
      5          6           0        0.686581    0.643272   -0.000071
      6          6           0        2.046617    1.020356    0.000050
      7          6           0       -1.056622   -1.213003   -0.000132
      8          6           0       -2.130778   -0.166055   -0.000064
      9          6           0       -1.689887    1.215446   -0.000076
     10          6           0       -0.377806    1.599173   -0.000081
     11          8           0       -1.331959   -2.432783    0.000140
     12          8           0       -3.345708   -0.459472    0.000120
     13          1           0        1.101161   -2.736831   -0.000053
     14          1           0        3.497397   -2.054686    0.000057
     15          1           0        4.090387    0.373123    0.000166
     16          1           0        2.293324    2.075819    0.000117
     17          1           0       -2.481075    1.964498   -0.000051
     18          8           0       -0.004530    2.937238    0.000031
     19          1           0       -0.812381    3.460174    0.000353
 ---------------------------------------------------------------------

 SCF Done:  E(UB3LYP) =  -610.658589929     A.U. after   19 cycles

 The electronic state is 2-A.
 Alpha  occ. eigenvalues --  -19.15783 -19.07746 -19.07261 -10.23700 -10.21853
 Alpha  occ. eigenvalues --  -10.21635 -10.18209 -10.17504 -10.17406 -10.17336
 Alpha  occ. eigenvalues --  -10.17266 -10.16974 -10.15737  -1.06379  -1.01316
 Alpha  occ. eigenvalues --   -0.98640  -0.86301  -0.80197  -0.75582  -0.73042
 Alpha  occ. eigenvalues --   -0.68262  -0.62469  -0.59663  -0.58721  -0.52614
 Alpha  occ. eigenvalues --   -0.51503  -0.49937  -0.45093  -0.44677  -0.42985
 Alpha  occ. eigenvalues --   -0.42752  -0.42263  -0.41122  -0.39643  -0.39118
 Alpha  occ. eigenvalues --   -0.38680  -0.36668  -0.35202  -0.34088  -0.34067
 Alpha  occ. eigenvalues --   -0.28329  -0.26005  -0.25939  -0.22454  -0.22418
 Alpha  occ. eigenvalues --   -0.15131
 Alpha virt. eigenvalues --   -0.03620  -0.00638  -0.00393   0.00612   0.01534
 Alpha virt. eigenvalues --    0.02842   0.02959   0.04226   0.04948   0.05022
 Alpha virt. eigenvalues --    0.05778   0.05988   0.07005   0.07632   0.08589

  Beta  occ. eigenvalues --  -19.15686 -19.07083 -19.06751 -10.23461 -10.21706
  Beta  occ. eigenvalues --  -10.21431 -10.18121 -10.17513 -10.17355 -10.17274
  Beta  occ. eigenvalues --  -10.17226 -10.16938 -10.15815  -1.06149  -1.00282
  Beta  occ. eigenvalues --   -0.97566  -0.86061  -0.79847  -0.75312  -0.72894
  Beta  occ. eigenvalues --   -0.67440  -0.62238  -0.59279  -0.58506  -0.52442
  Beta  occ. eigenvalues --   -0.51306  -0.49645  -0.44883  -0.44499  -0.42699
  Beta  occ. eigenvalues --   -0.41929  -0.41779  -0.40683  -0.38862  -0.38464
  Beta  occ. eigenvalues --   -0.37826  -0.35800  -0.35045  -0.33964  -0.31624
  Beta  occ. eigenvalues --   -0.27246  -0.25351  -0.25014  -0.21878  -0.21634
  Beta virt. eigenvalues --   -0.08503  -0.02862  -0.00375   0.00618   0.00854
  Beta virt. eigenvalues --    0.01561   0.02864   0.02974   0.04928   0.05065
  Beta virt. eigenvalues --    0.05678   0.05791   0.06006   0.07199   0.07875

 Mulliken charges and spin densities:
               1          2
     1  C    0.224145   0.064319
     2  C   -0.373052   0.015602
     3  C   -0.427633   0.063220
     4  C    0.033107   0.022284
     5  C   -0.243683   0.044853
     6  C    0.236895   0.014291
     7  C   -0.318330   0.131840
     8  C   -0.156576   0.154025
     9  C    0.241106  -0.070066
    10  C   -0.078876   0.111895
    11  O   -0.487755   0.248669
    12  O   -0.524242   0.182722
    13  H    0.157165  -0.004280
    14  H    0.183051  -0.001847
    15  H    0.181662  -0.004579
    16  H    0.174702   0.001017
    17  H    0.159110   0.001593
    18  O   -0.273596   0.025280
    19  H    0.292798  -0.000838
 Sum of Mulliken charges =  -1.00000   1.00000

 Dipole moment (field-independent basis, Debye):
    X=              9.6157    Y=              7.4609    Z=              0.0001  Tot=             12.1707
 Quadrupole moment (field-independent basis, Debye-Ang):
   XX=           -107.9014   YY=            -87.5674   ZZ=            -80.6550
   XY=            -19.5464   XZ=              0.0018   YZ=              0.0037

 Normal termination of Gaussian 16 at Sat Jan 13 19:17:00 2024.
