 Q-Chem 5.4, Q-Chem, Inc., Pleasanton, CA (2021)
 Q-Chem 5.4.0 for Intel X86 EM64T Linux

User input:
--------------------------------------------------------------
$molecule
-2 1
C                  0.2766900000      1.7404340000     -1.6724990000
C                 -1.0846940000      2.0313650000     -2.0699640000
C                 -1.9822750000      1.0631570000     -2.4480130000
C                 -1.6752920000     -0.3593010000     -2.5023770000
C                 -0.3464300000     -0.6526320000     -2.1374850000
C                  0.6289480000      0.3288860000     -1.7465610000
O                  1.0515070000      2.6774790000     -1.2739970000
O                 -2.5768330000     -1.2168280000     -2.8645070000
C                  3.1125020000      0.8208670000     -1.1358510000
C                  4.0898890000      1.0058510000     -2.1191110000
C                  3.3423260000      1.3434490000      0.1528380000
C                  4.5334720000      2.0276490000      0.4069080000
C                  5.2645510000      1.7128440000     -1.8623040000
C                  5.4958130000      2.2244280000     -0.5868960000
H                 -1.3743680000      3.0815940000     -2.0388880000
H                 -2.9986340000      1.3432490000     -2.7312540000
H                 -0.0230450000     -1.6882370000     -2.1643280000
H                  3.9149800000      0.5856790000     -3.1043000000
H                  4.7031810000      2.4315030000      1.4032590000
H                  5.9981260000      1.8565870000     -2.6527280000
H                  6.4095030000      2.7709630000     -0.3659650000
C                  1.9616270000     -0.1291810000     -1.4526820000
O                  2.3253480000     -1.3320630000     -1.4726900000
C                  2.2874210000      1.2209790000      1.2203660000
H                  1.9228800000      0.1938260000      1.3098270000
H                  1.4397810000      1.8518300000      0.9313410000
H                  2.6701570000      1.5463820000      2.1946690000
$end
$rem
MAX_SCF_CYCLES=200
BASIS  =  6-311++G(d,p)
GUI  =  2
JOB_TYPE  =  SP
METHOD  =  B3LYP
SOLVENT_METHOD = PCM
$end
$pcm
theory = CPCM
$end
$solvent
dielectric 37.219
opticaldielectric 1.43
$end

--------------------------------------------------------------

             Standard Nuclear Orientation (Angstroms)
    I     Atom           X                Y                Z
 ----------------------------------------------------------------
    1      C       0.2766900000     1.7404340000    -1.6724990000
    2      C      -1.0846940000     2.0313650000    -2.0699640000
    3      C      -1.9822750000     1.0631570000    -2.4480130000
    4      C      -1.6752920000    -0.3593010000    -2.5023770000
    5      C      -0.3464300000    -0.6526320000    -2.1374850000
    6      C       0.6289480000     0.3288860000    -1.7465610000
    7      O       1.0515070000     2.6774790000    -1.2739970000
    8      O      -2.5768330000    -1.2168280000    -2.8645070000
    9      C       3.1125020000     0.8208670000    -1.1358510000
   10      C       4.0898890000     1.0058510000    -2.1191110000
   11      C       3.3423260000     1.3434490000     0.1528380000
   12      C       4.5334720000     2.0276490000     0.4069080000
   13      C       5.2645510000     1.7128440000    -1.8623040000
   14      C       5.4958130000     2.2244280000    -0.5868960000
   15      H      -1.3743680000     3.0815940000    -2.0388880000
   16      H      -2.9986340000     1.3432490000    -2.7312540000
   17      H      -0.0230450000    -1.6882370000    -2.1643280000
   18      H       3.9149800000     0.5856790000    -3.1043000000
   19      H       4.7031810000     2.4315030000     1.4032590000
   20      H       5.9981260000     1.8565870000    -2.6527280000
   21      H       6.4095030000     2.7709630000    -0.3659650000
   22      C       1.9616270000    -0.1291810000    -1.4526820000
   23      O       2.3253480000    -1.3320630000    -1.4726900000
   24      C       2.2874210000     1.2209790000     1.2203660000
   25      H       1.9228800000     0.1938260000     1.3098270000
   26      H       1.4397810000     1.8518300000     0.9313410000
   27      H       2.6701570000     1.5463820000     2.1946690000
 ----------------------------------------------------------------

    9    -765.6469394433      6.90e-06  Convergence criterion met
 Total energy in the final basis set =     -765.6469394433

                    Orbital Energies (a.u.)
 --------------------------------------------------------------

 Alpha MOs
 -- Occupied --
-19.0759 -19.0380 -19.0227 -10.2266 -10.1974 -10.1788 -10.1717 -10.1687
-10.1639 -10.1633 -10.1621 -10.1614 -10.1480 -10.1460 -10.1387 -10.1380
-10.1219  -0.9986  -0.9570  -0.9350  -0.8492  -0.7896  -0.7632  -0.7449
 -0.7205  -0.6754  -0.6613  -0.6206  -0.5868  -0.5754  -0.5496  -0.5199
 -0.4796  -0.4591  -0.4507  -0.4390  -0.4346  -0.4223  -0.4063  -0.4037
 -0.3971  -0.3904  -0.3788  -0.3734  -0.3689  -0.3511  -0.3465  -0.3444
 -0.3362  -0.3263  -0.3250  -0.3226  -0.2556  -0.2404  -0.2379  -0.2268
 -0.2236  -0.2047  -0.2019  -0.1352

          Ground-State Mulliken Net Atomic Charges

     Atom                 Charge (a.u.)
  ----------------------------------------
      1 C                    -1.316810
      2 C                    -0.269885
      3 C                    -0.077927
      4 C                    -0.453297
      5 C                     0.051284
      6 C                     1.304092
      7 O                    -0.517556
      8 O                    -0.748394
      9 C                     0.529227
     10 C                    -0.121572
     11 C                     0.699195
     12 C                    -0.276527
     13 C                    -0.559779
     14 C                    -0.232642
     15 H                     0.168353
     16 H                     0.172906
     17 H                     0.152245
     18 H                     0.213837
     19 H                     0.175949
     20 H                     0.189928
     21 H                     0.193211
     22 C                    -0.720941
     23 O                    -0.433231
     24 C                    -0.636934
     25 H                     0.163252
     26 H                     0.189260
     27 H                     0.162756
  ----------------------------------------
  Sum of atomic charges =    -2.000000

                    Cartesian Multipole Moments
 -----------------------------------------------------------------
    Charge (ESU x 10^10)
                -9.6064
    Dipole Moment (Debye)
         X       0.5024      Y       0.1575      Z      19.4209
       Tot      19.4280
    Quadrupole Moments (Debye-Ang)
        XX    -153.4302     XY     -13.2055     YY    -143.0120
        XZ     -16.5113     YZ      -6.9010     ZZ    -147.3985

 Total job time:  83.33s(wall), 316.08s(cpu)
        *  Thank you very much for using Q-Chem.  Have a nice day.  *
