 Gaussian 16, Revision A.03,
 Gaussian 16:  ES64L-G16RevA.03 25-Dec-2016

 ----------------------------------------------------------------------
 #P UB3LYP/6-311++G(d,p) nosym opt freq SCRF=(PCM,Solvent=n,n-DiMethylF
 ormamide)
 ----------------------------------------------------------------------

 --------
 Oxidized
 --------
 Symbolic Z-matrix:
 Charge =  0 Multiplicity = 1

 SCF Done:  E(UB3LYP) =  -612.683925420     A.U. after   16 cycles
 SCF Done:  E(UB3LYP) =  -612.684021163     A.U. after   14 cycles
 SCF Done:  E(UB3LYP) =  -612.683938179     A.U. after   14 cycles
 SCF Done:  E(UB3LYP) =  -612.684047797     A.U. after   14 cycles
 SCF Done:  E(UB3LYP) =  -612.684062244     A.U. after   12 cycles
 SCF Done:  E(UB3LYP) =  -612.684066061     A.U. after   12 cycles
 SCF Done:  E(UB3LYP) =  -612.684066391     A.U. after   12 cycles
 SCF Done:  E(UB3LYP) =  -612.684066440     A.U. after   11 cycles
 Optimization completed.
    -- Stationary point found.
 Normal termination of Gaussian 16 at Sat Feb 10 10:37:42 2024.

 ----------------------------------------------------------------------
 #P Geom=AllCheck Guess=TCheck SCRF=Check GenChk UB3LYP/6-311++G(d,p) F
 req
 ----------------------------------------------------------------------

 Structure from the checkpoint file:  "062.chk"
 --------
 Oxidized
 --------
 Charge =  0 Multiplicity = 1

                          Input orientation:
 ---------------------------------------------------------------------
 Center     Atomic      Atomic             Coordinates (Angstroms)
 Number     Number       Type             X           Y           Z
 ---------------------------------------------------------------------
      1          6           0       -1.421832   -2.627418    0.928652
      2          6           0       -2.280769   -2.150159   -0.212940
      3          6           0       -1.989175   -0.960485   -0.782863
      4          6           0       -0.885536   -0.098733   -0.325021
      5          6           0       -0.085036   -0.556931    0.833219
      6          6           0       -0.347837   -1.730242    1.419496
      7          8           0       -1.570128   -3.731847    1.429225
      8          8           0       -0.645851    0.972091   -0.874638
      9          6           0       -3.387411   -3.002637   -0.698471
     10          6           0       -4.271561   -3.630801    0.193926
     11          6           0       -3.592108   -3.164589   -2.078169
     12          6           0       -4.653992   -3.929060   -2.553617
     13          6           0       -5.339305   -4.384571   -0.285382
     14          6           0       -5.532847   -4.539030   -1.658507
     15          1           0       -2.578348   -0.568152   -1.604045
     16          1           0        0.710620    0.098228    1.168944
     17          1           0        0.221897   -2.098905    2.264784
     18          1           0       -4.134904   -3.515206    1.260857
     19          1           0       -2.903555   -2.707421   -2.779330
     20          1           0       -4.791105   -4.052352   -3.621733
     21          1           0       -6.021435   -4.852228    0.415325
     22          1           0       -6.360701   -5.133291   -2.027994
 ---------------------------------------------------------------------

 SCF Done:  E(UB3LYP) =  -612.684066440     A.U. after    1 cycles

 Alpha  occ. eigenvalues --  -19.14865 -19.14349 -10.29494 -10.28859 -10.22875
 Alpha  occ. eigenvalues --  -10.21565 -10.21476 -10.21023 -10.20553 -10.19105
 Alpha  occ. eigenvalues --  -10.19012 -10.18830 -10.18689 -10.18644  -1.07870
 Alpha  occ. eigenvalues --   -1.07033  -0.88577  -0.86225  -0.81221  -0.76297
 Alpha  occ. eigenvalues --   -0.75695  -0.71219  -0.65573  -0.63209  -0.61325
 Alpha  occ. eigenvalues --   -0.59265  -0.53573  -0.52786  -0.51251  -0.49122
 Alpha  occ. eigenvalues --   -0.47459  -0.46955  -0.45720  -0.45074  -0.44465
 Alpha  occ. eigenvalues --   -0.43495  -0.43242  -0.42299  -0.41133  -0.38599
 Alpha  occ. eigenvalues --   -0.36859  -0.36043  -0.31998  -0.31230  -0.29604
 Alpha  occ. eigenvalues --   -0.28506  -0.26990  -0.26058
 Alpha virt. eigenvalues --   -0.14098  -0.05346  -0.02678  -0.01888  -0.00554
 Alpha virt. eigenvalues --    0.00088   0.00394   0.01040   0.01968   0.02230
 Alpha virt. eigenvalues --    0.03409   0.03886   0.04116   0.04880   0.05316

  Beta  occ. eigenvalues --  -19.14865 -19.14349 -10.29494 -10.28859 -10.22875
  Beta  occ. eigenvalues --  -10.21565 -10.21476 -10.21023 -10.20553 -10.19105
  Beta  occ. eigenvalues --  -10.19012 -10.18830 -10.18689 -10.18644  -1.07870
  Beta  occ. eigenvalues --   -1.07033  -0.88577  -0.86225  -0.81221  -0.76297
  Beta  occ. eigenvalues --   -0.75695  -0.71219  -0.65573  -0.63209  -0.61325
  Beta  occ. eigenvalues --   -0.59265  -0.53573  -0.52786  -0.51251  -0.49122
  Beta  occ. eigenvalues --   -0.47459  -0.46955  -0.45720  -0.45074  -0.44465
  Beta  occ. eigenvalues --   -0.43495  -0.43242  -0.42299  -0.41133  -0.38599
  Beta  occ. eigenvalues --   -0.36859  -0.36043  -0.31998  -0.31230  -0.29604
  Beta  occ. eigenvalues --   -0.28506  -0.26990  -0.26058
  Beta virt. eigenvalues --   -0.14098  -0.05346  -0.02678  -0.01888  -0.00554
  Beta virt. eigenvalues --    0.00088   0.00394   0.01040   0.01968   0.02230
  Beta virt. eigenvalues --    0.03409   0.03886   0.04116   0.04880   0.05316

 Mulliken charges and spin densities:
               1          2
     1  C   -1.017794  -0.000000
     2  C    1.473789   0.000000
     3  C   -0.753983  -0.000000
     4  C   -0.270667  -0.000000
     5  C   -0.010973   0.000000
     6  C    0.054686  -0.000000
     7  O   -0.256673   0.000000
     8  O   -0.308610   0.000000
     9  C    1.358103   0.000000
    10  C   -0.520111  -0.000000
    11  C   -0.538048   0.000000
    12  C   -0.284495  -0.000000
    13  C   -0.210578  -0.000000
    14  C   -0.423412  -0.000000
    15  H    0.229990  -0.000000
    16  H    0.246205   0.000000
    17  H    0.245237   0.000000
    18  H    0.194301   0.000000
    19  H    0.199338   0.000000
    20  H    0.201287  -0.000000
    21  H    0.205269   0.000000
    22  H    0.187138   0.000000
 Sum of Mulliken charges =  -0.00000  -0.00000

 Dipole moment (field-independent basis, Debye):
    X=             -1.1924    Y=             -1.0247    Z=              0.0769  Tot=              1.5741
 Quadrupole moment (field-independent basis, Debye-Ang):
   XX=            -66.5070   YY=            -92.4737   ZZ=            -74.1604
   XY=              8.1067   XZ=              6.7458   YZ=             10.0572

  Exact polarizability: 197.402  84.655 243.154  19.337 -28.106 188.751
 Approx polarizability: 213.153  95.219 311.974   5.733 -58.233 230.662

                      1                      2                      3
                      A                      A                      A
 Frequencies --     53.7992                66.7189                89.3017
 Red. masses --      4.4723                 5.3513                 6.2933
 Frc consts  --      0.0076                 0.0140                 0.0296
 IR Inten    --      2.4716                 9.4122                 2.8054

                      4                      5                      6
                      A                      A                      A
 Frequencies --    116.3280               215.8562               263.3662
 Red. masses --      6.3137                 5.3209                 6.5967
 Frc consts  --      0.0503                 0.1461                 0.2696
 IR Inten    --      7.2943                 3.1456                 1.0818

                      7                      8                      9
                      A                      A                      A
 Frequencies --    271.0030               309.2835               413.9845
 Red. masses --      5.0946                 4.5877                 2.9067
 Frc consts  --      0.2204                 0.2586                 0.2935
 IR Inten    --      1.7584                 0.3392                 6.4055

                     10                     11                     12
                      A                      A                      A
 Frequencies --    425.1869               436.5625               466.8203
 Red. masses --      7.7436                 4.2170                 9.5083
 Frc consts  --      0.8248                 0.4735                 1.2208
 IR Inten    --     42.1897                11.9767                 4.2921

                     13                     14                     15
                      A                      A                      A
 Frequencies --    502.3810               541.8640               620.9689
 Red. masses --      3.4657                 4.9922                 3.8866
 Frc consts  --      0.5154                 0.8636                 0.8830
 IR Inten    --      2.5655                14.1762                 3.0611

                     16                     17                     18
                      A                      A                      A
 Frequencies --    629.4247               635.0740               692.5227
 Red. masses --      3.9803                 4.7184                 6.7654
 Frc consts  --      0.9291                 1.1212                 1.9117
 IR Inten    --      8.7452                 2.6830                 5.8792

                     19                     20                     21
                      A                      A                      A
 Frequencies --    707.2591               763.3152               792.5571
 Red. masses --      1.6788                 2.2819                 2.7618
 Frc consts  --      0.4948                 0.7834                 1.0221
 IR Inten    --     73.2512                37.5855                 1.6467

                     22                     23                     24
                      A                      A                      A
 Frequencies --    807.4588               849.6657               854.3766
 Red. masses --      4.3631                 2.9508                 2.1726
 Frc consts  --      1.6760                 1.2551                 0.9344
 IR Inten    --      4.8736                 9.8571                32.6967

                     25                     26                     27
                      A                      A                      A
 Frequencies --    857.1008               929.4143               945.6177
 Red. masses --      1.6031                 1.5250                 1.5168
 Frc consts  --      0.6939                 0.7761                 0.7991
 IR Inten    --      7.8619                70.7720                 3.6027

                     28                     29                     30
                      A                      A                      A
 Frequencies --    986.9913               994.3676              1013.1142
 Red. masses --      3.9491                 1.3807                 4.1361
 Frc consts  --      2.2666                 0.8043                 2.5012
 IR Inten    --     61.5356                 4.1675                 5.2930

                     31                     32                     33
                      A                      A                      A
 Frequencies --   1014.3982              1019.5912              1049.9969
 Red. masses --      1.4573                 1.2717                 2.1160
 Frc consts  --      0.8835                 0.7789                 1.3745
 IR Inten    --      0.6952                 0.7093                 2.8011

                     34                     35                     36
                      A                      A                      A
 Frequencies --   1103.5867              1111.4498              1179.5455
 Red. masses --      1.6184                 1.5875                 1.1027
 Frc consts  --      1.1613                 1.1554                 0.9040
 IR Inten    --     25.6710               122.2093                 0.2213

                     37                     38                     39
                      A                      A                      A
 Frequencies --   1203.1557              1207.1753              1267.4941
 Red. masses --      1.1899                 1.7715                 2.0818
 Frc consts  --      1.0149                 1.5211                 1.9705
 IR Inten    --     13.3130                 3.4453                84.7290

                     40                     41                     42
                      A                      A                      A
 Frequencies --   1289.0374              1319.9362              1347.5606
 Red. masses --      3.1714                 4.4705                 2.3690
 Frc consts  --      3.1048                 4.5889                 2.5346
 IR Inten    --    163.6651                75.4737                43.9950

                     43                     44                     45
                      A                      A                      A
 Frequencies --   1362.1829              1391.5258              1471.5457
 Red. masses --      1.6043                 1.9054                 2.1900
 Frc consts  --      1.7539                 2.1738                 2.7941
 IR Inten    --     11.1889                 9.6023                14.2596

                     46                     47                     48
                      A                      A                      A
 Frequencies --   1520.9534              1606.8178              1630.1422
 Red. masses --      2.1822                 5.2096                 7.0854
 Frc consts  --      2.9743                 7.9248                11.0934
 IR Inten    --      8.1886                23.2867               260.1860

                     49                     50                     51
                      A                      A                      A
 Frequencies --   1634.8882              1665.3372              1688.9779
 Red. masses --      6.0975                10.6815                 9.5459
 Frc consts  --      9.6023                17.4536                16.0441
 IR Inten    --     10.3889               122.9321              1046.0615

                     52                     53                     54
                      A                      A                      A
 Frequencies --   1708.7390              3168.4381              3175.3815
 Red. masses --      9.2051                 1.0860                 1.0887
 Frc consts  --     15.8354                 6.4236                 6.4678
 IR Inten    --     66.0187                 0.6318                 4.9594

                     55                     56                     57
                      A                      A                      A
 Frequencies --   3182.8466              3183.0660              3185.6301
 Red. masses --      1.0882                 1.0921                 1.0920
 Frc consts  --      6.4951                 6.5194                 6.5292
 IR Inten    --      1.7314                21.1117                 7.9015

                     58                     59                     60
                      A                      A                      A
 Frequencies --   3192.6851              3199.3371              3205.4880
 Red. masses --      1.0968                 1.0998                 1.0941
 Frc consts  --      6.5868                 6.6325                 6.6237
 IR Inten    --     27.8651                 3.7722                 8.7350

 - Thermochemistry -
 -------------------
 Temperature   298.150 Kelvin.  Pressure   1.00000 Atm.
 Atom     1 has atomic number  6 and mass  12.00000

 Molecular mass:   184.05243 amu.
 Principal axes and moments of inertia in atomic units:
                           1         2         3
     Eigenvalues --  1200.251594065.633395009.51042
           X            0.73511   0.17923   0.65383
           Y            0.62478  -0.55349  -0.55072
           Z            0.26318   0.81334  -0.51886
 This molecule is an asymmetric top.
 Rotational symmetry number  1.
 Warning -- assumption of classical behavior for rotation
           may cause significant error
 Rotational temperatures (Kelvin)      0.07216     0.02130     0.01729
 Rotational constants (GHZ):           1.50364     0.44390     0.36026
 Zero-point vibrational energy     433877.2 (Joules/Mol)
                                  103.69913 (Kcal/Mol)
 Warning -- explicit consideration of  14 degrees of freedom as
           vibrations may cause significant error
 Vibrational temperatures:     77.41    95.99   128.49   167.37   310.57
          (Kelvin)            378.93   389.91   444.99   595.63   611.75
                              628.12   671.65   722.81   779.62   893.44
                              905.60   913.73   996.39  1017.59  1098.24
                             1140.31  1161.75  1222.48  1229.26  1233.18
                             1337.22  1360.53  1420.06  1430.67  1457.65
                             1459.49  1466.96  1510.71  1587.82  1599.13
                             1697.10  1731.07  1736.86  1823.64  1854.64
                             1899.09  1938.84  1959.88  2002.10  2117.23
                             2188.31  2311.85  2345.41  2352.24  2396.05
                             2430.06  2458.49  4558.68  4568.67  4579.41
                             4579.72  4583.41  4593.56  4603.13  4611.98

 Zero-point correction=                           0.165255 (Hartree/Particle)
 Thermal correction to Energy=                    0.176158
 Thermal correction to Enthalpy=                  0.177103
 Thermal correction to Gibbs Free Energy=         0.127572
 Sum of electronic and zero-point Energies=           -612.518811
 Sum of electronic and thermal Energies=              -612.507908
 Sum of electronic and thermal Enthalpies=            -612.506964
 Sum of electronic and thermal Free Energies=         -612.556494

                     E (Thermal)             CV                S
                      KCal/Mol        Cal/Mol-Kelvin    Cal/Mol-Kelvin
 Total                  110.541             42.478            104.245
 Electronic               0.000              0.000              0.000
 Translational            0.889              2.981             41.536
 Rotational               0.889              2.981             31.570
 Vibrational            108.764             36.517             31.139
 Vibration     1          0.596              1.976              4.673
 Vibration     2          0.598              1.970              4.248
 Vibration     3          0.602              1.957              3.675
 Vibration     4          0.608              1.936              3.160
 Vibration     5          0.645              1.817              1.994
 Vibration     6          0.670              1.740              1.639
 Vibration     7          0.675              1.727              1.590
 Vibration     8          0.699              1.656              1.366
 Vibration     9          0.778              1.440              0.913
 Vibration    10          0.787              1.415              0.875
 Vibration    11          0.797              1.391              0.837
 Vibration    12          0.824              1.324              0.747
 Vibration    13          0.858              1.245              0.652
 Vibration    14          0.897              1.158              0.561

 Optimization completed.
    -- Stationary point found.
 Normal termination of Gaussian 16 at Sat Feb 10 10:52:27 2024.
