 Gaussian 16, Revision A.03,
 Gaussian 16:  ES64L-G16RevA.03 25-Dec-2016

 --------------------------------------
 #P UB3LYP/6-311++G(d,p) nosym opt freq
 --------------------------------------

 -------
 Reduced
 -------
 Symbolic Z-matrix:
 Charge = -2 Multiplicity = 1

 SCF Done:  E(UB3LYP) =  -1144.82913659     A.U. after   26 cycles
 SCF Done:  E(UB3LYP) =  -1144.82913652     A.U. after   15 cycles
 SCF Done:  E(UB3LYP) =  -1144.82913657     A.U. after   15 cycles
 SCF Done:  E(UB3LYP) =  -1144.82913661     A.U. after   11 cycles
 Optimization completed.
    -- Stationary point found.
 Normal termination of Gaussian 16 at Wed Dec 27 21:27:41 2023.

 ----------------------------------------------------------------------
 #P Geom=AllCheck Guess=TCheck SCRF=Check GenChk UB3LYP/6-311++G(d,p) F
 req
 ----------------------------------------------------------------------

 Structure from the checkpoint file:  "146-an.chk"
 -------
 Reduced
 -------
 Charge = -2 Multiplicity = 1

                          Input orientation:
 ---------------------------------------------------------------------
 Center     Atomic      Atomic             Coordinates (Angstroms)
 Number     Number       Type             X           Y           Z
 ---------------------------------------------------------------------
      1          6           0        2.136172    3.014100    1.235881
      2          6           0        2.060012    1.544268    1.579437
      3          8           0        1.702327    1.108766    2.649446
      4          8           0        2.768368    0.813735    0.658893
      5          6           0        2.459859   -0.547129    0.513541
      6          6           0        3.505400   -1.417632    0.700143
      7          6           0        3.316104   -2.807170    0.475867
      8          6           0        2.080560   -3.257273    0.074601
      9          6           0        0.987208   -2.378501   -0.133056
     10          6           0       -0.259326   -2.949020   -0.591224
     11          8           0       -0.412822   -4.208940   -0.778113
     12          6           0       -1.311143   -1.991658   -0.850750
     13          6           0       -2.536755   -2.487207   -1.361263
     14          6           0       -3.590164   -1.662898   -1.679183
     15          6           0       -3.446123   -0.262633   -1.489728
     16          6           0       -2.273068    0.240471   -0.986773
     17          8           0       -2.188123    1.649623   -0.945206
     18          6           0       -2.198264    2.282443    0.251180
     19          6           0       -1.625677    3.670584    0.093794
     20          8           0       -2.692781    1.846127    1.262093
     21          6           0       -1.140698   -0.559392   -0.631295
     22          6           0        0.087867   -0.004818   -0.122485
     23          8           0        0.233014    1.269594    0.127827
     24          6           0        1.154238   -0.950835    0.089647
     25          1           0        1.930403    3.156300    0.176893
     26          1           0        1.410917    3.556403    1.841540
     27          1           0        3.144653    3.382204    1.466797
     28          1           0        4.462697   -1.016051    1.017493
     29          1           0        4.142116   -3.498610    0.626590
     30          1           0        1.885980   -4.308334   -0.110421
     31          1           0       -2.590975   -3.562456   -1.495294
     32          1           0       -4.520726   -2.066066   -2.071659
     33          1           0       -4.243707    0.430652   -1.737836
     34          1           0       -1.753365    4.230958    1.020193
     35          1           0       -0.567898    3.549713   -0.142204
     36          1           0       -2.116280    4.190680   -0.735367
 ---------------------------------------------------------------------

 SCF Done:  E(UB3LYP) =  -1144.82913661     A.U. after    1 cycles

 Alpha  occ. eigenvalues --  -18.93937 -18.92792 -18.89035 -18.87523 -18.79859
 Alpha  occ. eigenvalues --  -18.78881 -10.08743 -10.07887  -9.99842  -9.99546
 Alpha  occ. eigenvalues --   -9.97304  -9.96640  -9.95726  -9.95074  -9.93892
 Alpha  occ. eigenvalues --   -9.93839  -9.93775  -9.93555  -9.92840  -9.92756
 Alpha  occ. eigenvalues --   -9.92663  -9.92570  -9.91678  -9.91615  -0.88313
 Alpha  occ. eigenvalues --   -0.86988  -0.80300  -0.78996  -0.71123  -0.70717
 Alpha  occ. eigenvalues --   -0.61435  -0.60829  -0.55276  -0.54394  -0.53836
 Alpha  occ. eigenvalues --   -0.50443  -0.49994  -0.49489  -0.42776  -0.40990
 Alpha  occ. eigenvalues --   -0.40123  -0.38074  -0.36927  -0.31133  -0.30944
 Alpha  occ. eigenvalues --   -0.28363  -0.27834  -0.26904  -0.26219  -0.25532
 Alpha  occ. eigenvalues --   -0.25180  -0.24775  -0.24131  -0.23425  -0.22575
 Alpha  occ. eigenvalues --   -0.21526  -0.21176  -0.20850  -0.19751  -0.17912
 Alpha  occ. eigenvalues --   -0.17398  -0.17105  -0.16683  -0.15676  -0.15363
 Alpha  occ. eigenvalues --   -0.14734  -0.14354  -0.13170  -0.12394  -0.11706
 Alpha  occ. eigenvalues --   -0.10705  -0.10275  -0.08798  -0.08479  -0.08330
 Alpha  occ. eigenvalues --   -0.07350  -0.06180  -0.04982  -0.00919  -0.00419
 Alpha  occ. eigenvalues --    0.00102   0.00465   0.02241   0.03474   0.11696
 Alpha virt. eigenvalues --    0.14901   0.15736   0.16187   0.16402   0.17893
 Alpha virt. eigenvalues --    0.18560   0.18615   0.19100   0.19768   0.20583
 Alpha virt. eigenvalues --    0.20981   0.21499   0.21677   0.22332   0.22568

  Beta  occ. eigenvalues --  -18.93937 -18.92792 -18.89035 -18.87523 -18.79859
  Beta  occ. eigenvalues --  -18.78881 -10.08743 -10.07887  -9.99842  -9.99546
  Beta  occ. eigenvalues --   -9.97304  -9.96640  -9.95726  -9.95074  -9.93892
  Beta  occ. eigenvalues --   -9.93839  -9.93775  -9.93555  -9.92840  -9.92756
  Beta  occ. eigenvalues --   -9.92663  -9.92570  -9.91678  -9.91615  -0.88313
  Beta  occ. eigenvalues --   -0.86988  -0.80300  -0.78996  -0.71123  -0.70717
  Beta  occ. eigenvalues --   -0.61435  -0.60829  -0.55276  -0.54394  -0.53836
  Beta  occ. eigenvalues --   -0.50443  -0.49994  -0.49489  -0.42776  -0.40990
  Beta  occ. eigenvalues --   -0.40123  -0.38074  -0.36927  -0.31133  -0.30944
  Beta  occ. eigenvalues --   -0.28363  -0.27834  -0.26904  -0.26219  -0.25532
  Beta  occ. eigenvalues --   -0.25180  -0.24775  -0.24131  -0.23425  -0.22575
  Beta  occ. eigenvalues --   -0.21526  -0.21176  -0.20850  -0.19751  -0.17912
  Beta  occ. eigenvalues --   -0.17398  -0.17105  -0.16683  -0.15676  -0.15363
  Beta  occ. eigenvalues --   -0.14734  -0.14354  -0.13170  -0.12394  -0.11706
  Beta  occ. eigenvalues --   -0.10705  -0.10275  -0.08798  -0.08479  -0.08330
  Beta  occ. eigenvalues --   -0.07350  -0.06180  -0.04982  -0.00919  -0.00419
  Beta  occ. eigenvalues --    0.00102   0.00465   0.02241   0.03474   0.11696
  Beta virt. eigenvalues --    0.14901   0.15736   0.16187   0.16402   0.17893
  Beta virt. eigenvalues --    0.18560   0.18615   0.19100   0.19768   0.20583
  Beta virt. eigenvalues --    0.20981   0.21499   0.21677   0.22332   0.22568

 Mulliken charges and spin densities:
               1          2
     1  C   -0.410536  -0.000000
     2  C   -0.235196   0.000000
     3  O   -0.197531   0.000000
     4  O    0.009807   0.000000
     5  C   -0.184249  -0.000000
     6  C   -0.053240   0.000000
     7  C   -0.461738   0.000000
     8  C   -0.162323  -0.000000
     9  C    0.522667   0.000000
    10  C   -0.978122   0.000000
    11  O   -0.491529   0.000000
    12  C    0.503568   0.000000
    13  C   -0.198157  -0.000000
    14  C   -0.453321  -0.000000
    15  C    0.095866  -0.000000
    16  C   -0.364474   0.000000
    17  O    0.034630  -0.000000
    18  C   -0.175683   0.000000
    19  C   -0.358110  -0.000000
    20  O   -0.204738  -0.000000
    21  C    0.453156   0.000000
    22  C   -0.325927  -0.000000
    23  O   -0.418641   0.000000
    24  C    0.523424  -0.000000
    25  H    0.198948   0.000000
    26  H    0.143749  -0.000000
    27  H    0.109327   0.000000
    28  H    0.096946  -0.000000
    29  H    0.087744  -0.000000
    30  H    0.136888  -0.000000
    31  H    0.137343  -0.000000
    32  H    0.089632  -0.000000
    33  H    0.094552   0.000000
    34  H    0.113447  -0.000000
    35  H    0.206134   0.000000
    36  H    0.115688   0.000000
 Sum of Mulliken charges =  -2.00000  -0.00000

 Dipole moment (field-independent basis, Debye):
    X=              1.5390    Y=             10.5029    Z=             -1.7239  Tot=             10.7541
 Quadrupole moment (field-independent basis, Debye-Ang):
   XX=           -191.5067   YY=           -212.3059   ZZ=           -172.8527
   XY=              1.7465   XZ=             -8.9667   YZ=            -16.0523

  Exact polarizability: 407.185 -18.686 348.508  80.859  31.942 202.059
 Approx polarizability: 706.395 -33.886 565.920 142.874  31.083 329.869

                      1                      2                      3
                      A                      A                      A
 Frequencies --     25.7755                33.7243                37.2582
 Red. masses --      5.1041                 4.1623                 5.9197
 Frc consts  --      0.0020                 0.0028                 0.0048
 IR Inten    --      0.6825                14.0326                 1.8912

                      4                      5                      6
                      A                      A                      A
 Frequencies --     60.3325                75.2910               103.8777
 Red. masses --      5.9529                 4.9536                 2.8734
 Frc consts  --      0.0128                 0.0165                 0.0183
 IR Inten    --      2.5680                 3.0773                 1.4109

                      7                      8                      9
                      A                      A                      A
 Frequencies --    112.2803               124.2986               129.9490
 Red. masses --      2.7566                 4.2881                 1.3262
 Frc consts  --      0.0205                 0.0390                 0.0132
 IR Inten    --      2.9092                 5.6421                 4.1322

                     10                     11                     12
                      A                      A                      A
 Frequencies --    140.3190               161.2306               185.7575
 Red. masses --      1.8059                 5.1538                 5.7965
 Frc consts  --      0.0210                 0.0789                 0.1178
 IR Inten    --      1.9467                 2.9514                 4.3967

                     13                     14                     15
                      A                      A                      A
 Frequencies --    217.3507               231.9334               269.1740
 Red. masses --      4.6857                 6.9641                 5.2039
 Frc consts  --      0.1304                 0.2207                 0.2222
 IR Inten    --      0.2209                 9.8401                 0.4619

                     16                     17                     18
                      A                      A                      A
 Frequencies --    285.1910               307.8571               317.4739
 Red. masses --      6.0040                 4.5989                 6.2663
 Frc consts  --      0.2877                 0.2568                 0.3721
 IR Inten    --      3.7856                 5.2596                 5.2330

                     19                     20                     21
                      A                      A                      A
 Frequencies --    330.5818               346.3829               371.7446
 Red. masses --      3.8092                 6.6383                 7.6211
 Frc consts  --      0.2453                 0.4693                 0.6205
 IR Inten    --      1.4019                 9.2240                10.7316

                     22                     23                     24
                      A                      A                      A
 Frequencies --    392.6228               400.3547               446.4844
 Red. masses --      7.9934                 7.3757                 6.6284
 Frc consts  --      0.7260                 0.6965                 0.7785
 IR Inten    --     11.5310                 0.8462                20.3335

                     25                     26                     27
                      A                      A                      A
 Frequencies --    474.5914               496.0189               501.5100
 Red. masses --      5.6172                 4.1462                 8.9863
 Frc consts  --      0.7454                 0.6010                 1.3317
 IR Inten    --      1.7735                 2.9220                 7.2993

                     28                     29                     30
                      A                      A                      A
 Frequencies --    521.9205               528.5956               547.6541
 Red. masses --      5.3031                 4.6760                 3.7229
 Frc consts  --      0.8511                 0.7698                 0.6579
 IR Inten    --     14.0129                14.2173                 2.3481

                     31                     32                     33
                      A                      A                      A
 Frequencies --    557.6656               564.4253               573.6971
 Red. masses --      4.6230                 4.9433                 5.3863
 Frc consts  --      0.8471                 0.9279                 1.0445
 IR Inten    --     24.2346                10.0406                 0.2154

                     34                     35                     36
                      A                      A                      A
 Frequencies --    610.1985               620.1027               667.0943
 Red. masses --      5.9022                 4.5537                 4.7737
 Frc consts  --      1.2948                 1.0317                 1.2516
 IR Inten    --     25.7559                 7.8355                12.7567

                     37                     38                     39
                      A                      A                      A
 Frequencies --    675.3509               697.9152               706.4016
 Red. masses --      3.2562                 6.0467                 1.7237
 Frc consts  --      0.8750                 1.7353                 0.5068
 IR Inten    --     35.6244                 5.5291                 4.0584

                     40                     41                     42
                      A                      A                      A
 Frequencies --    718.5892               749.5988               761.9326
 Red. masses --      2.0612                 3.3919                 3.0403
 Frc consts  --      0.6271                 1.1229                 1.0399
 IR Inten    --     51.6511                19.4252                 1.3164

                     43                     44                     45
                      A                      A                      A
 Frequencies --    786.7114               803.7975               818.5256
 Red. masses --      4.5369                 2.3394                 5.8195
 Frc consts  --      1.6544                 0.8905                 2.2972
 IR Inten    --      7.0938                10.2279                 1.5213

                     46                     47                     48
                      A                      A                      A
 Frequencies --    825.7106               835.9459               889.6674
 Red. masses --      1.8575                 2.3261                 5.5056
 Frc consts  --      0.7462                 0.9577                 2.5675
 IR Inten    --      1.5194                 4.7805                42.4660

                     49                     50                     51
                      A                      A                      A
 Frequencies --    913.9229               932.7825               956.1229
 Red. masses --      6.3913                 6.4692                 1.2732
 Frc consts  --      3.1453                 3.3163                 0.6857
 IR Inten    --     10.7481                 0.7179                 0.4966

                     52                     53                     54
                      A                      A                      A
 Frequencies --    961.8004               966.5298              1001.6886
 Red. masses --      1.3038                 4.2417                 2.1946
 Frc consts  --      0.7106                 2.3347                 1.2974
 IR Inten    --      2.2849                31.0582                 7.7809

                     55                     56                     57
                      A                      A                      A
 Frequencies --   1019.9221              1031.0419              1041.4116
 Red. masses --      1.8011                 1.9181                 2.0037
 Frc consts  --      1.1039                 1.2013                 1.2803
 IR Inten    --     15.1288                88.5791               234.2134

                     58                     59                     60
                      A                      A                      A
 Frequencies --   1051.1649              1059.7229              1060.7018
 Red. masses --      2.1760                 1.9222                 1.9459
 Frc consts  --      1.4166                 1.2719                 1.2899
 IR Inten    --     86.0043               101.5172               101.8892

                     61                     62                     63
                      A                      A                      A
 Frequencies --   1128.6352              1145.7657              1154.2903
 Red. masses --      1.5542                 3.8203                 1.1916
 Frc consts  --      1.1664                 2.9549                 0.9355
 IR Inten    --     90.6447                12.6910                31.6529

                     64                     65                     66
                      A                      A                      A
 Frequencies --   1185.7070              1206.4420              1212.4758
 Red. masses --      4.3461                 3.8189                 2.8590
 Frc consts  --      3.6000                 3.2749                 2.4764
 IR Inten    --     85.1813               250.3144               159.8881

                     67                     68                     69
                      A                      A                      A
 Frequencies --   1220.6062              1225.8735              1237.7202
 Red. masses --      3.6653                 2.5268                 3.5701
 Frc consts  --      3.2174                 2.2372                 3.2224
 IR Inten    --     45.2497                70.8915               365.0968

                     70                     71                     72
                      A                      A                      A
 Frequencies --   1318.5421              1337.2140              1343.7208
 Red. masses --      5.8444                 3.9073                 2.8201
 Frc consts  --      5.9865                 4.1165                 3.0001
 IR Inten    --     24.9322               350.0864                15.1232

                     73                     74                     75
                      A                      A                      A
 Frequencies --   1360.0077              1366.8256              1372.2623
 Red. masses --      1.6407                 1.8463                 1.9380
 Frc consts  --      1.7880                 2.0323                 2.1502
 IR Inten    --    487.7583               649.3486               182.6963

                     76                     77                     78
                      A                      A                      A
 Frequencies --   1425.9967              1428.8545              1456.6896
 Red. masses --      3.5059                 5.3073                 1.0528
 Frc consts  --      4.2004                 6.3841                 1.3162
 IR Inten    --     26.7098               184.7980                 9.3161

                     79                     80                     81
                      A                      A                      A
 Frequencies --   1461.3007              1468.1676              1479.1201
 Red. masses --      1.1847                 2.6353                 1.0516
 Frc consts  --      1.4905                 3.3468                 1.3555
 IR Inten    --      6.8092                25.5243                 5.0639

                     82                     83                     84
                      A                      A                      A
 Frequencies --   1486.0887              1490.1533              1496.0250
 Red. masses --      4.9489                 1.0557                 6.2343
 Frc consts  --      6.4394                 1.3812                 8.2209
 IR Inten    --     10.1611                 5.5122               546.5196

                     85                     86                     87
                      A                      A                      A
 Frequencies --   1532.6862              1572.4709              1601.0872
 Red. masses --      6.3405                 6.5441                 5.6621
 Frc consts  --      8.7756                 9.5338                 8.5518
 IR Inten    --     70.9423                 4.2101                 5.2854

                     88                     89                     90
                      A                      A                      A
 Frequencies --   1607.7339              1756.5458              1781.9261
 Red. masses --      7.0612                11.5357                11.3060
 Frc consts  --     10.7537                20.9707                21.1514
 IR Inten    --     42.0139               208.5071               383.7874

                     91                     92                     93
                      A                      A                      A
 Frequencies --   3003.7417              3026.1754              3100.5405
 Red. masses --      1.0513                 1.0393                 1.0914
 Frc consts  --      5.5886                 5.6075                 6.1818
 IR Inten    --    116.2425                81.6773                21.7022

                     94                     95                     96
                      A                      A                      A
 Frequencies --   3101.8807              3113.2583              3115.9288
 Red. masses --      1.0817                 1.0851                 1.0850
 Frc consts  --      6.1323                 6.1967                 6.2068
 IR Inten    --     18.2351                65.1950                61.7571

                     97                     98                     99
                      A                      A                      A
 Frequencies --   3137.4046              3150.2187              3153.1734
 Red. masses --      1.1036                 1.1045                 1.0911
 Frc consts  --      6.4001                 6.4582                 6.3918
 IR Inten    --      7.7897                11.9875                86.3422

                    100                    101                    102
                      A                      A                      A
 Frequencies --   3153.4293              3167.8081              3169.0165
 Red. masses --      1.0910                 1.0916                 1.0917
 Frc consts  --      6.3923                 6.4540                 6.4595
 IR Inten    --     27.1212                52.7421                25.1239

 - Thermochemistry -
 -------------------
 Temperature   298.150 Kelvin.  Pressure   1.00000 Atm.
 Atom     1 has atomic number  6 and mass  12.00000

 Molecular mass:   324.06339 amu.
 Principal axes and moments of inertia in atomic units:
                           1         2         3
     Eigenvalues --  5997.967056659.64114**********
           X            0.91238   0.24971  -0.32437
           Y           -0.33709   0.90789  -0.24922
           Z            0.23226   0.33673   0.91251
 This molecule is an asymmetric top.
 Rotational symmetry number  1.
 Warning -- assumption of classical behavior for rotation
           may cause significant error
 Rotational temperatures (Kelvin)      0.01444     0.01301     0.00727
 Rotational constants (GHZ):           0.30089     0.27100     0.15146
 Zero-point vibrational energy     671650.5 (Joules/Mol)
                                  160.52831 (Kcal/Mol)
 Warning -- explicit consideration of  35 degrees of freedom as
           vibrations may cause significant error
 Vibrational temperatures:     37.09    48.52    53.61    86.81   108.33
          (Kelvin)            149.46   161.55   178.84   186.97   201.89
                              231.97   267.26   312.72   333.70   387.28
                              410.33   442.94   456.77   475.63   498.37
                              534.86   564.90   576.02   642.39   682.83
                              713.66   721.56   750.93   760.53   787.95
                              802.36   812.08   825.42   877.94   892.19
                              959.80   971.68  1004.14  1016.35  1033.89
                             1078.51  1096.25  1131.90  1156.49  1177.68
                             1188.01  1202.74  1280.03  1314.93  1342.07
                             1375.65  1383.82  1390.62  1441.21  1467.44
                             1483.44  1498.36  1512.39  1524.70  1526.11
                             1623.85  1648.50  1660.77  1705.97  1735.80
                             1744.48  1756.18  1763.76  1780.80  1897.09
                             1923.95  1933.31  1956.75  1966.56  1974.38
                             2051.69  2055.80  2095.85  2102.49  2112.37
                             2128.12  2138.15  2144.00  2152.45  2205.19
                             2262.43  2303.61  2313.17  2527.28  2563.79
                             4321.71  4353.99  4460.99  4462.91  4479.28
                             4483.13  4514.03  4532.46  4536.71  4537.08
                             4557.77  4559.51

 Zero-point correction=                           0.255818 (Hartree/Particle)
 Thermal correction to Energy=                    0.276338
 Thermal correction to Enthalpy=                  0.277282
 Thermal correction to Gibbs Free Energy=         0.205704
 Sum of electronic and zero-point Energies=          -1144.573318
 Sum of electronic and thermal Energies=             -1144.552798
 Sum of electronic and thermal Enthalpies=           -1144.551854
 Sum of electronic and thermal Free Energies=        -1144.623433

                     E (Thermal)             CV                S
                      KCal/Mol        Cal/Mol-Kelvin    Cal/Mol-Kelvin
 Total                  173.405             78.904            150.650
 Electronic               0.000              0.000              0.000
 Translational            0.889              2.981             43.223
 Rotational               0.889              2.981             34.519
 Vibrational            171.627             72.943             72.907
 Vibration     1          0.593              1.985              6.131
 Vibration     2          0.594              1.983              5.597
 Vibration     3          0.594              1.982              5.400
 Vibration     4          0.597              1.973              4.446
 Vibration     5          0.599              1.965              4.010
 Vibration     6          0.605              1.946              3.380
 Vibration     7          0.607              1.939              3.229
 Vibration     8          0.610              1.929              3.032
 Vibration     9          0.612              1.923              2.947
 Vibration    10          0.615              1.913              2.800
 Vibration    11          0.622              1.890              2.535
 Vibration    12          0.632              1.859              2.270
 Vibration    13          0.646              1.815              1.981
 Vibration    14          0.653              1.792              1.864
 Vibration    15          0.674              1.730              1.602
 Vibration    16          0.683              1.701              1.502
 Vibration    17          0.698              1.659              1.374
 Vibration    18          0.704              1.640              1.323
 Vibration    19          0.713              1.614              1.257
 Vibration    20          0.724              1.583              1.183
 Vibration    21          0.743              1.530              1.073
 Vibration    22          0.760              1.486              0.990
 Vibration    23          0.766              1.469              0.961
 Vibration    24          0.806              1.369              0.806
 Vibration    25          0.831              1.306              0.725
 Vibration    26          0.852              1.259              0.668
 Vibration    27          0.857              1.247              0.654
 Vibration    28          0.877              1.201              0.606
 Vibration    29          0.884              1.187              0.590
 Vibration    30          0.903              1.145              0.549
 Vibration    31          0.913              1.123              0.529
 Vibration    32          0.920              1.108              0.515
 Vibration    33          0.930              1.088              0.497
 Vibration    34          0.969              1.010              0.432
 Vibration    35          0.980              0.989              0.416

                           ! Non-Optimized Parameters !
 Normal termination of Gaussian 16 at Wed Dec 27 23:52:47 2023.
