 Q-Chem 5.4, Q-Chem, Inc., Pleasanton, CA (2021)
 Q-Chem 5.4.0 for Intel X86 EM64T Linux

User input:
--------------------------------------------------------------
$molecule
-2 1
C                  2.1361720000      3.0141000000      1.2358810000
C                  2.0600120000      1.5442680000      1.5794370000
O                  1.7023270000      1.1087660000      2.6494460000
O                  2.7683680000      0.8137350000      0.6588930000
C                  2.4598590000     -0.5471290000      0.5135410000
C                  3.5054000000     -1.4176320000      0.7001430000
C                  3.3161040000     -2.8071700000      0.4758670000
C                  2.0805600000     -3.2572730000      0.0746010000
C                  0.9872080000     -2.3785010000     -0.1330560000
C                 -0.2593260000     -2.9490200000     -0.5912240000
O                 -0.4128220000     -4.2089400000     -0.7781130000
C                 -1.3111430000     -1.9916580000     -0.8507500000
C                 -2.5367550000     -2.4872070000     -1.3612630000
C                 -3.5901640000     -1.6628980000     -1.6791830000
C                 -3.4461230000     -0.2626330000     -1.4897280000
C                 -2.2730680000      0.2404710000     -0.9867730000
O                 -2.1881230000      1.6496230000     -0.9452060000
C                 -2.1982640000      2.2824430000      0.2511800000
C                 -1.6256770000      3.6705840000      0.0937940000
O                 -2.6927810000      1.8461270000      1.2620930000
C                 -1.1406980000     -0.5593920000     -0.6312950000
C                  0.0878670000     -0.0048180000     -0.1224850000
O                  0.2330140000      1.2695940000      0.1278270000
C                  1.1542380000     -0.9508350000      0.0896470000
H                  1.9304030000      3.1563000000      0.1768930000
H                  1.4109170000      3.5564030000      1.8415400000
H                  3.1446530000      3.3822040000      1.4667970000
H                  4.4626970000     -1.0160510000      1.0174930000
H                  4.1421160000     -3.4986100000      0.6265900000
H                  1.8859800000     -4.3083340000     -0.1104210000
H                 -2.5909750000     -3.5624560000     -1.4952940000
H                 -4.5207260000     -2.0660660000     -2.0716590000
H                 -4.2437070000      0.4306520000     -1.7378360000
H                 -1.7533650000      4.2309580000      1.0201930000
H                 -0.5678980000      3.5497130000     -0.1422040000
H                 -2.1162800000      4.1906800000     -0.7353670000
$end

$rem
BASIS  =  6-311++G(d,p)
GUI  =  2
JOB_TYPE  =  SP
METHOD  =  B3LYP
SCF_CONVERGENCE  = 8
SOLVENT_METHOD = sm12
$end

$smx
solvent dimethylformamide
charges CM5
$end

--------------------------------------------------------------

             Standard Nuclear Orientation (Angstroms)
    I     Atom           X                Y                Z
 ----------------------------------------------------------------
    1      C       2.1361720000     3.0141000000     1.2358810000
    2      C       2.0600120000     1.5442680000     1.5794370000
    3      O       1.7023270000     1.1087660000     2.6494460000
    4      O       2.7683680000     0.8137350000     0.6588930000
    5      C       2.4598590000    -0.5471290000     0.5135410000
    6      C       3.5054000000    -1.4176320000     0.7001430000
    7      C       3.3161040000    -2.8071700000     0.4758670000
    8      C       2.0805600000    -3.2572730000     0.0746010000
    9      C       0.9872080000    -2.3785010000    -0.1330560000
   10      C      -0.2593260000    -2.9490200000    -0.5912240000
   11      O      -0.4128220000    -4.2089400000    -0.7781130000
   12      C      -1.3111430000    -1.9916580000    -0.8507500000
   13      C      -2.5367550000    -2.4872070000    -1.3612630000
   14      C      -3.5901640000    -1.6628980000    -1.6791830000
   15      C      -3.4461230000    -0.2626330000    -1.4897280000
   16      C      -2.2730680000     0.2404710000    -0.9867730000
   17      O      -2.1881230000     1.6496230000    -0.9452060000
   18      C      -2.1982640000     2.2824430000     0.2511800000
   19      C      -1.6256770000     3.6705840000     0.0937940000
   20      O      -2.6927810000     1.8461270000     1.2620930000
   21      C      -1.1406980000    -0.5593920000    -0.6312950000
   22      C       0.0878670000    -0.0048180000    -0.1224850000
   23      O       0.2330140000     1.2695940000     0.1278270000
   24      C       1.1542380000    -0.9508350000     0.0896470000
   25      H       1.9304030000     3.1563000000     0.1768930000
   26      H       1.4109170000     3.5564030000     1.8415400000
   27      H       3.1446530000     3.3822040000     1.4667970000
   28      H       4.4626970000    -1.0160510000     1.0174930000
   29      H       4.1421160000    -3.4986100000     0.6265900000
   30      H       1.8859800000    -4.3083340000    -0.1104210000
   31      H      -2.5909750000    -3.5624560000    -1.4952940000
   32      H      -4.5207260000    -2.0660660000    -2.0716590000
   33      H      -4.2437070000     0.4306520000    -1.7378360000
   34      H      -1.7533650000     4.2309580000     1.0201930000
   35      H      -0.5678980000     3.5497130000    -0.1422040000
   36      H      -2.1162800000     4.1906800000    -0.7353670000
 ----------------------------------------------------------------

   18   -1144.8198833951      3.69e-09  Convergence criterion met
 Total energy in the final basis set =    -1145.0850458048

                    Orbital Energies (a.u.)
 --------------------------------------------------------------

 Alpha MOs
 -- Occupied --
-19.1592 -19.1523 -19.1033 -19.0943 -19.0313 -19.0283 -10.2989 -10.2960
-10.2301 -10.2289 -10.1959 -10.1884 -10.1713 -10.1712 -10.1684 -10.1680
-10.1673 -10.1663 -10.1642 -10.1631 -10.1628 -10.1623 -10.1552 -10.1549
 -1.1010  -1.0927  -1.0181  -1.0105  -0.9483  -0.9441  -0.8472  -0.8416
 -0.7745  -0.7650  -0.7608  -0.7293  -0.7244  -0.7216  -0.6616  -0.6389
 -0.6275  -0.6113  -0.5968  -0.5429  -0.5393  -0.5082  -0.5034  -0.4815
 -0.4782  -0.4747  -0.4715  -0.4689  -0.4633  -0.4575  -0.4530  -0.4431
 -0.4319  -0.4078  -0.4065  -0.4015  -0.3979  -0.3915  -0.3892  -0.3855
 -0.3792  -0.3705  -0.3661  -0.3642  -0.3567  -0.3477  -0.3401  -0.3370
 -0.3232  -0.3157  -0.3076  -0.3001  -0.2748  -0.2686  -0.2420  -0.2383
 -0.2368  -0.2313  -0.2109  -0.2026  -0.1203

          Ground-State Mulliken Net Atomic Charges

     Atom                 Charge (a.u.)
  ----------------------------------------
      1 C                     0.472477
      2 C                    -0.312330
      3 O                    -0.245224
      4 O                     0.128945
      5 C                    -0.241024
      6 C                     2.329891
      7 C                     1.424975
      8 C                    -0.390392
      9 C                    -1.741835
     10 C                    -3.332001
     11 O                    -0.346003
     12 C                    -1.777874
     13 C                    -0.322237
     14 C                     1.523095
     15 C                     2.692397
     16 C                    -0.156214
     17 O                     0.141165
     18 C                    -0.292092
     19 C                     0.439655
     20 O                    -0.234855
     21 C                    -1.120037
     22 C                    -2.481282
     23 O                    -0.091398
     24 C                    -1.028860
     25 H                     0.202259
     26 H                     0.167071
     27 H                     0.308101
     28 H                     0.313670
     29 H                     0.388180
     30 H                     0.095129
     31 H                     0.094922
     32 H                     0.391023
     33 H                     0.323299
     34 H                     0.212638
     35 H                     0.203679
     36 H                     0.261082
  ----------------------------------------
  Sum of atomic charges =    -2.000000

                    Cartesian Multipole Moments
 -----------------------------------------------------------------
    Charge (ESU x 10^10)
                -9.6064
    Dipole Moment (Debye)
         X       1.6961      Y      13.2699      Z      -1.3697
       Tot      13.4478
    Quadrupole Moments (Debye-Ang)
        XX    -182.9915     XY       0.8419     YY    -209.6471
        XZ      -5.8747     YZ     -16.0157     ZZ    -172.4729

 Total job time:  1655.97s(wall), 12702.01s(cpu)
        *  Thank you very much for using Q-Chem.  Have a nice day.  *
