 Q-Chem 5.4, Q-Chem, Inc., Pleasanton, CA (2021)
 Q-Chem 5.4.0 for Intel X86 EM64T Linux

User input:
--------------------------------------------------------------
$molecule
-1 2
C                  0.2561850000      3.9358110000      0.3266390000
C                 -0.9080710000      3.5440990000      0.9633550000
C                 -1.2667710000      2.1824560000      0.9946130000
C                  1.0962440000      2.9901950000     -0.2938620000
C                  0.7350910000      1.6221550000     -0.2639970000
C                 -0.4548190000      1.2411330000      0.3875050000
C                  2.3204710000      3.4475160000     -0.9752340000
C                  3.1467860000      2.4059290000     -1.5579290000
C                  2.8037690000      1.0527200000     -1.5306710000
C                  1.5782570000      0.5992520000     -0.8996810000
O                  2.6054340000      4.6709120000     -1.0271710000
O                  1.2443000000     -0.6173450000     -0.8771770000
H                  0.5567460000      4.9762340000      0.2829900000
H                 -1.5451380000      4.2846980000      1.4381680000
H                 -2.1809010000      1.8732490000      1.4932340000
H                 -0.7055670000      0.1866520000      0.3928550000
S                  4.6169830000      2.9154610000     -2.4571490000
C                  3.6628610000     -0.0158570000     -2.1568710000
H                  3.5554330000     -0.0298260000     -3.2492150000
H                  3.3487550000     -0.9905120000     -1.7826670000
H                  4.7218650000      0.1534680000     -1.9484570000
C                  5.5326910000      3.9338320000     -1.2207560000
C                  6.7701740000      4.5418830000     -1.8749080000
H                  5.8120610000      3.2866900000     -0.3854710000
H                  4.8444490000      4.7000290000     -0.8680460000
H                  7.4409390000      3.7716700000     -2.2693640000
H                  7.3316130000      5.1347950000     -1.1446470000
H                  6.4917780000      5.2022700000     -2.7010960000
$end
$rem
MAX_SCF_CYCLES=200
BASIS  =  6-311++G(d,p)
GUI  =  2
JOB_TYPE  =  SP
METHOD  =  B3LYP
SOLVENT_METHOD = COSMO
$end
$solvent
dielectric 37.219
opticaldielectric 1.43
$end

--------------------------------------------------------------

             Standard Nuclear Orientation (Angstroms)
    I     Atom           X                Y                Z
 ----------------------------------------------------------------
    1      C      -2.0670386469    -2.0450598983     0.1010830114
    2      C      -3.4407573805    -2.0101726324    -0.0602158067
    3      C      -4.0965577619    -0.7749402707    -0.2270728846
    4      C      -1.3068130700    -0.8589042805     0.0996144389
    5      C      -1.9658200870     0.3824755737    -0.0663453704
    6      C      -3.3655224755     0.3995903099    -0.2277725615
    7      C       0.1527486202    -0.9352455689     0.2893345675
    8      C       0.8640662480     0.3291947182     0.2398228156
    9      C       0.2258363750     1.5596401908     0.0717608427
   10      C      -1.2154803504     1.6467189096    -0.0720607935
   11      O       0.7171437475    -2.0430629410     0.4758766443
   12      O      -1.8115486581     2.7501735843    -0.2107414407
   13      H      -1.5348661586    -2.9797111570     0.2350294041
   14      H      -4.0132957705    -2.9332018735    -0.0578838007
   15      H      -5.1750608394    -0.7456069021    -0.3529148195
   16      H      -3.8421404645     1.3651690847    -0.3515719302
   17      S       2.6372202415     0.2985308345     0.5308268152
   18      C       0.9762370840     2.8665435235     0.0413509067
   19      H       1.2771917246     3.1813844307     1.0489484603
   20      H       0.3260911959     3.6415246212    -0.3652916933
   21      H       1.8925555542     2.7845257897    -0.5479116625
   22      C       3.2478525792    -0.9045060328    -0.7277830247
   23      C       4.7449504726    -1.1299166633    -0.5357075751
   24      H       3.0398027985    -0.4955816999    -1.7197697056
   25      H       2.6801302471    -1.8232309075    -0.5907604145
   26      H       5.3113212438    -0.1976097170    -0.6293942544
   27      H       5.1221102023    -1.8296446734    -1.2894786071
   28      H       4.9536660475    -1.5539027668     0.4506369523
 ----------------------------------------------------------------

   10   -1051.5248918392      9.29e-06  Convergence criterion met
 Total energy in the final basis set =    -1051.5248918392
    5   -1051.6060689256      4.33e-06  Convergence criterion met
 Total energy in the final basis set =    -1051.6060689256

                    Orbital Energies (a.u.)
 --------------------------------------------------------------

 Alpha MOs
 -- Occupied --
-88.8343 -19.0795 -19.0791 -10.2287 -10.2236 -10.1916 -10.1850 -10.1778
-10.1745 -10.1738 -10.1727 -10.1722 -10.1700 -10.1697 -10.1596 -10.1509
 -7.9206  -5.8843  -5.8808  -5.8746  -1.0072  -1.0038  -0.8596  -0.8250
 -0.7853  -0.7552  -0.7506  -0.7194  -0.6770  -0.6572  -0.6129  -0.5948
 -0.5780  -0.5531  -0.5139  -0.4907  -0.4681  -0.4521  -0.4465  -0.4324
 -0.4297  -0.4238  -0.4190  -0.4135  -0.3984  -0.3865  -0.3825  -0.3739
 -0.3713  -0.3621  -0.3540  -0.3498  -0.3436  -0.3371  -0.3164  -0.2734
 -0.2576  -0.2550  -0.2498  -0.2394  -0.2195  -0.1552

 Beta MOs
 -- Occupied --
-88.8343 -19.0736 -19.0732 -10.2271 -10.2218 -10.1904 -10.1849 -10.1759
-10.1740 -10.1733 -10.1724 -10.1719 -10.1700 -10.1696 -10.1596 -10.1511
 -7.9205  -5.8844  -5.8808  -5.8744  -0.9973  -0.9928  -0.8575  -0.8214
 -0.7836  -0.7534  -0.7488  -0.7163  -0.6754  -0.6508  -0.6118  -0.5929
 -0.5760  -0.5504  -0.5116  -0.4884  -0.4655  -0.4514  -0.4459  -0.4301
 -0.4235  -0.4197  -0.4145  -0.4097  -0.3911  -0.3829  -0.3798  -0.3715
 -0.3622  -0.3556  -0.3507  -0.3435  -0.3393  -0.3350  -0.3131  -0.2537
 -0.2510  -0.2490  -0.2440  -0.2342  -0.2142

          Ground-State Mulliken Net Atomic Charges

     Atom                 Charge (a.u.)    Spin (a.u.)
  --------------------------------------------------------
      1 C                    -0.014899       0.027002
      2 C                    -0.544934       0.026231
      3 C                    -0.451963       0.018793
      4 C                     0.105813      -0.001561
      5 C                     0.726897       0.013975
      6 C                     0.009880       0.028717
      7 C                    -1.207877       0.111574
      8 C                     1.330202       0.086159
      9 C                     0.922680       0.142726
     10 C                    -1.240620       0.096838
     11 O                    -0.462013       0.201991
     12 O                    -0.491602       0.228125
     13 H                     0.189438      -0.001890
     14 H                     0.201870      -0.002119
     15 H                     0.207319      -0.001800
     16 H                     0.176256      -0.002460
     17 S                    -0.634063       0.012972
     18 C                    -0.303555      -0.003755
     19 H                     0.193982       0.008805
     20 H                     0.174736      -0.000739
     21 H                     0.151001       0.004150
     22 C                    -0.293353       0.003654
     23 C                    -0.617329       0.002612
     24 H                     0.198828       0.000227
     25 H                     0.196804      -0.000659
     26 H                     0.157287      -0.000039
     27 H                     0.159228       0.000083
     28 H                     0.159986       0.000389
  --------------------------------------------------------
  Sum of atomic charges =    -1.000000

                    Cartesian Multipole Moments
 -----------------------------------------------------------------
    Charge (ESU x 10^10)
                -4.8032
    Dipole Moment (Debye)
         X       1.7660      Y      -2.7578      Z      -2.3011
       Tot       4.0024
    Quadrupole Moments (Debye-Ang)
        XX    -111.4664     XY      13.9673     YY    -131.2374
        XZ      -6.6566     YZ       4.9565     ZZ    -109.0781

 Total job time:  78.94s(wall), 601.45s(cpu)
        *  Thank you very much for using Q-Chem.  Have a nice day.  *
