 Q-Chem 5.4, Q-Chem, Inc., Pleasanton, CA (2021)
 Q-Chem 5.4.0 for Intel X86 EM64T Linux

User input:
--------------------------------------------------------------
$molecule
-1 2
C                 -1.4480260000      2.3154420000     -3.9428910000
C                 -1.4099550000      0.9415690000     -4.0714330000
C                 -1.1111480000      0.1377780000     -2.9492710000
C                 -1.1924990000      2.9386110000     -2.7008550000
C                 -0.8917540000      2.1331000000     -1.5765060000
C                 -0.8580630000      0.7287220000     -1.7276970000
C                 -1.2519150000      4.3926870000     -2.6012240000
C                 -0.6087380000      2.7220360000     -0.2723350000
C                 -0.9903110000      4.9963790000     -1.3016690000
C                 -0.6457200000      4.1737830000     -0.1594490000
C                 -1.0662930000      6.4277310000     -1.1489490000
C                 -0.7730190000      6.9834960000      0.0973100000
C                 -0.4252690000      6.1920800000      1.1938310000
C                 -0.3443470000      4.8016420000      1.1026930000
O                 -1.5262350000      5.0670920000     -3.6470350000
O                 -0.3449750000      1.9475480000      0.7046230000
H                 -1.6759380000      2.9576910000     -4.7850330000
H                 -1.6096280000      0.4782740000     -5.0333000000
H                 -1.0804630000     -0.9433700000     -3.0486560000
H                 -0.6243970000      0.1385380000     -0.8497920000
H                 -0.2037460000      6.6848960000      2.1325940000
H                 -0.8240400000      8.0566780000      0.2347450000
N                 -1.4672420000      7.2204670000     -2.2133760000
N                  0.0596050000      4.0326280000      2.1830070000
H                 -1.5427470000      6.6785210000     -3.0812260000
H                 -0.0331590000      3.0293480000      1.9896720000
C                  0.0537770000      4.4846460000      3.5586630000
C                  0.8412800000      3.4784860000      4.4055890000
C                 -1.3667030000      4.6895430000      4.1246110000
C                 -1.2487920000      8.6495850000     -2.2979230000
C                  0.2380790000      9.0282440000     -2.4583510000
C                 -2.0835310000      9.2022250000     -3.4587710000
H                  0.5825390000      5.4459700000      3.6174830000
H                  0.8706560000      3.7895100000      5.4544510000
H                  1.8658380000      3.3839180000      4.0376620000
H                  0.3735590000      2.4894470000      4.3581850000
H                 -1.9415320000      5.3675670000      3.4900280000
H                 -1.3334850000      5.1086210000      5.1374290000
H                 -1.8973800000      3.7328820000      4.1630330000
H                 -1.6192600000      9.1193330000     -1.3763950000
H                  0.8370850000      8.5900500000     -1.6570740000
H                  0.3748730000     10.1160690000     -2.4370470000
H                  0.6214270000      8.6497300000     -3.4112790000
H                 -1.7759930000      8.7427470000     -4.4040230000
H                 -1.9553830000     10.2851880000     -3.5509300000
H                 -3.1437900000      8.9847420000     -3.3084600000
$end
$rem
MAX_SCF_CYCLES=200
BASIS  =  6-311++G(d,p)
GUI  =  2
JOB_TYPE  =  SP
METHOD  =  B3LYP
SOLVENT_METHOD = PCM
$end
$pcm
theory = CPCM
$end
$solvent
dielectric 37.219
opticaldielectric 1.43
$end

--------------------------------------------------------------

             Standard Nuclear Orientation (Angstroms)
    I     Atom           X                Y                Z
 ----------------------------------------------------------------
    1      C      -1.4480260000     2.3154420000    -3.9428910000
    2      C      -1.4099550000     0.9415690000    -4.0714330000
    3      C      -1.1111480000     0.1377780000    -2.9492710000
    4      C      -1.1924990000     2.9386110000    -2.7008550000
    5      C      -0.8917540000     2.1331000000    -1.5765060000
    6      C      -0.8580630000     0.7287220000    -1.7276970000
    7      C      -1.2519150000     4.3926870000    -2.6012240000
    8      C      -0.6087380000     2.7220360000    -0.2723350000
    9      C      -0.9903110000     4.9963790000    -1.3016690000
   10      C      -0.6457200000     4.1737830000    -0.1594490000
   11      C      -1.0662930000     6.4277310000    -1.1489490000
   12      C      -0.7730190000     6.9834960000     0.0973100000
   13      C      -0.4252690000     6.1920800000     1.1938310000
   14      C      -0.3443470000     4.8016420000     1.1026930000
   15      O      -1.5262350000     5.0670920000    -3.6470350000
   16      O      -0.3449750000     1.9475480000     0.7046230000
   17      H      -1.6759380000     2.9576910000    -4.7850330000
   18      H      -1.6096280000     0.4782740000    -5.0333000000
   19      H      -1.0804630000    -0.9433700000    -3.0486560000
   20      H      -0.6243970000     0.1385380000    -0.8497920000
   21      H      -0.2037460000     6.6848960000     2.1325940000
   22      H      -0.8240400000     8.0566780000     0.2347450000
   23      N      -1.4672420000     7.2204670000    -2.2133760000
   24      N       0.0596050000     4.0326280000     2.1830070000
   25      H      -1.5427470000     6.6785210000    -3.0812260000
   26      H      -0.0331590000     3.0293480000     1.9896720000
   27      C       0.0537770000     4.4846460000     3.5586630000
   28      C       0.8412800000     3.4784860000     4.4055890000
   29      C      -1.3667030000     4.6895430000     4.1246110000
   30      C      -1.2487920000     8.6495850000    -2.2979230000
   31      C       0.2380790000     9.0282440000    -2.4583510000
   32      C      -2.0835310000     9.2022250000    -3.4587710000
   33      H       0.5825390000     5.4459700000     3.6174830000
   34      H       0.8706560000     3.7895100000     5.4544510000
   35      H       1.8658380000     3.3839180000     4.0376620000
   36      H       0.3735590000     2.4894470000     4.3581850000
   37      H      -1.9415320000     5.3675670000     3.4900280000
   38      H      -1.3334850000     5.1086210000     5.1374290000
   39      H      -1.8973800000     3.7328820000     4.1630330000
   40      H      -1.6192600000     9.1193330000    -1.3763950000
   41      H       0.8370850000     8.5900500000    -1.6570740000
   42      H       0.3748730000    10.1160690000    -2.4370470000
   43      H       0.6214270000     8.6497300000    -3.4112790000
   44      H      -1.7759930000     8.7427470000    -4.4040230000
   45      H      -1.9553830000    10.2851880000    -3.5509300000
   46      H      -3.1437900000     8.9847420000    -3.3084600000
 ----------------------------------------------------------------

    8   -1035.7866702685      5.29e-06  Convergence criterion met
 Total energy in the final basis set =    -1035.7866702685

                    Orbital Energies (a.u.)
 --------------------------------------------------------------

 Alpha MOs
 -- Occupied --
-19.0706 -19.0706 -14.2980 -14.2979 -10.2207 -10.2206 -10.2036 -10.2035
-10.1993 -10.1992 -10.1692 -10.1687 -10.1681 -10.1678 -10.1670 -10.1666
-10.1658 -10.1658 -10.1585 -10.1579 -10.1530 -10.1530 -10.1500 -10.1500
 -0.9996  -0.9970  -0.9235  -0.9182  -0.8547  -0.8312  -0.7794  -0.7782
 -0.7559  -0.7468  -0.7322  -0.7018  -0.6814  -0.6812  -0.6593  -0.6333
 -0.6263  -0.5957  -0.5829  -0.5719  -0.5607  -0.5221  -0.5211  -0.4996
 -0.4833  -0.4764  -0.4640  -0.4576  -0.4513  -0.4399  -0.4364  -0.4334
 -0.4243  -0.4191  -0.4113  -0.4095  -0.4060  -0.3999  -0.3947  -0.3884
 -0.3813  -0.3800  -0.3779  -0.3756  -0.3689  -0.3614  -0.3555  -0.3480
 -0.3456  -0.3420  -0.3370  -0.3350  -0.3322  -0.3295  -0.3050  -0.2653
 -0.2532  -0.2477  -0.2417  -0.2398  -0.2299  -0.1802  -0.1299

 Beta MOs
 -- Occupied --
-19.0667 -19.0666 -14.2970 -14.2969 -10.2189 -10.2189 -10.2030 -10.2029
-10.1993 -10.1992 -10.1687 -10.1683 -10.1683 -10.1679 -10.1664 -10.1661
-10.1658 -10.1656 -10.1571 -10.1565 -10.1530 -10.1530 -10.1499 -10.1499
 -0.9927  -0.9899  -0.9214  -0.9162  -0.8527  -0.8295  -0.7775  -0.7759
 -0.7546  -0.7450  -0.7308  -0.6991  -0.6813  -0.6808  -0.6532  -0.6317
 -0.6241  -0.5953  -0.5820  -0.5708  -0.5590  -0.5201  -0.5201  -0.4983
 -0.4826  -0.4740  -0.4629  -0.4565  -0.4502  -0.4390  -0.4351  -0.4327
 -0.4213  -0.4166  -0.4083  -0.4054  -0.4047  -0.3961  -0.3939  -0.3870
 -0.3809  -0.3787  -0.3770  -0.3661  -0.3617  -0.3600  -0.3550  -0.3448
 -0.3440  -0.3402  -0.3347  -0.3319  -0.3312  -0.3248  -0.2991  -0.2512
 -0.2474  -0.2394  -0.2382  -0.2356  -0.2259  -0.1671

          Ground-State Mulliken Net Atomic Charges

     Atom                 Charge (a.u.)    Spin (a.u.)
  --------------------------------------------------------
      1 C                    -0.158194       0.023666
      2 C                    -0.394050       0.034014
      3 C                    -0.391414       0.033950
      4 C                     0.332558       0.034580
      5 C                     0.329854       0.034505
      6 C                    -0.154917       0.023671
      7 C                    -0.295269       0.100344
      8 C                    -0.298437       0.100371
      9 C                     0.060095      -0.018037
     10 C                     0.069650      -0.018010
     11 C                    -0.412797       0.044704
     12 C                    -0.039314       0.088694
     13 C                    -0.041582       0.088853
     14 C                    -0.410021       0.044569
     15 O                    -0.494782       0.150631
     16 O                    -0.494969       0.150550
     17 H                     0.163353      -0.000840
     18 H                     0.196081      -0.002785
     19 H                     0.196190      -0.002779
     20 H                     0.163010      -0.000834
     21 H                     0.221338      -0.007174
     22 H                     0.221132      -0.007196
     23 N                    -0.105383       0.047411
     24 N                    -0.106423       0.047385
     25 H                     0.410920      -0.001794
     26 H                     0.410043      -0.001809
     27 C                     0.085503       0.002531
     28 C                    -0.562595      -0.000932
     29 C                    -0.566346       0.002157
     30 C                     0.084154       0.002665
     31 C                    -0.566335       0.002102
     32 C                    -0.563782      -0.000964
     33 H                     0.133332       0.002244
     34 H                     0.162898      -0.000090
     35 H                     0.158037      -0.000057
     36 H                     0.149667      -0.000067
     37 H                     0.141072       0.001397
     38 H                     0.148339      -0.000268
     39 H                     0.163054      -0.000263
     40 H                     0.133211       0.002226
     41 H                     0.141064       0.001412
     42 H                     0.148575      -0.000267
     43 H                     0.162981      -0.000265
     44 H                     0.149483      -0.000062
     45 H                     0.162872      -0.000094
     46 H                     0.158146      -0.000046
  --------------------------------------------------------
  Sum of atomic charges =    -1.000001

                    Cartesian Multipole Moments
 -----------------------------------------------------------------
    Charge (ESU x 10^10)
                -4.8032
    Dipole Moment (Debye)
         X       4.6235      Y     -15.7755      Z       7.8023
       Tot      18.1967
    Quadrupole Moments (Debye-Ang)
        XX    -161.3395     XY      19.9062     YY    -198.1534
        XZ     -10.9436     YZ      40.1933     ZZ    -169.0875

 Total job time:  193.01s(wall), 1108.15s(cpu)
        *  Thank you very much for using Q-Chem.  Have a nice day.  *
