 Gaussian 16, Revision A.03,
 Gaussian 16:  ES64L-G16RevA.03 25-Dec-2016

 ----------------------------------------------------------------------
 #P UB3LYP/6-311++G(d,p) nosym opt freq SCRF=(PCM,Solvent=n,n-DiMethylF
 ormamide)
 ----------------------------------------------------------------------

 -------
 Reduced
 -------
 Symbolic Z-matrix:
 Charge = -2 Multiplicity = 1

 SCF Done:  E(UB3LYP) =  -1243.50878731     A.U. after   18 cycles
 SCF Done:  E(UB3LYP) =  -1243.50962244     A.U. after   14 cycles
 SCF Done:  E(UB3LYP) =  -1243.50974627     A.U. after   14 cycles
 SCF Done:  E(UB3LYP) =  -1243.50997432     A.U. after   12 cycles
 SCF Done:  E(UB3LYP) =  -1243.50998197     A.U. after   12 cycles
 SCF Done:  E(UB3LYP) =  -1243.51000996     A.U. after   11 cycles
 SCF Done:  E(UB3LYP) =  -1243.51001409     A.U. after   11 cycles
 SCF Done:  E(UB3LYP) =  -1243.51001724     A.U. after   11 cycles
 SCF Done:  E(UB3LYP) =  -1243.51002014     A.U. after   11 cycles
 SCF Done:  E(UB3LYP) =  -1243.51001903     A.U. after   12 cycles
 SCF Done:  E(UB3LYP) =  -1243.51002699     A.U. after   13 cycles
 SCF Done:  E(UB3LYP) =  -1243.51002376     A.U. after   12 cycles
 SCF Done:  E(UB3LYP) =  -1243.49438749     A.U. after   17 cycles
 SCF Done:  E(UB3LYP) =  -1243.50966998     A.U. after   14 cycles
 SCF Done:  E(UB3LYP) =  -1243.51002960     A.U. after   10 cycles
 SCF Done:  E(UB3LYP) =  -1243.51003268     A.U. after   13 cycles
 SCF Done:  E(UB3LYP) =  -1243.51003929     A.U. after   11 cycles
 SCF Done:  E(UB3LYP) =  -1243.51004009     A.U. after    9 cycles
 SCF Done:  E(UB3LYP) =  -1243.51004017     A.U. after    9 cycles
 Optimization completed.
    -- Stationary point found.
 Normal termination of Gaussian 16 at Sat Feb 10 20:42:57 2024.

 ----------------------------------------------------------------------
 #P Geom=AllCheck Guess=TCheck SCRF=Check GenChk UB3LYP/6-311++G(d,p) F
 req
 ----------------------------------------------------------------------

 Structure from the checkpoint file:  "162-an.chk"
 -------
 Reduced
 -------
 Charge = -2 Multiplicity = 1

                          Input orientation:
 ---------------------------------------------------------------------
 Center     Atomic      Atomic             Coordinates (Angstroms)
 Number     Number       Type             X           Y           Z
 ---------------------------------------------------------------------
      1          6           0       -4.383713   -0.464103   -0.048413
      2          6           0       -2.893655   -0.694314   -0.102583
      3          6           0       -2.382059   -1.987780   -0.360460
      4          6           0       -1.036529   -2.240829   -0.348749
      5         17           0       -0.629394   -3.937252   -0.793381
      6          6           0       -0.043875   -1.234263   -0.098082
      7          6           0        1.368452   -1.520958    0.009095
      8          8           0        1.863100   -2.717853    0.016183
      9          6           0        2.238361   -0.375094    0.118310
     10          6           0        3.647839   -0.569723    0.168201
     11          6           0        4.532077    0.481006    0.261422
     12          6           0        4.037300    1.813085    0.317744
     13          6           0        2.680423    2.037665    0.279472
     14          6           0        1.738419    0.972460    0.182372
     15          6           0        0.334682    1.260967    0.168075
     16          8           0       -0.070239    2.513675    0.244778
     17          6           0       -0.559573    0.138394    0.060388
     18          6           0       -1.997998    0.348383    0.101323
     19          7           0       -2.490265    1.615701    0.410255
     20          1           0       -4.702035   -0.060134    0.921356
     21          1           0       -4.728950    0.247882   -0.810851
     22          1           0       -4.927033   -1.397360   -0.211888
     23          1           0       -3.074487   -2.794056   -0.574630
     24          1           0        4.008148   -1.590894    0.123680
     25          1           0        5.601782    0.297041    0.290710
     26          1           0        4.729051    2.646701    0.392978
     27          1           0        2.286488    3.046128    0.324608
     28          1           0       -1.748830    2.326351    0.314509
     29          1           0       -3.397487    1.839173    0.026646
 ---------------------------------------------------------------------

 SCF Done:  E(UB3LYP) =  -1243.51004017     A.U. after    2 cycles

 Alpha  occ. eigenvalues -- -101.52377 -19.02358 -19.01392 -14.28016 -10.19904
 Alpha  occ. eigenvalues --  -10.18794 -10.17787 -10.17783 -10.15560 -10.15119
 Alpha  occ. eigenvalues --  -10.15016 -10.14990 -10.14920 -10.14875 -10.14673
 Alpha  occ. eigenvalues --  -10.14642 -10.14637 -10.13785 -10.13684  -9.43845
 Alpha  occ. eigenvalues --   -7.20267  -7.19375  -7.19293  -0.93916  -0.93136
 Alpha  occ. eigenvalues --   -0.88667  -0.84668  -0.82585  -0.79209  -0.76438
 Alpha  occ. eigenvalues --   -0.72521  -0.72293  -0.69541  -0.67454  -0.63252
 Alpha  occ. eigenvalues --   -0.60480  -0.58896  -0.55123  -0.52799  -0.52038
 Alpha  occ. eigenvalues --   -0.48900  -0.47989  -0.45018  -0.43888  -0.42996
 Alpha  occ. eigenvalues --   -0.41802  -0.41330  -0.40909  -0.39789  -0.39455
 Alpha  occ. eigenvalues --   -0.38309  -0.37217  -0.36386  -0.35910  -0.35255
 Alpha  occ. eigenvalues --   -0.35114  -0.34238  -0.33310  -0.32072  -0.31286
 Alpha  occ. eigenvalues --   -0.30503  -0.30240  -0.28963  -0.27068  -0.22920
 Alpha  occ. eigenvalues --   -0.22366  -0.21627  -0.20511  -0.18924  -0.18526
 Alpha  occ. eigenvalues --   -0.10691
 Alpha virt. eigenvalues --   -0.02355  -0.00147   0.00021   0.00537   0.01326
 Alpha virt. eigenvalues --    0.02012   0.02334   0.02404   0.02934   0.03892
 Alpha virt. eigenvalues --    0.04273   0.04545   0.05290   0.05485   0.06510

  Beta  occ. eigenvalues -- -101.52377 -19.02358 -19.01392 -14.28016 -10.19904
  Beta  occ. eigenvalues --  -10.18794 -10.17787 -10.17783 -10.15560 -10.15119
  Beta  occ. eigenvalues --  -10.15016 -10.14990 -10.14920 -10.14875 -10.14673
  Beta  occ. eigenvalues --  -10.14642 -10.14637 -10.13785 -10.13684  -9.43845
  Beta  occ. eigenvalues --   -7.20267  -7.19375  -7.19293  -0.93916  -0.93136
  Beta  occ. eigenvalues --   -0.88667  -0.84668  -0.82585  -0.79209  -0.76438
  Beta  occ. eigenvalues --   -0.72521  -0.72293  -0.69541  -0.67454  -0.63252
  Beta  occ. eigenvalues --   -0.60480  -0.58896  -0.55123  -0.52799  -0.52038
  Beta  occ. eigenvalues --   -0.48900  -0.47989  -0.45018  -0.43888  -0.42996
  Beta  occ. eigenvalues --   -0.41802  -0.41330  -0.40909  -0.39789  -0.39455
  Beta  occ. eigenvalues --   -0.38309  -0.37217  -0.36386  -0.35910  -0.35255
  Beta  occ. eigenvalues --   -0.35114  -0.34238  -0.33310  -0.32072  -0.31286
  Beta  occ. eigenvalues --   -0.30503  -0.30240  -0.28963  -0.27068  -0.22920
  Beta  occ. eigenvalues --   -0.22366  -0.21627  -0.20511  -0.18924  -0.18526
  Beta  occ. eigenvalues --   -0.10691
  Beta virt. eigenvalues --   -0.02355  -0.00147   0.00021   0.00537   0.01326
  Beta virt. eigenvalues --    0.02012   0.02334   0.02404   0.02934   0.03892
  Beta virt. eigenvalues --    0.04273   0.04545   0.05290   0.05485   0.06510

 Mulliken charges and spin densities:
               1          2
     1  C   -0.493774   0.000000
     2  C    0.098911   0.000000
     3  C   -0.694209  -0.000000
     4  C    0.757788   0.000000
     5  Cl   0.302213  -0.000000
     6  C    0.433128   0.000000
     7  C   -1.405891  -0.000000
     8  O   -0.563284   0.000000
     9  C    0.041333   0.000000
    10  C    0.047338   0.000000
    11  C   -0.441527   0.000000
    12  C   -0.567704   0.000000
    13  C    0.042031  -0.000000
    14  C   -0.161733  -0.000000
    15  C   -0.485000   0.000000
    16  O   -0.634137  -0.000000
    17  C    0.241278  -0.000000
    18  C    0.109151   0.000000
    19  N   -0.435691  -0.000000
    20  H    0.159928   0.000000
    21  H    0.157471   0.000000
    22  H    0.157352   0.000000
    23  H    0.156744   0.000000
    24  H    0.144028  -0.000000
    25  H    0.158921   0.000000
    26  H    0.157100   0.000000
    27  H    0.150259   0.000000
    28  H    0.320696  -0.000000
    29  H    0.247279   0.000000
 Sum of Mulliken charges =  -2.00000   0.00000

 Dipole moment (field-independent basis, Debye):
    X=             -8.2714    Y=              5.6939    Z=             -1.1848  Tot=             10.1114
 Quadrupole moment (field-independent basis, Debye-Ang):
   XX=           -148.9665   YY=           -187.5208   ZZ=           -132.7991
   XY=              9.3833   XZ=              1.6393   YZ=             -6.5792

  Exact polarizability: 589.941  42.436 450.744  17.209  35.093 185.233
 Approx polarizability: 642.426  33.649 528.687  18.824  38.612 206.294

                      1                      2                      3
                      A                      A                      A
 Frequencies --     49.7323                58.7502                93.1642
 Red. masses --      7.3474                 6.9830                 3.9660
 Frc consts  --      0.0107                 0.0142                 0.0203
 IR Inten    --      0.6357                17.4114                 5.0897

                      4                      5                      6
                      A                      A                      A
 Frequencies --    139.2225               150.1988               176.4072
 Red. masses --      4.3389                 5.1139                 9.2098
 Frc consts  --      0.0496                 0.0680                 0.1689
 IR Inten    --      0.9278                 1.2929                14.8831

                      7                      8                      9
                      A                      A                      A
 Frequencies --    182.6075               186.6591               238.4543
 Red. masses --      1.4907                 2.6048                 4.4718
 Frc consts  --      0.0293                 0.0535                 0.1498
 IR Inten    --      1.9710                 1.5097                 6.9089

                     10                     11                     12
                      A                      A                      A
 Frequencies --    278.5108               296.5322               319.4930
 Red. masses --      4.6379                 4.7902                 8.7999
 Frc consts  --      0.2120                 0.2482                 0.5292
 IR Inten    --      0.5944                 5.8509                 8.8826

                     13                     14                     15
                      A                      A                      A
 Frequencies --    333.9426               350.7745               373.1927
 Red. masses --      5.8027                 5.8316                 6.9028
 Frc consts  --      0.3813                 0.4228                 0.5664
 IR Inten    --     15.1101                 0.2373                14.3346

                     16                     17                     18
                      A                      A                      A
 Frequencies --    392.9286               398.6880               423.5483
 Red. masses --      6.9405                 6.8990                 5.3901
 Frc consts  --      0.6313                 0.6461                 0.5697
 IR Inten    --      5.5258                 0.8824                53.5407

                     19                     20                     21
                      A                      A                      A
 Frequencies --    442.8806               459.4945               498.4757
 Red. masses --      2.0515                 1.8787                 5.4798
 Frc consts  --      0.2371                 0.2337                 0.8022
 IR Inten    --    110.7223               206.8242                12.6790

                     22                     23                     24
                      A                      A                      A
 Frequencies --    503.0682               511.3407               573.3963
 Red. masses --      7.9458                 3.7572                 6.1712
 Frc consts  --      1.1848                 0.5788                 1.1955
 IR Inten    --      6.3161                55.5821                77.5985

                     25                     26                     27
                      A                      A                      A
 Frequencies --    578.4857               625.0896               650.7669
 Red. masses --      4.8579                 4.7787                 4.8689
 Frc consts  --      0.9578                 1.1001                 1.2149
 IR Inten    --     16.2526                 1.6870                 5.7217

                     28                     29                     30
                      A                      A                      A
 Frequencies --    667.2751               706.1643               714.6619
 Red. masses --      5.1424                 3.1185                 6.8505
 Frc consts  --      1.3490                 0.9162                 2.0615
 IR Inten    --      7.8375                40.7951                64.4497

                     31                     32                     33
                      A                      A                      A
 Frequencies --    738.8676               775.5400               783.0571
 Red. masses --      3.8908                 1.9522                 5.9353
 Frc consts  --      1.2515                 0.6918                 2.1443
 IR Inten    --     20.7732               117.9110               268.4740

                     34                     35                     36
                      A                      A                      A
 Frequencies --    796.5302               806.9515               841.2297
 Red. masses --      3.6249                 3.1249                 2.0050
 Frc consts  --      1.3551                 1.1989                 0.8360
 IR Inten    --     17.2802                81.0450                98.8678

                     37                     38                     39
                      A                      A                      A
 Frequencies --    844.0638               857.1544               901.3362
 Red. masses --      1.3588                 1.6244                 7.0946
 Frc consts  --      0.5704                 0.7032                 3.3959
 IR Inten    --     38.7408                 0.4108                24.6847

                     40                     41                     42
                      A                      A                      A
 Frequencies --    979.7070               980.7851               990.3941
 Red. masses --      1.3310                 2.5387                 1.2634
 Frc consts  --      0.7527                 1.4388                 0.7301
 IR Inten    --      3.4568                63.6706                 1.6639

                     43                     44                     45
                      A                      A                      A
 Frequencies --   1001.1498              1020.6176              1041.4209
 Red. masses --      3.4956                 1.9875                 2.2142
 Frc consts  --      2.0643                 1.2198                 1.4149
 IR Inten    --     78.8539                90.5739               360.9159

                     46                     47                     48
                      A                      A                      A
 Frequencies --   1046.1186              1101.9784              1122.8567
 Red. masses --      1.5021                 2.3079                 1.5832
 Frc consts  --      0.9685                 1.6513                 1.1760
 IR Inten    --     48.5366               209.0852               381.0320

                     49                     50                     51
                      A                      A                      A
 Frequencies --   1159.8782              1178.2998              1200.5760
 Red. masses --      3.1399                 1.8006                 2.1878
 Frc consts  --      2.4888                 1.4729                 1.8579
 IR Inten    --    144.0980               448.6442               505.7113

                     52                     53                     54
                      A                      A                      A
 Frequencies --   1216.8870              1245.6665              1248.3714
 Red. masses --      2.4169                 7.0928                 2.2377
 Frc consts  --      2.1087                 6.4844                 2.0546
 IR Inten    --    259.1792                84.0237               134.1122

                     55                     56                     57
                      A                      A                      A
 Frequencies --   1278.5569              1339.7039              1346.5777
 Red. masses --      3.1177                 2.6065                 7.6318
 Frc consts  --      3.0028                 2.7563                 8.1534
 IR Inten    --     74.5846               758.3219               681.3092

                     58                     59                     60
                      A                      A                      A
 Frequencies --   1363.8414              1400.3414              1416.0294
 Red. masses --      2.6111                 1.7422                 2.2102
 Frc consts  --      2.8616                 2.0129                 2.6111
 IR Inten    --    939.2063                 6.7153               174.8290

                     61                     62                     63
                      A                      A                      A
 Frequencies --   1431.6338              1441.8535              1465.1293
 Red. masses --      5.9068                 4.2971                 2.2776
 Frc consts  --      7.1329                 5.2635                 2.8805
 IR Inten    --     89.1777               700.2324                57.8737

                     64                     65                     66
                      A                      A                      A
 Frequencies --   1473.2442              1488.2394              1494.8459
 Red. masses --      1.0669                 4.1943                 1.3401
 Frc consts  --      1.3643                 5.4734                 1.7644
 IR Inten    --     12.4836                12.3341                 7.7237

                     67                     68                     69
                      A                      A                      A
 Frequencies --   1528.4945              1571.5126              1583.2977
 Red. masses --      3.8212                 2.0041                 2.8139
 Frc consts  --      5.2599                 2.9161                 4.1560
 IR Inten    --    211.7328               198.2913               108.2534

                     70                     71                     72
                      A                      A                      A
 Frequencies --   1608.1431              1610.0622              2978.6905
 Red. masses --      4.9260                 4.1344                 1.0446
 Frc consts  --      7.5057                 6.3147                 5.4609
 IR Inten    --      9.0779               128.0937               201.9538

                     73                     74                     75
                      A                      A                      A
 Frequencies --   3010.9953              3086.5521              3139.5512
 Red. masses --      1.0960                 1.0949                 1.0851
 Frc consts  --      5.8541                 6.1455                 6.3015
 IR Inten    --     74.9633                44.7141                29.9534

                     76                     77                     78
                      A                      A                      A
 Frequencies --   3155.8854              3167.2369              3179.7804
 Red. masses --      1.0905                 1.0899                 1.0727
 Frc consts  --      6.3991                 6.4419                 6.3904
 IR Inten    --     54.6677                56.9593               466.3415

                     79                     80                     81
                      A                      A                      A
 Frequencies --   3181.2895              3184.5363              3604.2878
 Red. masses --      1.0894                 1.0919                 1.0809
 Frc consts  --      6.4961                 6.5244                 8.2731
 IR Inten    --     95.6908                59.6276                32.4289

 - Thermochemistry -
 -------------------
 Temperature   298.150 Kelvin.  Pressure   1.00000 Atm.
 Atom     1 has atomic number  6 and mass  12.00000

 Molecular mass:   271.04001 amu.
 Principal axes and moments of inertia in atomic units:
                           1         2         3
     Eigenvalues --  3472.448256121.413629540.77145
           X            0.91622  -0.39976  -0.02711
           Y            0.39163   0.90776  -0.15031
           Z            0.08470   0.12710   0.98827
 This molecule is an asymmetric top.
 Rotational symmetry number  1.
 Warning -- assumption of classical behavior for rotation
           may cause significant error
 Rotational temperatures (Kelvin)      0.02494     0.01415     0.00908
 Rotational constants (GHZ):           0.51973     0.29482     0.18916
 Zero-point vibrational energy     548988.2 (Joules/Mol)
                                  131.21132 (Kcal/Mol)
 Warning -- explicit consideration of  25 degrees of freedom as
           vibrations may cause significant error
 Vibrational temperatures:     71.55    84.53   134.04   200.31   216.10
          (Kelvin)            253.81   262.73   268.56   343.08   400.71
                              426.64   459.68   480.47   504.69   536.94
                              565.34   573.62   609.39   637.21   661.11
                              717.20   723.80   735.71   824.99   832.31
                              899.36   936.31   960.06  1016.01  1028.24
                             1063.07  1115.83  1126.64  1146.03  1161.02
                             1210.34  1214.42  1233.25  1296.82  1409.58
                             1411.13  1424.96  1440.43  1468.44  1498.37
                             1505.13  1585.50  1615.54  1668.81  1695.31
                             1727.36  1750.83  1792.24  1796.13  1839.56
                             1927.54  1937.43  1962.26  2014.78  2037.35
                             2059.80  2074.51  2107.99  2119.67  2141.24
                             2150.75  2199.16  2261.06  2278.01  2313.76
                             2316.52  4285.67  4332.15  4440.86  4517.11
                             4540.62  4556.95  4574.99  4577.17  4581.84
                             5185.77

 Zero-point correction=                           0.209099 (Hartree/Particle)
 Thermal correction to Energy=                    0.224504
 Thermal correction to Enthalpy=                  0.225448
 Thermal correction to Gibbs Free Energy=         0.166833
 Sum of electronic and zero-point Energies=          -1243.300942
 Sum of electronic and thermal Energies=             -1243.285537
 Sum of electronic and thermal Enthalpies=           -1243.284592
 Sum of electronic and thermal Free Energies=        -1243.343208

                     E (Thermal)             CV                S
                      KCal/Mol        Cal/Mol-Kelvin    Cal/Mol-Kelvin
 Total                  140.878             61.702            123.366
 Electronic               0.000              0.000              0.000
 Translational            0.889              2.981             42.690
 Rotational               0.889              2.981             33.672
 Vibrational            139.101             55.740             47.004
 Vibration     1          0.595              1.978              4.828
 Vibration     2          0.596              1.974              4.499
 Vibration     3          0.602              1.954              3.593
 Vibration     4          0.615              1.914              2.815
 Vibration     5          0.618              1.902              2.670
 Vibration     6          0.628              1.871              2.366
 Vibration     7          0.630              1.863              2.302
 Vibration     8          0.632              1.858              2.261
 Vibration     9          0.656              1.782              1.814
 Vibration    10          0.679              1.713              1.543
 Vibration    11          0.690              1.680              1.436
 Vibration    12          0.705              1.636              1.313
 Vibration    13          0.715              1.608              1.241
 Vibration    14          0.728              1.574              1.163
 Vibration    15          0.745              1.527              1.067
 Vibration    16          0.760              1.485              0.989
 Vibration    17          0.765              1.473              0.967
 Vibration    18          0.786              1.419              0.880
 Vibration    19          0.803              1.377              0.818
 Vibration    20          0.817              1.340              0.768
 Vibration    21          0.854              1.253              0.662
 Vibration    22          0.858              1.243              0.650
 Vibration    23          0.866              1.225              0.630
 Vibration    24          0.930              1.089              0.498
 Vibration    25          0.935              1.078              0.488

 Optimization completed.
    -- Stationary point found.
 Normal termination of Gaussian 16 at Sat Feb 10 21:59:48 2024.
