 Gaussian 16, Revision A.03,
 Gaussian 16:  ES64L-G16RevA.03 25-Dec-2016

 ----------------------------------------------------------------------
 #P UB3LYP/6-311++G(d,p) nosym opt freq SCRF=(PCM,Solvent=n,n-DiMethylF
 ormamide)
 ----------------------------------------------------------------------

 -------
 Reduced
 -------
 Symbolic Z-matrix:
 Charge = -2 Multiplicity = 1

 SCF Done:  E(UB3LYP) =  -574.827489583     A.U. after   17 cycles
 SCF Done:  E(UB3LYP) =  -574.828136248     A.U. after   13 cycles
 SCF Done:  E(UB3LYP) =  -574.828359841     A.U. after   14 cycles
 SCF Done:  E(UB3LYP) =  -574.828378106     A.U. after   12 cycles
 SCF Done:  E(UB3LYP) =  -574.828380083     A.U. after   11 cycles
 SCF Done:  E(UB3LYP) =  -574.828383389     A.U. after   10 cycles
 SCF Done:  E(UB3LYP) =  -574.828384098     A.U. after   10 cycles
 SCF Done:  E(UB3LYP) =  -574.828384505     A.U. after    9 cycles
 SCF Done:  E(UB3LYP) =  -574.828384567     A.U. after    8 cycles
 Optimization completed.
    -- Stationary point found.
 Normal termination of Gaussian 16 at Sun Feb 11 02:17:47 2024.

 ----------------------------------------------------------------------
 #P Geom=AllCheck Guess=TCheck SCRF=Check GenChk UB3LYP/6-311++G(d,p) F
 req
 ----------------------------------------------------------------------

 Structure from the checkpoint file:  "237-an.chk"
 -------
 Reduced
 -------
 Charge = -2 Multiplicity = 1

                          Input orientation:
 ---------------------------------------------------------------------
 Center     Atomic      Atomic             Coordinates (Angstroms)
 Number     Number       Type             X           Y           Z
 ---------------------------------------------------------------------
      1          6           0        5.759276   -5.271705    1.254098
      2          6           0        6.730495   -5.142276    0.290108
      3          6           0        6.605446   -4.125513   -0.681881
      4          6           0        4.633848   -4.408225    1.303117
      5          6           0        4.503785   -3.348862    0.312672
      6          6           0        5.533313   -3.244338   -0.689989
      7          6           0        3.651657   -4.632485    2.355393
      8          6           0        2.572465   -3.736654    2.349661
      9          6           0        2.438418   -2.698932    1.404702
     10          6           0        3.354127   -2.441343    0.364102
     11          8           0        3.783669   -5.605996    3.229299
     12          8           0        3.176435   -1.457875   -0.482029
     13          1           0        5.821421   -6.043776    2.012349
     14          6           0        5.519547   -2.206601   -1.795778
     15          1           0        7.585102   -5.812367    0.267710
     16          1           0        7.368661   -4.028115   -1.449035
     17          1           0        1.807498   -3.857501    3.116303
     18          1           0        1.573614   -2.039434    1.467522
     19          1           0        5.541401   -1.189198   -1.402186
     20          1           0        4.614356   -2.269569   -2.401257
     21          1           0        6.389767   -2.351648   -2.444190
 ---------------------------------------------------------------------

 SCF Done:  E(UB3LYP) =  -574.828384567     A.U. after    1 cycles

 Alpha  occ. eigenvalues --  -19.00922 -19.00567 -10.16673 -10.16288 -10.15857
 Alpha  occ. eigenvalues --  -10.14508 -10.14160 -10.14094 -10.13919 -10.13889
 Alpha  occ. eigenvalues --  -10.13597 -10.11619 -10.11408  -0.91733  -0.91311
 Alpha  occ. eigenvalues --   -0.82350  -0.76078  -0.74258  -0.69843  -0.66174
 Alpha  occ. eigenvalues --   -0.63224  -0.57681  -0.57105  -0.50844  -0.46896
 Alpha  occ. eigenvalues --   -0.46171  -0.43494  -0.41278  -0.39628  -0.38813
 Alpha  occ. eigenvalues --   -0.37644  -0.36997  -0.35571  -0.35364  -0.34606
 Alpha  occ. eigenvalues --   -0.33158  -0.31145  -0.30801  -0.30293  -0.29910
 Alpha  occ. eigenvalues --   -0.22045  -0.21508  -0.21149  -0.18999  -0.18417
 Alpha  occ. eigenvalues --   -0.10920
 Alpha virt. eigenvalues --   -0.00093   0.00191   0.01062   0.01333   0.01448
 Alpha virt. eigenvalues --    0.02938   0.03331   0.03935   0.04991   0.05446
 Alpha virt. eigenvalues --    0.06421   0.06702   0.07390   0.08380   0.08920

  Beta  occ. eigenvalues --  -19.00922 -19.00567 -10.16673 -10.16288 -10.15857
  Beta  occ. eigenvalues --  -10.14508 -10.14160 -10.14094 -10.13919 -10.13889
  Beta  occ. eigenvalues --  -10.13597 -10.11619 -10.11408  -0.91733  -0.91311
  Beta  occ. eigenvalues --   -0.82350  -0.76078  -0.74258  -0.69843  -0.66174
  Beta  occ. eigenvalues --   -0.63224  -0.57681  -0.57105  -0.50844  -0.46896
  Beta  occ. eigenvalues --   -0.46171  -0.43494  -0.41278  -0.39628  -0.38813
  Beta  occ. eigenvalues --   -0.37644  -0.36997  -0.35571  -0.35364  -0.34606
  Beta  occ. eigenvalues --   -0.33158  -0.31145  -0.30801  -0.30293  -0.29910
  Beta  occ. eigenvalues --   -0.22045  -0.21508  -0.21149  -0.18999  -0.18417
  Beta  occ. eigenvalues --   -0.10920
  Beta virt. eigenvalues --   -0.00093   0.00191   0.01062   0.01333   0.01448
  Beta virt. eigenvalues --    0.02938   0.03331   0.03935   0.04991   0.05446
  Beta virt. eigenvalues --    0.06421   0.06702   0.07390   0.08380   0.08920

 Mulliken charges and spin densities:
               1          2
     1  C    0.244638   0.000000
     2  C   -0.566682  -0.000000
     3  C   -0.585504  -0.000000
     4  C    0.209075  -0.000000
     5  C    0.174408  -0.000000
     6  C    0.657851   0.000000
     7  C   -0.378741   0.000000
     8  C   -0.074817   0.000000
     9  C   -0.189349   0.000000
    10  C   -0.688700  -0.000000
    11  O   -0.741647   0.000000
    12  O   -0.694689   0.000000
    13  H    0.147385   0.000000
    14  C   -0.440782  -0.000000
    15  H    0.162721  -0.000000
    16  H    0.101138  -0.000000
    17  H    0.123225  -0.000000
    18  H    0.123252  -0.000000
    19  H    0.145639  -0.000000
    20  H    0.146194  -0.000000
    21  H    0.125386   0.000000
 Sum of Mulliken charges =  -2.00000  -0.00000

 Dipole moment (field-independent basis, Debye):
    X=            -35.3566    Y=             35.1348    Z=            -12.8233  Tot=             51.4682
 Quadrupole moment (field-independent basis, Debye-Ang):
   XX=           -223.0663   YY=           -248.7090   ZZ=           -130.9374
   XY=            135.7892   XZ=            -49.3402   YZ=             74.4773

  Exact polarizability: 279.658 -61.797 235.000 -63.233 -55.564 241.121
 Approx polarizability: 312.843 -72.957 264.438 -69.977 -64.518 267.525

                      1                      2                      3
                      A                      A                      A
 Frequencies --     65.8372               107.2198               188.7729
 Red. masses --      3.5696                 6.1016                 4.2068
 Frc consts  --      0.0091                 0.0413                 0.0883
 IR Inten    --      1.7240                20.3327                 3.3883

                      4                      5                      6
                      A                      A                      A
 Frequencies --    229.1809               237.7345               278.2932
 Red. masses --      1.2547                 3.2068                 4.2775
 Frc consts  --      0.0388                 0.1068                 0.1952
 IR Inten    --      4.0706                 3.3190                14.5046

                      7                      8                      9
                      A                      A                      A
 Frequencies --    354.3879               357.8447               361.9863
 Red. masses --      5.5514                 5.9732                 5.7783
 Frc consts  --      0.4108                 0.4507                 0.4461
 IR Inten    --     14.1367                 1.6786                 1.5677

                     10                     11                     12
                      A                      A                      A
 Frequencies --    464.7283               470.7988               478.3801
 Red. masses --      6.9567                 6.1759                 3.7508
 Frc consts  --      0.8852                 0.8065                 0.5057
 IR Inten    --      0.3110                 1.4850                 0.0869

                     13                     14                     15
                      A                      A                      A
 Frequencies --    498.9884               528.9125               616.2619
 Red. masses --      3.2152                 6.6631                 4.7474
 Frc consts  --      0.4717                 1.0982                 1.0623
 IR Inten    --      0.1724                 1.3186                 0.4345

                     16                     17                     18
                      A                      A                      A
 Frequencies --    624.4302               647.1909               664.2514
 Red. masses --      5.5030                 2.5612                 2.8274
 Frc consts  --      1.2642                 0.6321                 0.7350
 IR Inten    --      2.7020                 0.1604                 1.4182

                     19                     20                     21
                      A                      A                      A
 Frequencies --    759.5864               763.9724               795.3746
 Red. masses --      7.1993                 1.3977                 5.1094
 Frc consts  --      2.4473                 0.4806                 1.9044
 IR Inten    --    246.0932               141.5266                19.8967

                     22                     23                     24
                      A                      A                      A
 Frequencies --    809.5046               814.5231               874.2670
 Red. masses --      3.6118                 2.0882                 1.4796
 Frc consts  --      1.3945                 0.8163                 0.6663
 IR Inten    --      8.5119                56.1960                 0.2523

                     25                     26                     27
                      A                      A                      A
 Frequencies --    881.2623               900.6900               970.1286
 Red. masses --      1.3590                 4.4969                 1.2948
 Frc consts  --      0.6218                 2.1494                 0.7180
 IR Inten    --      0.1229               113.9275                 2.0224

                     28                     29                     30
                      A                      A                      A
 Frequencies --   1012.8396              1040.5381              1053.2538
 Red. masses --      1.5816                 3.3705                 1.5324
 Frc consts  --      0.9559                 2.1501                 1.0016
 IR Inten    --     16.0386               169.6136                 3.5011

                     31                     32                     33
                      A                      A                      A
 Frequencies --   1094.1998              1125.2564              1150.5860
 Red. masses --      1.6243                 1.6702                 2.4584
 Frc consts  --      1.1458                 1.2460                 1.9175
 IR Inten    --     17.4801                70.5800               106.4161

                     34                     35                     36
                      A                      A                      A
 Frequencies --   1167.4966              1215.1225              1226.8238
 Red. masses --      1.7424                 3.2958                 2.4280
 Frc consts  --      1.3993                 2.8672                 2.1531
 IR Inten    --     64.0397               194.9824               451.3934

                     37                     38                     39
                      A                      A                      A
 Frequencies --   1283.7738              1297.3751              1348.3911
 Red. masses --      3.2474                 2.7881                 7.0427
 Frc consts  --      3.1533                 2.7650                 7.5443
 IR Inten    --    597.6506               366.0586                60.9831

                     40                     41                     42
                      A                      A                      A
 Frequencies --   1357.5290              1388.4761              1408.2928
 Red. masses --      4.4335                 2.6661                 1.2468
 Frc consts  --      4.8139                 3.0283                 1.4569
 IR Inten    --   1040.6359               134.8582                 6.0855

                     43                     44                     45
                      A                      A                      A
 Frequencies --   1443.8935              1456.6759              1479.0356
 Red. masses --      2.2178                 1.0508                 1.1260
 Frc consts  --      2.7243                 1.3137                 1.4512
 IR Inten    --     35.2473                 6.5387                36.7523

                     46                     47                     48
                      A                      A                      A
 Frequencies --   1514.8004              1533.2616              1597.1890
 Red. masses --      4.6027                 4.6148                 6.9850
 Frc consts  --      6.2226                 6.3920                10.4985
 IR Inten    --    138.4140               463.5465                18.2816

                     49                     50                     51
                      A                      A                      A
 Frequencies --   1604.4345              3018.6519              3088.0908
 Red. masses --      5.1113                 1.0434                 1.0933
 Frc consts  --      7.7523                 5.6017                 6.1430
 IR Inten    --      7.8539               115.1021                39.3934

                     52                     53                     54
                      A                      A                      A
 Frequencies --   3096.6004              3099.5213              3123.4886
 Red. masses --      1.0991                 1.0831                 1.0907
 Frc consts  --      6.2098                 6.1307                 6.2696
 IR Inten    --     31.1489               119.0474               167.6181

                     55                     56                     57
                      A                      A                      A
 Frequencies --   3130.3717              3148.5035              3171.1139
 Red. masses --      1.0853                 1.0908                 1.0931
 Frc consts  --      6.2660                 6.3707                 6.4763
 IR Inten    --     39.7480                62.3516                50.3098

 - Thermochemistry -
 -------------------
 Temperature   298.150 Kelvin.  Pressure   1.00000 Atm.
 Atom     1 has atomic number  6 and mass  12.00000

 Molecular mass:   172.05243 amu.
 Principal axes and moments of inertia in atomic units:
                           1         2         3
     Eigenvalues --  1595.224862045.067383629.12910
           X           -0.43726   0.74050   0.51035
           Y           -0.41148  -0.66933   0.61861
           Z            0.79968   0.06049   0.59737
 This molecule is an asymmetric top.
 Rotational symmetry number  1.
 Warning -- assumption of classical behavior for rotation
           may cause significant error
 Rotational temperatures (Kelvin)      0.05430     0.04235     0.02387
 Rotational constants (GHZ):           1.13134     0.88248     0.49729
 Zero-point vibrational energy     409243.1 (Joules/Mol)
                                   97.81144 (Kcal/Mol)
 Warning -- explicit consideration of  15 degrees of freedom as
           vibrations may cause significant error
 Vibrational temperatures:     94.73   154.27   271.60   329.74   342.05
          (Kelvin)            400.40   509.89   514.86   520.82   668.64
                              677.37   688.28   717.93   760.99   886.66
                              898.42   931.16   955.71  1092.88  1099.19
                             1144.37  1164.70  1171.92  1257.88  1267.94
                             1295.89  1395.80  1457.25  1497.10  1515.40
                             1574.31  1618.99  1655.44  1679.77  1748.29
                             1765.13  1847.06  1866.63  1940.03  1953.18
                             1997.71  2026.22  2077.44  2095.83  2128.00
                             2179.46  2206.02  2298.00  2308.42  4343.17
                             4443.07  4455.32  4459.52  4494.00  4503.91
                             4529.99  4562.53

 Zero-point correction=                           0.155872 (Hartree/Particle)
 Thermal correction to Energy=                    0.165988
 Thermal correction to Enthalpy=                  0.166932
 Thermal correction to Gibbs Free Energy=         0.120341
 Sum of electronic and zero-point Energies=           -574.672512
 Sum of electronic and thermal Energies=              -574.662396
 Sum of electronic and thermal Enthalpies=            -574.661452
 Sum of electronic and thermal Free Energies=         -574.708044

                     E (Thermal)             CV                S
                      KCal/Mol        Cal/Mol-Kelvin    Cal/Mol-Kelvin
 Total                  104.159             40.898             98.060
 Electronic               0.000              0.000              0.000
 Translational            0.889              2.981             41.335
 Rotational               0.889              2.981             30.849
 Vibrational            102.382             34.937             25.876
 Vibration     1          0.597              1.971              4.274
 Vibration     2          0.606              1.943              3.319
 Vibration     3          0.633              1.855              2.240
 Vibration     4          0.652              1.796              1.885
 Vibration     5          0.656              1.783              1.820
 Vibration     6          0.679              1.714              1.544
 Vibration     7          0.730              1.566              1.147
 Vibration     8          0.733              1.559              1.131
 Vibration     9          0.736              1.551              1.114
 Vibration    10          0.822              1.328              0.752
 Vibration    11          0.828              1.315              0.735
 Vibration    12          0.835              1.298              0.714
 Vibration    13          0.854              1.252              0.661
 Vibration    14          0.884              1.186              0.590
 Vibration    15          0.976              0.997              0.423

 Optimization completed.
    -- Stationary point found.
 Normal termination of Gaussian 16 at Sun Feb 11 02:42:42 2024.
