 Q-Chem 5.4, Q-Chem, Inc., Pleasanton, CA (2021)
 Q-Chem 5.4.0 for Intel X86 EM64T Linux

User input:
--------------------------------------------------------------
$molecule
-1 2
O                  1.6719590000      2.4302580000      0.3914840000
C                  1.4049020000      1.2187630000      0.2031000000
C                  0.0186510000      0.7072620000      0.2067150000
C                 -1.0396590000      1.6075910000      0.4285670000
C                 -2.3570450000      1.1802900000      0.4420520000
C                 -2.6583750000     -0.1802580000      0.2308180000
C                 -1.6366780000     -1.0863630000      0.0103080000
C                 -0.2898610000     -0.6703100000     -0.0069620000
C                  0.7770970000     -1.6266570000     -0.2388910000
O                  0.6264930000     -2.8758510000     -0.4411930000
C                  2.1069530000     -1.0978560000     -0.2358070000
O                  3.1073990000     -2.0147850000     -0.4565920000
C                  2.4259220000      0.2242180000     -0.0321730000
O                  3.7390010000      0.6258730000     -0.0494860000
H                 -0.7819300000      2.6484970000      0.5883570000
H                 -3.1580380000      1.8929790000      0.6152920000
H                 -3.6912670000     -0.5159790000      0.2412810000
H                 -1.8410210000     -2.1384080000     -0.1549610000
H                  2.5988430000     -2.8472260000     -0.5646760000
H                  4.2635740000     -0.1670930000     -0.2180970000
$end

$rem
BASIS  =  6-311++G(d,p)
GUI  =  2
JOB_TYPE  =  SP
METHOD  =  B3LYP
SCF_CONVERGENCE  = 8
SOLVENT_METHOD = sm12
$end

$smx
solvent dimethylformamide
charges CM5
$end

--------------------------------------------------------------

             Standard Nuclear Orientation (Angstroms)
    I     Atom           X                Y                Z
 ----------------------------------------------------------------
    1      O       1.6719590000     2.4302580000     0.3914840000
    2      C       1.4049020000     1.2187630000     0.2031000000
    3      C       0.0186510000     0.7072620000     0.2067150000
    4      C      -1.0396590000     1.6075910000     0.4285670000
    5      C      -2.3570450000     1.1802900000     0.4420520000
    6      C      -2.6583750000    -0.1802580000     0.2308180000
    7      C      -1.6366780000    -1.0863630000     0.0103080000
    8      C      -0.2898610000    -0.6703100000    -0.0069620000
    9      C       0.7770970000    -1.6266570000    -0.2388910000
   10      O       0.6264930000    -2.8758510000    -0.4411930000
   11      C       2.1069530000    -1.0978560000    -0.2358070000
   12      O       3.1073990000    -2.0147850000    -0.4565920000
   13      C       2.4259220000     0.2242180000    -0.0321730000
   14      O       3.7390010000     0.6258730000    -0.0494860000
   15      H      -0.7819300000     2.6484970000     0.5883570000
   16      H      -3.1580380000     1.8929790000     0.6152920000
   17      H      -3.6912670000    -0.5159790000     0.2412810000
   18      H      -1.8410210000    -2.1384080000    -0.1549610000
   19      H       2.5988430000    -2.8472260000    -0.5646760000
   20      H       4.2635740000    -0.1670930000    -0.2180970000
 ----------------------------------------------------------------

   18    -685.8374558868      9.22e-09  Convergence criterion met
 Total energy in the final basis set =     -685.9264750730

                    Orbital Energies (a.u.)
 --------------------------------------------------------------

 Alpha MOs
 -- Occupied --
-19.1542 -19.1540 -19.0866 -19.0777 -10.2284 -10.2268 -10.2264 -10.2229
-10.1826 -10.1822 -10.1818 -10.1816 -10.1804 -10.1789  -1.0786  -1.0538
 -1.0011  -0.9971  -0.8659  -0.8069  -0.7596  -0.7409  -0.6848  -0.6324
 -0.6239  -0.5831  -0.5612  -0.5296  -0.5144  -0.4811  -0.4677  -0.4487
 -0.4424  -0.4336  -0.4185  -0.4150  -0.3961  -0.3959  -0.3902  -0.3760
 -0.3614  -0.3499  -0.3466  -0.3464  -0.2721  -0.2658  -0.2601  -0.2437
 -0.2234  -0.1537

 Beta MOs
 -- Occupied --
-19.1540 -19.1535 -19.0805 -19.0711 -10.2271 -10.2253 -10.2245 -10.2226
-10.1820 -10.1819 -10.1809 -10.1807 -10.1801 -10.1790  -1.0774  -1.0523
 -0.9902  -0.9868  -0.8635  -0.8025  -0.7574  -0.7391  -0.6761  -0.6306
 -0.6215  -0.5808  -0.5594  -0.5280  -0.5124  -0.4789  -0.4660  -0.4412
 -0.4390  -0.4330  -0.4146  -0.4097  -0.3939  -0.3846  -0.3803  -0.3744
 -0.3600  -0.3447  -0.3353  -0.3313  -0.2580  -0.2546  -0.2522  -0.2375
 -0.2136

          Ground-State Mulliken Net Atomic Charges

     Atom                 Charge (a.u.)    Spin (a.u.)
  --------------------------------------------------------
      1 O                    -0.381536       0.243397
      2 C                    -1.494716       0.051349
      3 C                    -1.124879       0.058352
      4 C                    -0.071987       0.019486
      5 C                     0.843512       0.056067
      6 C                     0.804813       0.023849
      7 C                     0.317675       0.048417
      8 C                    -0.426277       0.039304
      9 C                    -0.980701       0.095099
     10 O                    -0.374252       0.224431
     11 C                     0.546489       0.037616
     12 O                    -0.222416       0.006854
     13 C                     0.132139       0.097306
     14 O                    -0.214705       0.012655
     15 H                     0.136336      -0.001438
     16 H                     0.338540      -0.004163
     17 H                     0.356888      -0.002121
     18 H                     0.170495      -0.002610
     19 H                     0.313805      -0.003313
     20 H                     0.330778      -0.000536
  --------------------------------------------------------
  Sum of atomic charges =    -1.000000

                    Cartesian Multipole Moments
 -----------------------------------------------------------------
    Charge (ESU x 10^10)
                -4.8032
    Dipole Moment (Debye)
         X      -5.7748      Y      -1.0322      Z      -0.2201
       Tot       5.8705
    Quadrupole Moments (Debye-Ang)
        XX     -96.3034     XY     -10.2889     YY    -112.4464
        XZ      -1.5889     YZ      -3.8851     ZZ     -86.7220

 Total job time:  347.95s(wall), 2415.07s(cpu)
        *  Thank you very much for using Q-Chem.  Have a nice day.  *
