 Gaussian 16, Revision A.03,
 Gaussian 16:  ES64L-G16RevA.03 25-Dec-2016

 ----------------------------------------------------------------------
 #P UB3LYP/6-311++G(d,p) nosym opt freq SCRF=(PCM,Solvent=n,n-DiMethylF
 ormamide)
 ----------------------------------------------------------------------

 -------
 Reduced
 -------
 Symbolic Z-matrix:
 Charge = -2 Multiplicity = 1

 SCF Done:  E(UB3LYP) =  -917.140444176     A.U. after   18 cycles
 SCF Done:  E(UB3LYP) =  -917.142218329     A.U. after   14 cycles
 SCF Done:  E(UB3LYP) =  -917.141161821     A.U. after   13 cycles
 SCF Done:  E(UB3LYP) =  -917.143138110     A.U. after   13 cycles
 SCF Done:  E(UB3LYP) =  -917.143233983     A.U. after   12 cycles
 SCF Done:  E(UB3LYP) =  -917.143322608     A.U. after   13 cycles
 SCF Done:  E(UB3LYP) =  -917.143353677     A.U. after   11 cycles
 SCF Done:  E(UB3LYP) =  -917.143367102     A.U. after   11 cycles
 SCF Done:  E(UB3LYP) =  -917.143372117     A.U. after   11 cycles
 SCF Done:  E(UB3LYP) =  -917.143375905     A.U. after   10 cycles
 SCF Done:  E(UB3LYP) =  -917.143382855     A.U. after   10 cycles
 SCF Done:  E(UB3LYP) =  -917.143392300     A.U. after   10 cycles
 SCF Done:  E(UB3LYP) =  -917.143405955     A.U. after   10 cycles
 SCF Done:  E(UB3LYP) =  -917.143414932     A.U. after   10 cycles
 SCF Done:  E(UB3LYP) =  -917.143420613     A.U. after   10 cycles
 SCF Done:  E(UB3LYP) =  -917.143422506     A.U. after   10 cycles
 SCF Done:  E(UB3LYP) =  -917.143422557     A.U. after    8 cycles
 SCF Done:  E(UB3LYP) =  -917.143422587     A.U. after    8 cycles
 SCF Done:  E(UB3LYP) =  -917.143422590     A.U. after    7 cycles
 Optimization completed.
    -- Stationary point found.
 Normal termination of Gaussian 16 at Sat Feb 10 19:42:39 2024.

 ----------------------------------------------------------------------
 #P Geom=AllCheck Guess=TCheck SCRF=Check GenChk UB3LYP/6-311++G(d,p) F
 req
 ----------------------------------------------------------------------

 Structure from the checkpoint file:  "144-an.chk"
 -------
 Reduced
 -------
 Charge = -2 Multiplicity = 1

                          Input orientation:
 ---------------------------------------------------------------------
 Center     Atomic      Atomic             Coordinates (Angstroms)
 Number     Number       Type             X           Y           Z
 ---------------------------------------------------------------------
      1          6           0       -2.936158    3.715171    0.233174
      2          6           0       -4.196641    3.169537    0.308324
      3          6           0       -4.360373    1.757624    0.232977
      4          6           0       -1.765826    2.915943    0.079538
      5          6           0       -1.933257    1.475915    0.002169
      6          6           0       -3.255299    0.951492    0.085039
      7          6           0       -0.475738    3.548700    0.007938
      8          6           0        0.634349    2.653418   -0.144198
      9          6           0        0.471098    1.211394   -0.224235
     10          6           0       -0.818210    0.578690   -0.153859
     11          6           0        1.957259    3.182633   -0.224581
     12          6           0        3.036907    2.361111   -0.372009
     13          6           0        2.902133    0.952970   -0.461071
     14          6           0        1.639342    0.414211   -0.384730
     15          8           0       -0.325737    4.842709    0.076605
     16          8           0       -0.965679   -0.712329   -0.226360
     17          1           0       -3.364994   -0.125856    0.027061
     18          1           0        1.503156   -0.659353   -0.449554
     19          1           0       -2.798139    4.789266    0.290119
     20          1           0        2.086100    4.257084   -0.171082
     21          1           0        3.779998    0.329624   -0.588240
     22          1           0       -5.353373    1.322497    0.292530
     23          8           0        4.326121    2.932831   -0.532293
     24          6           0        5.182176    2.935589    0.516960
     25          6           0        6.502670    3.542304    0.126432
     26          8           0        4.906019    2.503590    1.613039
     27          1           0       -5.065322    3.810482    0.425539
     28          1           0        6.348901    4.543860   -0.280336
     29          1           0        6.967881    2.937448   -0.655539
     30          1           0        7.158734    3.589326    0.992874
 ---------------------------------------------------------------------

 SCF Done:  E(UB3LYP) =  -917.143422590     A.U. after    1 cycles

 Alpha  occ. eigenvalues --  -19.17131 -19.11863 -19.01942 -19.01730 -10.31077
 Alpha  occ. eigenvalues --  -10.21399 -10.17757 -10.17509 -10.17271 -10.15613
 Alpha  occ. eigenvalues --  -10.15416 -10.15257 -10.14980 -10.14912 -10.14728
 Alpha  occ. eigenvalues --  -10.14683 -10.14182 -10.13970 -10.13883 -10.13827
 Alpha  occ. eigenvalues --   -1.11179  -1.02897  -0.93212  -0.92693  -0.83471
 Alpha  occ. eigenvalues --   -0.82376  -0.77083  -0.74946  -0.73008  -0.72352
 Alpha  occ. eigenvalues --   -0.70823  -0.64782  -0.62843  -0.60575  -0.57221
 Alpha  occ. eigenvalues --   -0.56297  -0.52809  -0.50870  -0.50075  -0.48980
 Alpha  occ. eigenvalues --   -0.47568  -0.47226  -0.44296  -0.44150  -0.42854
 Alpha  occ. eigenvalues --   -0.41401  -0.41374  -0.40353  -0.39889  -0.39090
 Alpha  occ. eigenvalues --   -0.38184  -0.37582  -0.37204  -0.36878  -0.35667
 Alpha  occ. eigenvalues --   -0.34027  -0.33076  -0.32318  -0.32288  -0.31300
 Alpha  occ. eigenvalues --   -0.30069  -0.29905  -0.28886  -0.23881  -0.22666
 Alpha  occ. eigenvalues --   -0.22289  -0.21710  -0.20102  -0.19548  -0.10948
 Alpha virt. eigenvalues --   -0.03046  -0.00505  -0.00218   0.00118   0.00385
 Alpha virt. eigenvalues --    0.01387   0.01708   0.01850   0.02512   0.03505
 Alpha virt. eigenvalues --    0.03871   0.04288   0.04892   0.05135   0.05625

  Beta  occ. eigenvalues --  -19.17131 -19.11863 -19.01942 -19.01730 -10.31077
  Beta  occ. eigenvalues --  -10.21399 -10.17757 -10.17509 -10.17271 -10.15613
  Beta  occ. eigenvalues --  -10.15416 -10.15257 -10.14980 -10.14912 -10.14728
  Beta  occ. eigenvalues --  -10.14683 -10.14182 -10.13970 -10.13883 -10.13827
  Beta  occ. eigenvalues --   -1.11179  -1.02897  -0.93212  -0.92693  -0.83471
  Beta  occ. eigenvalues --   -0.82376  -0.77083  -0.74946  -0.73008  -0.72352
  Beta  occ. eigenvalues --   -0.70823  -0.64782  -0.62843  -0.60575  -0.57221
  Beta  occ. eigenvalues --   -0.56297  -0.52809  -0.50870  -0.50075  -0.48980
  Beta  occ. eigenvalues --   -0.47568  -0.47226  -0.44296  -0.44150  -0.42854
  Beta  occ. eigenvalues --   -0.41401  -0.41374  -0.40353  -0.39889  -0.39090
  Beta  occ. eigenvalues --   -0.38184  -0.37582  -0.37204  -0.36878  -0.35667
  Beta  occ. eigenvalues --   -0.34027  -0.33076  -0.32318  -0.32288  -0.31300
  Beta  occ. eigenvalues --   -0.30069  -0.29905  -0.28886  -0.23881  -0.22666
  Beta  occ. eigenvalues --   -0.22289  -0.21710  -0.20102  -0.19548  -0.10948
  Beta virt. eigenvalues --   -0.03046  -0.00505  -0.00218   0.00118   0.00385
  Beta virt. eigenvalues --    0.01387   0.01708   0.01850   0.02512   0.03505
  Beta virt. eigenvalues --    0.03871   0.04288   0.04892   0.05135   0.05625

 Mulliken charges and spin densities:
               1          2
     1  C   -0.069799   0.000000
     2  C   -0.489030   0.000000
     3  C   -0.506747  -0.000000
     4  C    0.360338  -0.000000
     5  C    0.219491   0.000000
     6  C   -0.013839   0.000000
     7  C   -0.643313  -0.000000
     8  C    0.337352  -0.000000
     9  C    0.221323  -0.000000
    10  C   -0.389982   0.000000
    11  C    0.049551   0.000000
    12  C   -0.932872  -0.000000
    13  C    0.169438  -0.000000
    14  C    0.096705   0.000000
    15  O   -0.675757   0.000000
    16  O   -0.667719   0.000000
    17  H    0.147439  -0.000000
    18  H    0.158409  -0.000000
    19  H    0.146213   0.000000
    20  H    0.169175  -0.000000
    21  H    0.189565  -0.000000
    22  H    0.158031   0.000000
    23  O   -0.023970  -0.000000
    24  C    0.132125   0.000000
    25  C   -0.534338  -0.000000
    26  O   -0.308966   0.000000
    27  H    0.158968  -0.000000
    28  H    0.183432  -0.000000
    29  H    0.186207   0.000000
    30  H    0.172573   0.000000
 Sum of Mulliken charges =  -2.00000  -0.00000

 Dipole moment (field-independent basis, Debye):
    X=              5.4103    Y=            -19.5246    Z=             -1.6656  Tot=             20.3287
 Quadrupole moment (field-independent basis, Debye-Ang):
   XX=           -137.0837   YY=           -213.9569   ZZ=           -134.5386
   XY=             11.0006   XZ=            -11.0031   YZ=             -5.7854

  Exact polarizability: 589.879  -8.400 390.997 -27.585  12.135 189.936
 Approx polarizability: 634.986 -10.026 462.518 -36.675  13.002 216.604

                      1                      2                      3
                      A                      A                      A
 Frequencies --     26.8539                29.6861                45.2745
 Red. masses --      8.5304                 1.2001                 6.7171
 Frc consts  --      0.0036                 0.0006                 0.0081
 IR Inten    --      1.2934                 3.3196                 9.4751

                      4                      5                      6
                      A                      A                      A
 Frequencies --     76.7075                80.7442               127.0821
 Red. masses --      2.4294                 7.1020                 4.1208
 Frc consts  --      0.0084                 0.0273                 0.0392
 IR Inten    --      6.7218                 7.5937                 0.4431

                      7                      8                      9
                      A                      A                      A
 Frequencies --    157.9480               166.3560               198.4640
 Red. masses --      5.4836                 9.4677                 6.5427
 Frc consts  --      0.0806                 0.1544                 0.1518
 IR Inten    --      2.5020                12.5969                13.4942

                     10                     11                     12
                      A                      A                      A
 Frequencies --    222.6579               260.2858               281.9854
 Red. masses --      6.1534                 4.9807                 7.1327
 Frc consts  --      0.1797                 0.1988                 0.3342
 IR Inten    --      0.6287                 8.9757                 3.0926

                     13                     14                     15
                      A                      A                      A
 Frequencies --    330.6175               361.9346               395.0974
 Red. masses --      5.9885                10.8102                 7.1955
 Frc consts  --      0.3857                 0.8343                 0.6618
 IR Inten    --      2.9441                 2.0277                11.0127

                     16                     17                     18
                      A                      A                      A
 Frequencies --    405.3240               411.8029               433.9633
 Red. masses --      5.2694                 5.2625                 3.8712
 Frc consts  --      0.5100                 0.5258                 0.4295
 IR Inten    --      3.5277                 5.1417                10.3710

                     19                     20                     21
                      A                      A                      A
 Frequencies --    457.2763               479.9246               496.9368
 Red. masses --      5.6244                 3.0179                10.1778
 Frc consts  --      0.6929                 0.4095                 1.4808
 IR Inten    --      6.6267                 0.0962                 1.9615

                     22                     23                     24
                      A                      A                      A
 Frequencies --    532.7697               560.6486               604.7101
 Red. masses --      4.6054                 5.2513                 2.9451
 Frc consts  --      0.7702                 0.9725                 0.6345
 IR Inten    --     11.5282                44.3813                24.2023

                     25                     26                     27
                      A                      A                      A
 Frequencies --    626.8409               634.5575               647.5401
 Red. masses --      4.9400                 5.6670                 5.0890
 Frc consts  --      1.1436                 1.3445                 1.2572
 IR Inten    --      7.6535                 9.4605                28.9422

                     28                     29                     30
                      A                      A                      A
 Frequencies --    681.8408               689.7131               700.3363
 Red. masses --      4.1862                 5.4477                 3.2357
 Frc consts  --      1.1467                 1.5269                 0.9351
 IR Inten    --     44.6981                10.8944                69.6167

                     31                     32                     33
                      A                      A                      A
 Frequencies --    721.3886               762.5042               775.8742
 Red. masses --      4.5168                 2.4393                 2.4024
 Frc consts  --      1.3849                 0.8356                 0.8521
 IR Inten    --      2.7959                15.0166                31.5928

                     34                     35                     36
                      A                      A                      A
 Frequencies --    785.0080               813.2151               849.6602
 Red. masses --      2.1177                 2.7433                 5.1611
 Frc consts  --      0.7689                 1.0689                 2.1953
 IR Inten    --     30.6456                15.6172                54.2633

                     37                     38                     39
                      A                      A                      A
 Frequencies --    856.4925               897.6021               920.8423
 Red. masses --      1.7746                 2.3756                 3.9823
 Frc consts  --      0.7670                 1.1277                 1.9895
 IR Inten    --      1.6345                41.2379                39.8834

                     40                     41                     42
                      A                      A                      A
 Frequencies --    938.8789               976.7901               979.1955
 Red. masses --      3.3913                 1.3457                 1.4087
 Frc consts  --      1.7613                 0.7565                 0.7958
 IR Inten    --     45.7094                 6.0133                16.9640

                     43                     44                     45
                      A                      A                      A
 Frequencies --    980.4125               986.3908              1015.1122
 Red. masses --      2.7583                 1.2527                 2.0369
 Frc consts  --      1.5621                 0.7181                 1.2367
 IR Inten    --     50.6210                 0.6130               120.9253

                     46                     47                     48
                      A                      A                      A
 Frequencies --   1020.1194              1061.6404              1081.1529
 Red. masses --      1.7517                 1.8017                 3.6025
 Frc consts  --      1.0740                 1.1964                 2.4810
 IR Inten    --    145.9041                20.0761               676.4084

                     49                     50                     51
                      A                      A                      A
 Frequencies --   1104.1955              1114.2516              1130.6180
 Red. masses --      1.7546                 2.3092                 1.5099
 Frc consts  --      1.2604                 1.6892                 1.1372
 IR Inten    --    132.5771               506.2129               137.7735

                     52                     53                     54
                      A                      A                      A
 Frequencies --   1157.7618              1187.9792              1194.1763
 Red. masses --      1.4463                 5.0033                 1.6907
 Frc consts  --      1.1422                 4.1603                 1.4205
 IR Inten    --    691.6448               136.4405                45.5044

                     55                     56                     57
                      A                      A                      A
 Frequencies --   1211.7131              1223.5843              1246.2044
 Red. masses --      2.7245                 3.4335                 2.6425
 Frc consts  --      2.3568                 3.0287                 2.4179
 IR Inten    --    104.5259               976.4204               315.8321

                     58                     59                     60
                      A                      A                      A
 Frequencies --   1305.8930              1328.9464              1348.4711
 Red. masses --      5.9686                 3.2774                 6.4471
 Frc consts  --      5.9971                 3.4103                 6.9072
 IR Inten    --    168.9075              1456.7167               667.1032

                     61                     62                     63
                      A                      A                      A
 Frequencies --   1354.7241              1393.7870              1437.1131
 Red. masses --      2.6082                 1.3055                 3.5187
 Frc consts  --      2.8203                 1.4943                 4.2817
 IR Inten    --   1219.5329                82.5170               175.3087

                     64                     65                     66
                      A                      A                      A
 Frequencies --   1449.0332              1459.4025              1463.0549
 Red. masses --      4.6027                 1.0734                 3.0627
 Frc consts  --      5.6941                 1.3469                 3.8625
 IR Inten    --      7.2212                40.3713               101.9745

                     67                     68                     69
                      A                      A                      A
 Frequencies --   1464.7068              1482.0437              1501.1414
 Red. masses --      1.0882                 2.9233                 5.5679
 Frc consts  --      1.3755                 3.7831                 7.3924
 IR Inten    --      4.7789                32.7576                 0.4918

                     70                     71                     72
                      A                      A                      A
 Frequencies --   1532.0010              1578.3375              1608.5084
 Red. masses --      5.8776                 7.6298                 5.3369
 Frc consts  --      8.1278                11.1985                 8.1355
 IR Inten    --     80.3233                12.1633                11.5767

                     73                     74                     75
                      A                      A                      A
 Frequencies --   1614.1516              1753.9272              3051.1659
 Red. masses --      7.0477                11.2106                 1.0367
 Frc consts  --     10.8190                20.3191                 5.6866
 IR Inten    --    135.0573               501.8830                 2.4816

                     76                     77                     78
                      A                      A                      A
 Frequencies --   3112.2032              3138.4846              3152.9761
 Red. masses --      1.1000                 1.0845                 1.0883
 Frc consts  --      6.2776                 6.2936                 6.3745
 IR Inten    --      5.3635                23.0157                22.9307

                     79                     80                     81
                      A                      A                      A
 Frequencies --   3154.9051              3165.5012              3168.1892
 Red. masses --      1.1034                 1.0860                 1.0917
 Frc consts  --      6.4707                 6.4117                 6.4560
 IR Inten    --     14.5610                 0.1646                41.1931

                     82                     83                     84
                      A                      A                      A
 Frequencies --   3172.9269              3181.1136              3182.3518
 Red. masses --      1.0950                 1.0932                 1.0917
 Frc consts  --      6.4949                 6.5180                 6.5138
 IR Inten    --    106.0374                21.5905                46.6527

 - Thermochemistry -
 -------------------
 Temperature   298.150 Kelvin.  Pressure   1.00000 Atm.
 Atom     1 has atomic number  6 and mass  12.00000

 Molecular mass:   266.05791 amu.
 Principal axes and moments of inertia in atomic units:
                           1         2         3
     Eigenvalues --  2064.399249982.00532**********
           X            0.99603  -0.08874  -0.00672
           Y            0.08768   0.99143  -0.09679
           Z            0.01525   0.09582   0.99528
 This molecule is an asymmetric top.
 Rotational symmetry number  1.
 Warning -- assumption of classical behavior for rotation
           may cause significant error
 Rotational temperatures (Kelvin)      0.04196     0.00868     0.00745
 Rotational constants (GHZ):           0.87422     0.18080     0.15515
 Zero-point vibrational energy     566274.5 (Joules/Mol)
                                  135.34286 (Kcal/Mol)
 Warning -- explicit consideration of  24 degrees of freedom as
           vibrations may cause significant error
 Vibrational temperatures:     38.64    42.71    65.14   110.37   116.17
          (Kelvin)            182.84   227.25   239.35   285.55   320.36
                              374.49   405.71   475.68   520.74   568.46
                              583.17   592.49   624.38   657.92   690.50
                              714.98   766.54   806.65   870.04   901.88
                              912.99   931.67   981.02   992.34  1007.63
                             1037.92  1097.07  1116.31  1129.45  1170.04
                             1222.47  1232.30  1291.45  1324.89  1350.84
                             1405.38  1408.84  1410.59  1419.20  1460.52
                             1467.72  1527.46  1555.54  1588.69  1603.16
                             1626.71  1665.76  1709.24  1718.15  1743.38
                             1760.46  1793.01  1878.89  1912.06  1940.15
                             1949.15  2005.35  2067.69  2084.84  2099.75
                             2105.01  2107.39  2132.33  2159.81  2204.21
                             2270.88  2314.28  2322.40  2523.51  4389.95
                             4477.77  4515.58  4536.43  4539.20  4554.45
                             4558.32  4565.13  4576.91  4578.69

 Zero-point correction=                           0.215683 (Hartree/Particle)
 Thermal correction to Energy=                    0.231845
 Thermal correction to Enthalpy=                  0.232789
 Thermal correction to Gibbs Free Energy=         0.170214
 Sum of electronic and zero-point Energies=           -916.927740
 Sum of electronic and thermal Energies=              -916.911578
 Sum of electronic and thermal Enthalpies=            -916.910634
 Sum of electronic and thermal Free Energies=         -916.973209

                     E (Thermal)             CV                S
                      KCal/Mol        Cal/Mol-Kelvin    Cal/Mol-Kelvin
 Total                  145.485             62.694            131.700
 Electronic               0.000              0.000              0.000
 Translational            0.889              2.981             42.635
 Rotational               0.889              2.981             33.838
 Vibrational            143.707             56.733             55.227
 Vibration     1          0.593              1.984              6.049
 Vibration     2          0.593              1.984              5.850
 Vibration     3          0.595              1.979              5.014
 Vibration     4          0.599              1.965              3.973
 Vibration     5          0.600              1.962              3.873
 Vibration     6          0.611              1.926              2.990
 Vibration     7          0.621              1.894              2.574
 Vibration     8          0.624              1.884              2.476
 Vibration     9          0.637              1.842              2.147
 Vibration    10          0.648              1.807              1.937
 Vibration    11          0.668              1.745              1.660
 Vibration    12          0.681              1.707              1.522
 Vibration    13          0.713              1.614              1.257
 Vibration    14          0.736              1.551              1.114
 Vibration    15          0.762              1.481              0.981
 Vibration    16          0.770              1.459              0.943
 Vibration    17          0.776              1.445              0.920
 Vibration    18          0.795              1.396              0.846
 Vibration    19          0.815              1.345              0.774
 Vibration    20          0.836              1.295              0.710
 Vibration    21          0.852              1.257              0.666
 Vibration    22          0.888              1.178              0.581
 Vibration    23          0.916              1.116              0.523
 Vibration    24          0.963              1.022              0.442

                           ! Non-Optimized Parameters !
 Normal termination of Gaussian 16 at Sat Feb 10 20:46:46 2024.
