 Q-Chem 5.4, Q-Chem, Inc., Pleasanton, CA (2021)
 Q-Chem 5.4.0 for Intel X86 EM64T Linux

User input:
--------------------------------------------------------------
$molecule
0 1
F                 -2.7026950000      0.5216270000     -0.0151510000
C                 -1.3947240000      0.3205510000     -0.0084490000
C                 -0.5174920000      1.3342520000     -0.0179250000
F                 -0.9042730000      2.5996590000     -0.0345710000
C                  0.9551690000      1.1035740000     -0.0103230000
O                  1.7454860000      2.0165350000     -0.0188560000
C                  1.3946990000     -0.3206090000      0.0084500000
C                  0.5175220000     -1.3342120000      0.0179250000
F                  0.9042610000     -2.5996340000      0.0345700000
C                 -0.9551850000     -1.1036010000      0.0103230000
O                 -1.7455500000     -2.0166660000      0.0188570000
F                  2.7027820000     -0.5214760000      0.0151490000
$end
$rem
MAX_SCF_CYCLES=200
BASIS  =  6-311++G(d,p)
GUI  =  2
JOB_TYPE  =  SP
METHOD  =  B3LYP
SOLVENT_METHOD = PCM
$end
$pcm
theory = CPCM
$end
$solvent
dielectric 37.219
opticaldielectric 1.43
$end

--------------------------------------------------------------

             Standard Nuclear Orientation (Angstroms)
    I     Atom           X                Y                Z
 ----------------------------------------------------------------
    1      F      -2.7026950000     0.5216270000    -0.0151510000
    2      C      -1.3947240000     0.3205510000    -0.0084490000
    3      C      -0.5174920000     1.3342520000    -0.0179250000
    4      F      -0.9042730000     2.5996590000    -0.0345710000
    5      C       0.9551690000     1.1035740000    -0.0103230000
    6      O       1.7454860000     2.0165350000    -0.0188560000
    7      C       1.3946990000    -0.3206090000     0.0084500000
    8      C       0.5175220000    -1.3342120000     0.0179250000
    9      F       0.9042610000    -2.5996340000     0.0345700000
   10      C      -0.9551850000    -1.1036010000     0.0103230000
   11      O      -1.7455500000    -2.0166660000     0.0188570000
   12      F       2.7027820000    -0.5214760000     0.0151490000
 ----------------------------------------------------------------

    8    -778.6116371151      2.75e-06  Convergence criterion met
 Total energy in the final basis set =     -778.6116371151

                    Orbital Energies (a.u.)
 --------------------------------------------------------------

 Alpha MOs
 -- Occupied --
-24.7472 -24.7472 -24.7472 -24.7472 -19.1782 -19.1782 -10.3316 -10.3316
-10.3241 -10.3241 -10.3233 -10.3233  -1.2995  -1.2986  -1.2863  -1.2856
 -1.1127  -1.1113  -0.9055  -0.8249  -0.7570  -0.6924  -0.6831  -0.6300
 -0.6111  -0.6071  -0.5918  -0.5571  -0.5548  -0.5358  -0.5154  -0.5138
 -0.5052  -0.5024  -0.4792  -0.4570  -0.4541  -0.4470  -0.4442  -0.4437
 -0.3296  -0.3292  -0.3286  -0.3015

          Ground-State Mulliken Net Atomic Charges

     Atom                 Charge (a.u.)
  ----------------------------------------
      1 F                    -0.180859
      2 C                     0.230887
      3 C                     0.225976
      4 F                    -0.180769
      5 C                     0.184694
      6 O                    -0.279760
      7 C                     0.230624
      8 C                     0.226296
      9 F                    -0.180784
     10 C                     0.184294
     11 O                    -0.279682
     12 F                    -0.180917
  ----------------------------------------
  Sum of atomic charges =     0.000000

                    Cartesian Multipole Moments
 -----------------------------------------------------------------
    Charge (ESU x 10^10)
                -0.0000
    Dipole Moment (Debye)
         X      -0.0010      Y      -0.0001      Z      -0.0000
       Tot       0.0010
    Quadrupole Moments (Debye-Ang)
        XX     -76.2775     XY      -6.7935     YY     -78.2429
        XZ       0.0287     YZ       0.2035     ZZ     -59.6841

 Total job time:  10.59s(wall), 72.58s(cpu)
        *  Thank you very much for using Q-Chem.  Have a nice day.  *
