 Q-Chem 5.4, Q-Chem, Inc., Pleasanton, CA (2021)
 Q-Chem 5.4.0 for Intel X86 EM64T Linux

User input:
--------------------------------------------------------------
$molecule
-1 2
C                 -1.7548970000      1.4676680000      1.0452310000
C                 -2.9564850000      0.6946390000      0.8071560000
C                 -3.0034310000     -0.5302170000      0.2003500000
C                 -1.7575910000     -1.1536650000     -0.2651010000
C                 -0.5320410000     -0.3853450000     -0.0323550000
C                 -0.5210690000      0.8435810000      0.5806530000
O                 -1.7294970000     -2.2751530000     -0.8291650000
O                 -1.7962560000      2.5866160000      1.6098220000
I                  1.2191360000      1.9958370000      0.9410810000
I                  1.2156260000     -1.3595140000     -0.7352950000
H                 -3.8551510000      1.1828590000      1.1622340000
C                 -4.3303060000     -1.2839020000     -0.0131470000
C                 -5.5391990000     -0.4972260000      0.5296020000
C                 -4.2874070000     -2.6450910000      0.7230470000
C                 -4.5644960000     -1.5196890000     -1.5251500000
H                 -5.6547200000      0.4697390000      0.0315570000
H                 -5.4608020000     -0.3183370000      1.6058350000
H                 -6.4527190000     -1.0746580000      0.3530400000
H                 -4.1538630000     -2.4938270000      1.7991970000
H                 -3.4660970000     -3.2569760000      0.3524280000
H                 -5.2305400000     -3.1841620000      0.5715050000
H                 -4.6295870000     -0.5640530000     -2.0555620000
H                 -5.5077520000     -2.0576340000     -1.6799760000
H                 -3.7501170000     -2.1018720000     -1.9543080000
$end
$rem
MAX_SCF_CYCLES=200
BASIS  =  6-311++G(d,p)
GUI  =  2
JOB_TYPE  =  SP
METHOD  =  B3LYP
SOLVENT_METHOD = PCM
$end
$pcm
theory = CPCM
$end
$solvent
dielectric 37.219
opticaldielectric 1.43
$end

--------------------------------------------------------------

             Standard Nuclear Orientation (Angstroms)
    I     Atom           X                Y                Z
 ----------------------------------------------------------------
    1      C      -1.7548970000     1.4676680000     1.0452310000
    2      C      -2.9564850000     0.6946390000     0.8071560000
    3      C      -3.0034310000    -0.5302170000     0.2003500000
    4      C      -1.7575910000    -1.1536650000    -0.2651010000
    5      C      -0.5320410000    -0.3853450000    -0.0323550000
    6      C      -0.5210690000     0.8435810000     0.5806530000
    7      O      -1.7294970000    -2.2751530000    -0.8291650000
    8      O      -1.7962560000     2.5866160000     1.6098220000
    9      I       1.2191360000     1.9958370000     0.9410810000
   10      I       1.2156260000    -1.3595140000    -0.7352950000
   11      H      -3.8551510000     1.1828590000     1.1622340000
   12      C      -4.3303060000    -1.2839020000    -0.0131470000
   13      C      -5.5391990000    -0.4972260000     0.5296020000
   14      C      -4.2874070000    -2.6450910000     0.7230470000
   15      C      -4.5644960000    -1.5196890000    -1.5251500000
   16      H      -5.6547200000     0.4697390000     0.0315570000
   17      H      -5.4608020000    -0.3183370000     1.6058350000
   18      H      -6.4527190000    -1.0746580000     0.3530400000
   19      H      -4.1538630000    -2.4938270000     1.7991970000
   20      H      -3.4660970000    -3.2569760000     0.3524280000
   21      H      -5.2305400000    -3.1841620000     0.5715050000
   22      H      -4.6295870000    -0.5640530000    -2.0555620000
   23      H      -5.5077520000    -2.0576340000    -1.6799760000
   24      H      -3.7501170000    -2.1018720000    -1.9543080000
 ----------------------------------------------------------------

    9  -14376.8496557031      4.15e-06  Convergence criterion met
 Total energy in the final basis set =   -14376.8496557031

                    Orbital Energies (a.u.)
 --------------------------------------------------------------

 Alpha MOs
 -- Occupied --
*****************-176.2941-176.2931-165.6977-165.6967-165.6958-165.6956
********-165.6947 -35.7905 -35.7896 -31.2834 -31.2824 -31.2781 -31.2776
-31.2771 -31.2766 -22.9340 -22.9330 -22.9328 -22.9325 -22.9319 -22.9315
-22.9287 -22.9287 -22.9278 -22.9278 -19.0894 -19.0880 -10.2392 -10.2378
-10.2210 -10.2197 -10.1853 -10.1831 -10.1673 -10.1495 -10.1460 -10.1460
 -6.3398  -6.3390  -4.7514  -4.7505  -4.7383  -4.7376  -4.7373  -4.7364
 -2.0176  -2.0165  -2.0132  -2.0127  -2.0124  -2.0117  -2.0014  -2.0012
 -2.0005  -2.0003  -1.0178  -1.0154  -0.8466  -0.8144  -0.7538  -0.7062
 -0.6800  -0.6760  -0.6548  -0.6433  -0.5849  -0.5675  -0.5269  -0.4971
 -0.4687  -0.4421  -0.4358  -0.4263  -0.4247  -0.4240  -0.3979  -0.3978
 -0.3807  -0.3730  -0.3667  -0.3564  -0.3529  -0.3367  -0.3284  -0.3213
 -0.3205  -0.2809  -0.2775  -0.2732  -0.2604  -0.2534  -0.2397  -0.2323
 -0.1718

 Beta MOs
 -- Occupied --
*****************-176.2941-176.2931-165.6977-165.6967-165.6958-165.6956
********-165.6947 -35.7905 -35.7896 -31.2834 -31.2825 -31.2780 -31.2776
-31.2771 -31.2766 -22.9340 -22.9330 -22.9328 -22.9325 -22.9319 -22.9315
-22.9287 -22.9287 -22.9278 -22.9278 -19.0829 -19.0813 -10.2378 -10.2364
-10.2195 -10.2182 -10.1854 -10.1822 -10.1666 -10.1495 -10.1460 -10.1460
 -6.3398  -6.3390  -4.7514  -4.7506  -4.7383  -4.7375  -4.7373  -4.7364
 -2.0177  -2.0165  -2.0131  -2.0126  -2.0124  -2.0117  -2.0013  -2.0012
 -2.0004  -2.0003  -1.0064  -1.0037  -0.8414  -0.8124  -0.7516  -0.6978
 -0.6796  -0.6758  -0.6513  -0.6420  -0.5821  -0.5637  -0.5247  -0.4948
 -0.4664  -0.4383  -0.4321  -0.4235  -0.4208  -0.4112  -0.3952  -0.3830
 -0.3789  -0.3658  -0.3622  -0.3515  -0.3513  -0.3350  -0.3273  -0.3208
 -0.3062  -0.2805  -0.2700  -0.2575  -0.2557  -0.2479  -0.2341  -0.2294

          Ground-State Mulliken Net Atomic Charges

     Atom                 Charge (a.u.)    Spin (a.u.)
  --------------------------------------------------------
      1 C                    -0.993673       0.090221
      2 C                    -0.446138       0.047701
      3 C                     1.103503       0.100786
      4 C                    -0.872830       0.084131
      5 C                    -0.157814       0.084905
      6 C                     0.845731       0.118227
      7 O                    -0.357065       0.245277
      8 O                    -0.419514       0.232942
      9 I                    -0.019820       0.004020
     10 I                    -0.012575       0.003430
     11 H                     0.213414      -0.005528
     12 C                     0.624843      -0.025297
     13 C                    -0.517856       0.000922
     14 C                    -0.701844       0.009709
     15 C                    -0.702897       0.009667
     16 H                     0.141090      -0.000235
     17 H                     0.141034      -0.000236
     18 H                     0.180381       0.000106
     19 H                     0.140433       0.000493
     20 H                     0.174972      -0.001017
     21 H                     0.160481       0.000145
     22 H                     0.140794       0.000495
     23 H                     0.160199       0.000136
     24 H                     0.175151      -0.001001
  --------------------------------------------------------
  Sum of atomic charges =    -1.000000

                    Cartesian Multipole Moments
 -----------------------------------------------------------------
    Charge (ESU x 10^10)
                -4.8032
    Dipole Moment (Debye)
         X       3.9569      Y      -1.7240      Z      -1.8066
       Tot       4.6790
    Quadrupole Moments (Debye-Ang)
        XX    -136.8112     XY       3.2846     YY    -164.6890
        XZ       2.3346     YZ     -15.7771     ZZ    -142.5906

 Total job time:  51.85s(wall), 355.21s(cpu)
        *  Thank you very much for using Q-Chem.  Have a nice day.  *
