 Gaussian 16, Revision A.03,
 Gaussian 16:  ES64L-G16RevA.03 25-Dec-2016

 -------------------------------
 #P UB3LYP/genecp nosym opt freq
 -------------------------------

 -------
 Radical
 -------
 Symbolic Z-matrix:
 Charge = -1 Multiplicity = 2

 SCF Done:  E(UB3LYP) =  -1133.34003357     A.U. after   23 cycles
 SCF Done:  E(UB3LYP) =  -1133.34003200     A.U. after   11 cycles
 SCF Done:  E(UB3LYP) =  -1133.34003348     A.U. after   11 cycles
 SCF Done:  E(UB3LYP) =  -1133.34003372     A.U. after   11 cycles
 Optimization completed.
    -- Stationary point found.
 Normal termination of Gaussian 16 at Sat Jan  6 20:05:40 2024.

 ------------------------------------------------------------------
 #P Geom=AllCheck Guess=TCheck SCRF=Check GenChk UB3LYP/GenECP Freq
 ------------------------------------------------------------------

 Structure from the checkpoint file:  "016-rad.chk"
 -------
 Radical
 -------
 Charge = -1 Multiplicity = 2

                          Input orientation:
 ---------------------------------------------------------------------
 Center     Atomic      Atomic             Coordinates (Angstroms)
 Number     Number       Type             X           Y           Z
 ---------------------------------------------------------------------
      1          6           0       -1.754897    1.467668    1.045231
      2          6           0       -2.956485    0.694639    0.807156
      3          6           0       -3.003431   -0.530217    0.200350
      4          6           0       -1.757591   -1.153665   -0.265101
      5          6           0       -0.532041   -0.385345   -0.032355
      6          6           0       -0.521069    0.843581    0.580653
      7          8           0       -1.729497   -2.275153   -0.829165
      8          8           0       -1.796256    2.586616    1.609822
      9         53           0        1.219136    1.995837    0.941081
     10         53           0        1.215626   -1.359514   -0.735295
     11          1           0       -3.855151    1.182859    1.162234
     12          6           0       -4.330306   -1.283902   -0.013147
     13          6           0       -5.539199   -0.497226    0.529602
     14          6           0       -4.287407   -2.645091    0.723047
     15          6           0       -4.564496   -1.519689   -1.525150
     16          1           0       -5.654720    0.469739    0.031557
     17          1           0       -5.460802   -0.318337    1.605835
     18          1           0       -6.452719   -1.074658    0.353040
     19          1           0       -4.153863   -2.493827    1.799197
     20          1           0       -3.466097   -3.256976    0.352428
     21          1           0       -5.230540   -3.184162    0.571505
     22          1           0       -4.629587   -0.564053   -2.055562
     23          1           0       -5.507752   -2.057634   -1.679976
     24          1           0       -3.750117   -2.101872   -1.954308
 ---------------------------------------------------------------------

 SCF Done:  E(UB3LYP) =  -1133.34003372     A.U. after    1 cycles

 Alpha  occ. eigenvalues --  -18.95969 -18.95844 -10.11366 -10.10932 -10.09667
 Alpha  occ. eigenvalues --  -10.09524 -10.08496 -10.06409 -10.06046 -10.04921
 Alpha  occ. eigenvalues --  -10.04893 -10.04891  -6.71801  -6.71759  -4.74217
 Alpha  occ. eigenvalues --   -4.74176  -4.73142  -4.73100  -4.73023  -4.72978
 Alpha  occ. eigenvalues --   -1.79040  -1.78998  -1.78698  -1.78657  -1.78604
 Alpha  occ. eigenvalues --   -1.78561  -1.77671  -1.77668  -1.77627  -1.77624
 Alpha  occ. eigenvalues --   -0.88906  -0.88395  -0.73033  -0.70456  -0.64154
 Alpha  occ. eigenvalues --   -0.59741  -0.58618  -0.57852  -0.55826  -0.55102
 Alpha  occ. eigenvalues --   -0.48131  -0.45192  -0.41835  -0.37575  -0.36092
 Alpha  occ. eigenvalues --   -0.33681  -0.32465  -0.32244  -0.30671  -0.29753
 Alpha  occ. eigenvalues --   -0.28424  -0.28185  -0.27302  -0.26579  -0.25177
 Alpha  occ. eigenvalues --   -0.25115  -0.24005  -0.23014  -0.22321  -0.21929
 Alpha  occ. eigenvalues --   -0.19431  -0.15632  -0.15512  -0.14910  -0.13376
 Alpha  occ. eigenvalues --   -0.12382  -0.11758  -0.10659  -0.04430
 Alpha virt. eigenvalues --    0.06358   0.07480   0.09614   0.09800   0.10134
 Alpha virt. eigenvalues --    0.10571   0.11253   0.12602   0.12721   0.13333
 Alpha virt. eigenvalues --    0.13692   0.13934   0.14196   0.15964   0.16549

  Beta  occ. eigenvalues --  -18.95278 -18.95108 -10.11241 -10.10849 -10.09530
  Beta  occ. eigenvalues --  -10.09365 -10.08502 -10.06323 -10.06046 -10.04888
  Beta  occ. eigenvalues --  -10.04886 -10.04817  -6.71800  -6.71758  -4.74220
  Beta  occ. eigenvalues --   -4.74179  -4.73134  -4.73093  -4.73022  -4.72978
  Beta  occ. eigenvalues --   -1.79042  -1.79000  -1.78694  -1.78654  -1.78608
  Beta  occ. eigenvalues --   -1.78565  -1.77665  -1.77663  -1.77622  -1.77620
  Beta  occ. eigenvalues --   -0.87719  -0.87128  -0.72713  -0.70095  -0.63928
  Beta  occ. eigenvalues --   -0.59337  -0.58587  -0.57834  -0.55703  -0.54442
  Beta  occ. eigenvalues --   -0.47823  -0.44832  -0.41596  -0.37386  -0.35932
  Beta  occ. eigenvalues --   -0.33626  -0.32205  -0.32072  -0.29713  -0.29287
  Beta  occ. eigenvalues --   -0.28131  -0.27229  -0.26989  -0.26193  -0.24892
  Beta  occ. eigenvalues --   -0.23854  -0.23246  -0.22564  -0.22235  -0.21756
  Beta  occ. eigenvalues --   -0.18183  -0.15477  -0.14606  -0.13106  -0.13021
  Beta  occ. eigenvalues --   -0.11722  -0.11132  -0.10304
  Beta virt. eigenvalues --    0.02682   0.06478   0.07481   0.09804   0.09914
  Beta virt. eigenvalues --    0.10588   0.11140   0.11435   0.12729   0.12815
  Beta virt. eigenvalues --    0.13348   0.13719   0.14061   0.15941   0.15977

 Mulliken charges and spin densities:
               1          2
     1  C   -1.376918   0.040393
     2  C   -0.164685   0.085390
     3  C    1.206358   0.096073
     4  C   -1.066205   0.059129
     5  C    0.127282   0.086674
     6  C    0.935418   0.130102
     7  O   -0.261451   0.256126
     8  O   -0.299961   0.268027
     9  I   -0.139441  -0.000090
    10  I   -0.139319  -0.000622
    11  H    0.174663  -0.007098
    12  C    0.630944  -0.035611
    13  C   -0.506985   0.001394
    14  C   -0.687309   0.010855
    15  C   -0.687657   0.010850
    16  H    0.123157  -0.000444
    17  H    0.123192  -0.000444
    18  H    0.146674   0.000103
    19  H    0.117323   0.000697
    20  H    0.195452  -0.001355
    21  H    0.118357   0.000254
    22  H    0.117309   0.000692
    23  H    0.118336   0.000257
    24  H    0.195465  -0.001350
 Sum of Mulliken charges =  -1.00000   1.00000

 Dipole moment (field-independent basis, Debye):
    X=              4.8538    Y=             -1.0115    Z=             -1.5597  Tot=              5.1976
 Quadrupole moment (field-independent basis, Debye-Ang):
   XX=           -149.0864   YY=           -159.7074   ZZ=           -139.3316
   XY=             -0.6983   XZ=              2.2247   YZ=            -13.8752

  Exact polarizability: 259.000  22.580 230.979  -3.658  43.700 160.285
 Approx polarizability: 360.555  12.270 412.912 -10.504  91.964 273.207

                      1                      2                      3
                      A                      A                      A
 Frequencies --     41.7693                45.3806                83.6236
 Red. masses --      6.3647                 4.6262                 5.2653
 Frc consts  --      0.0065                 0.0056                 0.0217
 IR Inten    --      0.7448                 3.5091                 0.0885

                      4                      5                      6
                      A                      A                      A
 Frequencies --     96.1282               121.6062               157.7306
 Red. masses --     62.9731                 7.8149                 5.2129
 Frc consts  --      0.3429                 0.0681                 0.0764
 IR Inten    --      1.2097                 1.5083                 4.4830

                      7                      8                      9
                      A                      A                      A
 Frequencies --    182.4954               210.3358               226.1886
 Red. masses --      7.7791                 3.9976                 5.1369
 Frc consts  --      0.1526                 0.1042                 0.1548
 IR Inten    --      0.1221                 0.0515                 1.6617

                     10                     11                     12
                      A                      A                      A
 Frequencies --    231.0908               249.1568               267.5121
 Red. masses --      1.2401                 5.5227                 1.2327
 Frc consts  --      0.0390                 0.2020                 0.0520
 IR Inten    --      0.4599                 1.4643                 0.2867

                     13                     14                     15
                      A                      A                      A
 Frequencies --    288.8643               297.3649               330.2359
 Red. masses --      3.4411                 3.0259                 1.0457
 Frc consts  --      0.1692                 0.1576                 0.0672
 IR Inten    --      0.0367                 1.0476                 0.0872

                     16                     17                     18
                      A                      A                      A
 Frequencies --    345.6768               372.4608               417.0521
 Red. masses --      4.7709                 2.8589                 2.6466
 Frc consts  --      0.3359                 0.2337                 0.2712
 IR Inten    --     11.0483                 0.1563                 0.8529

                     19                     20                     21
                      A                      A                      A
 Frequencies --    423.7604               477.7712               486.1183
 Red. masses --      4.5944                 6.7999                 5.2805
 Frc consts  --      0.4861                 0.9145                 0.7352
 IR Inten    --      0.0015                 0.0898                18.6101

                     22                     23                     24
                      A                      A                      A
 Frequencies --    537.4389               566.2829               673.0544
 Red. masses --      4.5547                 4.2340                 6.4169
 Frc consts  --      0.7751                 0.8000                 1.7127
 IR Inten    --      0.1182                 2.4833                 3.4208

                     25                     26                     27
                      A                      A                      A
 Frequencies --    686.2031               723.8055               760.9012
 Red. masses --      5.7268                 7.6052                 8.3235
 Frc consts  --      1.5888                 2.3475                 2.8393
 IR Inten    --      1.7988                19.8922                 5.2684

                     28                     29                     30
                      A                      A                      A
 Frequencies --    820.0454               836.5868               884.8315
 Red. masses --      3.5139                 7.2144                 1.5195
 Frc consts  --      1.3922                 2.9749                 0.7009
 IR Inten    --     29.4799                72.7820                14.0581

                     31                     32                     33
                      A                      A                      A
 Frequencies --    926.7002               932.7328               953.6256
 Red. masses --      1.7715                 1.7574                 4.7629
 Frc consts  --      0.8964                 0.9008                 2.5520
 IR Inten    --      0.4669                 3.5679                 0.2449

                     34                     35                     36
                      A                      A                      A
 Frequencies --    959.3903              1035.8560              1048.8034
 Red. masses --      1.2028                 1.7069                 1.3777
 Frc consts  --      0.6523                 1.0791                 0.8929
 IR Inten    --      0.2223                46.9810                 0.0662

                     37                     38                     39
                      A                      A                      A
 Frequencies --   1071.5149              1122.7329              1216.1187
 Red. masses --      2.6143                 7.8826                 2.6811
 Frc consts  --      1.7685                 5.8543                 2.3362
 IR Inten    --     98.2744                18.1040                 4.1318

                     40                     41                     42
                      A                      A                      A
 Frequencies --   1222.9829              1263.9224              1282.5202
 Red. masses --      2.4765                 2.9384                 1.8134
 Frc consts  --      2.1824                 2.7656                 1.7574
 IR Inten    --     12.9949                31.7870                32.8377

                     43                     44                     45
                      A                      A                      A
 Frequencies --   1357.7030              1377.5469              1385.5121
 Red. masses --      4.0227                 1.2095                 1.3102
 Frc consts  --      4.3689                 1.3523                 1.4819
 IR Inten    --     31.5216                11.4593                14.2467

                     46                     47                     48
                      A                      A                      A
 Frequencies --   1412.9447              1447.1317              1472.5077
 Red. masses --      1.2461                 8.0437                 1.0466
 Frc consts  --      1.4657                 9.9248                 1.3370
 IR Inten    --     27.5235                 4.4611                 0.1531

                     49                     50                     51
                      A                      A                      A
 Frequencies --   1488.8923              1496.4436              1497.0791
 Red. masses --      1.1931                 1.0465                 1.0647
 Frc consts  --      1.5583                 1.3807                 1.4059
 IR Inten    --     63.8940                 1.0762                 2.0003

                     52                     53                     54
                      A                      A                      A
 Frequencies --   1511.4607              1521.7612              1525.3755
 Red. masses --      1.0511                 4.0409                 3.1738
 Frc consts  --      1.4148                 5.5134                 4.3510
 IR Inten    --      3.7066               166.3586                55.3728

                     55                     56                     57
                      A                      A                      A
 Frequencies --   1533.4407              1610.6796              2998.6661
 Red. masses --      1.4554                 7.2202                 1.0419
 Frc consts  --      2.0163                11.0361                 5.5199
 IR Inten    --     57.7938                60.2824                45.8954

                     58                     59                     60
                      A                      A                      A
 Frequencies --   3002.8001              3015.0557              3056.6568
 Red. masses --      1.0406                 1.0362                 1.0979
 Frc consts  --      5.5283                 5.5500                 6.0437
 IR Inten    --     79.4080               101.6499                27.5365

                     61                     62                     63
                      A                      A                      A
 Frequencies --   3058.7965              3071.3350              3082.9418
 Red. masses --      1.0979                 1.0999                 1.1017
 Frc consts  --      6.0521                 6.1132                 6.1694
 IR Inten    --     25.7398                95.6757                41.0017

                     64                     65                     66
                      A                      A                      A
 Frequencies --   3125.7623              3128.2068              3189.7005
 Red. masses --      1.0971                 1.0964                 1.0880
 Frc consts  --      6.3153                 6.3213                 6.5220
 IR Inten    --      0.0261                10.1889                10.3929

 - Thermochemistry -
 -------------------
 Temperature   298.150 Kelvin.  Pressure   1.00000 Atm.
 Atom     1 has atomic number  6 and mass  12.00000

 Molecular mass:   415.86888 amu.
 Principal axes and moments of inertia in atomic units:
                           1         2         3
     Eigenvalues --  4474.494308205.49313**********
           X            0.89707  -0.42803   0.10977
           Y            0.42949   0.78616  -0.44440
           Z            0.10392   0.44580   0.88908
 This molecule is an asymmetric top.
 Rotational symmetry number  1.
 Warning -- assumption of classical behavior for rotation
           may cause significant error
 Rotational temperatures (Kelvin)      0.01936     0.01056     0.00705
 Rotational constants (GHZ):           0.40334     0.21994     0.14697
 Zero-point vibrational energy     456057.0 (Joules/Mol)
                                  109.00023 (Kcal/Mol)
 Warning -- explicit consideration of  23 degrees of freedom as
           vibrations may cause significant error
 Vibrational temperatures:     60.10    65.29   120.32   138.31   174.96
          (Kelvin)            226.94   262.57   302.63   325.43   332.49
                              358.48   384.89   415.61   427.84   475.14
                              497.35   535.89   600.04   609.70   687.41
                              699.42   773.25   814.75   968.38   987.29
                             1041.39  1094.77  1179.86  1203.66  1273.08
                             1333.31  1341.99  1372.05  1380.35  1490.37
                             1508.99  1541.67  1615.36  1749.72  1759.60
                             1818.50  1845.26  1953.43  1981.98  1993.44
                             2032.91  2082.10  2118.61  2142.18  2153.05
                             2153.96  2174.65  2189.48  2194.68  2206.28
                             2317.41  4314.41  4320.36  4337.99  4397.85
                             4400.93  4418.97  4435.67  4497.27  4500.79
                             4589.27

 Zero-point correction=                           0.173703 (Hartree/Particle)
 Thermal correction to Energy=                    0.188628
 Thermal correction to Enthalpy=                  0.189572
 Thermal correction to Gibbs Free Energy=         0.128784
 Sum of electronic and zero-point Energies=          -1133.166331
 Sum of electronic and thermal Energies=             -1133.151406
 Sum of electronic and thermal Enthalpies=           -1133.150462
 Sum of electronic and thermal Free Energies=        -1133.211249

                     E (Thermal)             CV                S
                      KCal/Mol        Cal/Mol-Kelvin    Cal/Mol-Kelvin
 Total                  118.366             54.111            127.938
 Electronic               0.000              0.000              1.377
 Translational            0.889              2.981             43.966
 Rotational               0.889              2.981             34.466
 Vibrational            116.588             48.149             48.128
 Vibration     1          0.594              1.980              5.173
 Vibration     2          0.595              1.979              5.009
 Vibration     3          0.601              1.960              3.804
 Vibration     4          0.603              1.952              3.531
 Vibration     5          0.609              1.931              3.075
 Vibration     6          0.621              1.894              2.577
 Vibration     7          0.630              1.864              2.303
 Vibration     8          0.642              1.825              2.041
 Vibration     9          0.650              1.801              1.909
 Vibration    10          0.653              1.793              1.870
 Vibration    11          0.662              1.764              1.737
 Vibration    12          0.673              1.733              1.612
 Vibration    13          0.685              1.694              1.481
 Vibration    14          0.691              1.679              1.432
 Vibration    15          0.713              1.615              1.259
 Vibration    16          0.724              1.584              1.186
 Vibration    17          0.744              1.529              1.070
 Vibration    18          0.780              1.433              0.902
 Vibration    19          0.786              1.419              0.879
 Vibration    20          0.834              1.299              0.716
 Vibration    21          0.842              1.281              0.694
 Vibration    22          0.892              1.167              0.571
 Vibration    23          0.922              1.104              0.511

 Optimization completed.
    -- Stationary point found.
 Normal termination of Gaussian 16 at Sat Jan  6 20:30:30 2024.
