 Gaussian 16, Revision A.03,
 Gaussian 16:  ES64L-G16RevA.03 25-Dec-2016

 --------------------------------------
 #P UB3LYP/6-311++G(d,p) nosym opt freq
 --------------------------------------

 --------
 Oxidized
 --------
 Symbolic Z-matrix:
 Charge =  0 Multiplicity = 1

 SCF Done:  E(UB3LYP) =  -538.848131897     A.U. after   15 cycles
 SCF Done:  E(UB3LYP) =  -538.866211503     A.U. after   14 cycles
 SCF Done:  E(UB3LYP) =  -538.868758013     A.U. after   13 cycles
 SCF Done:  E(UB3LYP) =  -538.869951957     A.U. after   13 cycles
 SCF Done:  E(UB3LYP) =  -538.870725520     A.U. after   13 cycles
 SCF Done:  E(UB3LYP) =  -538.871431010     A.U. after   12 cycles
 SCF Done:  E(UB3LYP) =  -538.871672926     A.U. after   12 cycles
 SCF Done:  E(UB3LYP) =  -538.871777011     A.U. after   12 cycles
 SCF Done:  E(UB3LYP) =  -538.871895726     A.U. after   11 cycles
 SCF Done:  E(UB3LYP) =  -538.872077700     A.U. after   11 cycles
 SCF Done:  E(UB3LYP) =  -538.872141576     A.U. after   11 cycles
 SCF Done:  E(UB3LYP) =  -538.872147981     A.U. after   10 cycles
 SCF Done:  E(UB3LYP) =  -538.872148915     A.U. after   10 cycles
 SCF Done:  E(UB3LYP) =  -538.872149171     A.U. after   10 cycles
 SCF Done:  E(UB3LYP) =  -538.872149261     A.U. after    9 cycles
 Optimization completed.
    -- Stationary point found.
 Normal termination of Gaussian 16 at Sun Dec 17 21:13:19 2023.

 ----------------------------------------------------------------------
 #P Geom=AllCheck Guess=TCheck SCRF=Check GenChk UB3LYP/6-311++G(d,p) F
 req
 ----------------------------------------------------------------------

 Structure from the checkpoint file:  "034.chk"
 --------
 Oxidized
 --------
 Charge =  0 Multiplicity = 1

                          Input orientation:
 ---------------------------------------------------------------------
 Center     Atomic      Atomic             Coordinates (Angstroms)
 Number     Number       Type             X           Y           Z
 ---------------------------------------------------------------------
      1          6           0       -2.488165    1.403270    0.357571
      2          6           0       -2.005820   -0.059203    0.434350
      3          6           0       -2.772810   -0.960088   -0.554303
      4          6           0       -0.503630   -0.177319    0.272242
      5          6           0        0.283111   -0.650649    1.255959
      6          6           0        1.750761   -0.783043    1.142039
      7          8           0        2.413914   -1.220315    2.070296
      8          6           0        2.403565   -0.367430   -0.140218
      9          6           0        1.624628    0.106085   -1.127092
     10          6           0        0.154661    0.238863   -1.013090
     11          8           0       -0.490867    0.678967   -1.952936
     12          6           0        3.890892   -0.509798   -0.233556
     13          1           0       -2.337740    1.815836   -0.640600
     14          1           0       -3.555265    1.450490    0.592334
     15          1           0       -1.959029    2.033158    1.077921
     16          1           0       -2.222815   -0.423043    1.445109
     17          1           0       -2.632322   -0.625549   -1.582668
     18          1           0       -2.444441   -2.000346   -0.478822
     19          1           0       -3.841758   -0.929235   -0.325320
     20          1           0       -0.128483   -0.968411    2.209055
     21          1           0        2.035169    0.423984   -2.080259
     22          1           0        4.382042    0.072364    0.551116
     23          1           0        4.256767   -0.179528   -1.206390
     24          1           0        4.187635   -1.549954   -0.072737
 ---------------------------------------------------------------------

 SCF Done:  E(UB3LYP) =  -538.872149261     A.U. after    1 cycles

 Alpha  occ. eigenvalues --  -19.13754 -19.13745 -10.28433 -10.28220 -10.22264
 Alpha  occ. eigenvalues --  -10.21933 -10.20630 -10.20602 -10.19877 -10.18645
 Alpha  occ. eigenvalues --  -10.16672 -10.16672  -1.06882  -1.06675  -0.87175
 Alpha  occ. eigenvalues --   -0.83335  -0.78239  -0.73314  -0.69419  -0.69216
 Alpha  occ. eigenvalues --   -0.63172  -0.62039  -0.56570  -0.53253  -0.49602
 Alpha  occ. eigenvalues --   -0.48412  -0.46242  -0.46184  -0.45113  -0.44468
 Alpha  occ. eigenvalues --   -0.43485  -0.42556  -0.41604  -0.41311  -0.40910
 Alpha  occ. eigenvalues --   -0.39583  -0.38924  -0.36500  -0.35757  -0.35064
 Alpha  occ. eigenvalues --   -0.30452  -0.28961  -0.28414  -0.27339
 Alpha virt. eigenvalues --   -0.13226  -0.02936  -0.01183  -0.00543  -0.00528
 Alpha virt. eigenvalues --    0.01061   0.01494   0.01977   0.02114   0.03498
 Alpha virt. eigenvalues --    0.04184   0.04277   0.04768   0.05070   0.05864

  Beta  occ. eigenvalues --  -19.13754 -19.13745 -10.28433 -10.28220 -10.22264
  Beta  occ. eigenvalues --  -10.21933 -10.20630 -10.20602 -10.19877 -10.18645
  Beta  occ. eigenvalues --  -10.16672 -10.16672  -1.06882  -1.06675  -0.87175
  Beta  occ. eigenvalues --   -0.83335  -0.78239  -0.73314  -0.69419  -0.69216
  Beta  occ. eigenvalues --   -0.63172  -0.62039  -0.56570  -0.53253  -0.49602
  Beta  occ. eigenvalues --   -0.48412  -0.46242  -0.46184  -0.45113  -0.44468
  Beta  occ. eigenvalues --   -0.43485  -0.42556  -0.41604  -0.41311  -0.40910
  Beta  occ. eigenvalues --   -0.39583  -0.38924  -0.36500  -0.35757  -0.35064
  Beta  occ. eigenvalues --   -0.30452  -0.28961  -0.28414  -0.27339
  Beta virt. eigenvalues --   -0.13226  -0.02936  -0.01183  -0.00543  -0.00528
  Beta virt. eigenvalues --    0.01061   0.01494   0.01977   0.02114   0.03498
  Beta virt. eigenvalues --    0.04184   0.04277   0.04768   0.05070   0.05864

 Mulliken charges and spin densities:
               1          2
     1  C   -0.666559   0.000000
     2  C    0.153381   0.000000
     3  C   -0.666396   0.000000
     4  C    1.231800   0.000000
     5  C   -0.129274   0.000000
     6  C   -0.962992  -0.000000
     7  O   -0.216132   0.000000
     8  C    1.171219   0.000000
     9  C   -0.701272  -0.000000
    10  C   -0.764082  -0.000000
    11  O   -0.198056   0.000000
    12  C   -0.309576  -0.000000
    13  H    0.194179  -0.000000
    14  H    0.152162   0.000000
    15  H    0.128532   0.000000
    16  H    0.181302  -0.000000
    17  H    0.194194  -0.000000
    18  H    0.128512   0.000000
    19  H    0.152177   0.000000
    20  H    0.208533   0.000000
    21  H    0.192103   0.000000
    22  H    0.187189   0.000000
    23  H    0.151895  -0.000000
    24  H    0.187161   0.000000
 Sum of Mulliken charges =  -0.00000   0.00000

 Dipole moment (field-independent basis, Debye):
    X=             -0.1387    Y=              0.0688    Z=             -0.1359  Tot=              0.2060
 Quadrupole moment (field-independent basis, Debye-Ang):
   XX=            -67.4679   YY=            -74.3942   ZZ=            -81.1722
   XY=              3.4316   XZ=            -10.3151   YZ=              4.7360

  Exact polarizability: 157.542 -16.677  94.221  20.754 -18.059 125.672
 Approx polarizability: 218.534 -37.834 148.396  68.823 -50.753 234.578

                      1                      2                      3
                      A                      A                      A
 Frequencies --     55.9734                64.6071               128.1214
 Red. masses --      4.3582                 3.3291                 1.3742
 Frc consts  --      0.0080                 0.0082                 0.0133
 IR Inten    --      6.0943                 0.2703                 1.2961

                      4                      5                      6
                      A                      A                      A
 Frequencies --    131.8947               177.1233               187.9303
 Red. masses --      2.8246                 2.5089                 3.5075
 Frc consts  --      0.0290                 0.0464                 0.0730
 IR Inten    --      2.9649                 0.2823                 0.7077

                      7                      8                      9
                      A                      A                      A
 Frequencies --    220.0285               240.5086               244.2199
 Red. masses --      1.3114                 1.0825                 2.3854
 Frc consts  --      0.0374                 0.0369                 0.0838
 IR Inten    --      0.3389                 0.1371                 0.0068

                     10                     11                     12
                      A                      A                      A
 Frequencies --    267.6304               290.5603               382.4874
 Red. masses --      3.0929                 3.3019                 3.2213
 Frc consts  --      0.1305                 0.1642                 0.2777
 IR Inten    --      0.1776                 0.6788                 0.9238

                     13                     14                     15
                      A                      A                      A
 Frequencies --    400.4720               416.7713               448.5401
 Red. masses --      7.6205                 3.5353                 3.3051
 Frc consts  --      0.7201                 0.3618                 0.3918
 IR Inten    --     17.7957                 8.3705                 0.0322

                     16                     17                     18
                      A                      A                      A
 Frequencies --    484.2129               496.3113               642.0371
 Red. masses --      3.7993                 7.2407                 3.9775
 Frc consts  --      0.5248                 1.0509                 0.9660
 IR Inten    --      0.0806                 0.0041                 0.0126

                     19                     20                     21
                      A                      A                      A
 Frequencies --    648.0807               708.0536               710.0264
 Red. masses --      5.4445                 3.7735                 4.1482
 Frc consts  --      1.3473                 1.1146                 1.2321
 IR Inten    --      1.8055                 8.3903                 5.3792

                     22                     23                     24
                      A                      A                      A
 Frequencies --    795.7449               798.0212               882.6832
 Red. masses --      4.2683                 3.6021                 2.4995
 Frc consts  --      1.5924                 1.3516                 1.1474
 IR Inten    --      0.3992                 1.3422                 1.0440

                     25                     26                     27
                      A                      A                      A
 Frequencies --    885.0929               934.7345               942.3038
 Red. masses --      1.4147                 1.3176                 1.3343
 Frc consts  --      0.6529                 0.6783                 0.6980
 IR Inten    --      1.2233                11.3256                28.2525

                     28                     29                     30
                      A                      A                      A
 Frequencies --    967.1315              1017.6148              1020.3940
 Red. masses --      1.5432                 2.2308                 1.7180
 Frc consts  --      0.8505                 1.3611                 1.0539
 IR Inten    --      0.0681                55.9949                 6.5570

                     31                     32                     33
                      A                      A                      A
 Frequencies --   1058.3277              1113.3307              1120.9353
 Red. masses --      1.5280                 2.3469                 2.6682
 Frc consts  --      1.0084                 1.7139                 1.9753
 IR Inten    --      2.1966                 0.6720                28.8748

                     34                     35                     36
                      A                      A                      A
 Frequencies --   1175.1013              1199.2644              1235.7393
 Red. masses --      1.8910                 2.1956                 1.4633
 Frc consts  --      1.5385                 1.8605                 1.3165
 IR Inten    --     10.5746                27.2802                 4.2979

                     37                     38                     39
                      A                      A                      A
 Frequencies --   1252.4426              1339.4465              1341.6856
 Red. masses --      3.1320                 2.5628                 1.3093
 Frc consts  --      2.8946                 2.7091                 1.3887
 IR Inten    --     74.7146                44.1312                 1.2795

                     40                     41                     42
                      A                      A                      A
 Frequencies --   1368.0318              1394.0404              1394.2186
 Red. masses --      2.5481                 1.2095                 1.4377
 Frc consts  --      2.8097                 1.3849                 1.6466
 IR Inten    --     16.4074                 6.5760                 3.7959

                     43                     44                     45
                      A                      A                      A
 Frequencies --   1415.2559              1417.1940              1467.4385
 Red. masses --      1.2528                 1.3048                 1.0431
 Frc consts  --      1.4785                 1.5440                 1.3235
 IR Inten    --     18.7698                 2.1658                 8.9770

                     46                     47                     48
                      A                      A                      A
 Frequencies --   1479.2684              1487.5486              1500.4946
 Red. masses --      1.0689                 1.0397                 1.0481
 Frc consts  --      1.3781                 1.3556                 1.3903
 IR Inten    --     10.5314                 1.4387                 1.6212

                     49                     50                     51
                      A                      A                      A
 Frequencies --   1501.9724              1518.6618              1651.7326
 Red. masses --      1.0436                 1.0586                 7.9302
 Frc consts  --      1.3871                 1.4384                12.7472
 IR Inten    --     18.9017                 7.7540                72.8134

                     52                     53                     54
                      A                      A                      A
 Frequencies --   1687.8741              1711.6272              1718.2350
 Red. masses --      9.7832                10.9570                 8.9929
 Frc consts  --     16.4215                18.9129                15.6428
 IR Inten    --      5.7936               405.9266                71.6046

                     55                     56                     57
                      A                      A                      A
 Frequencies --   3016.2200              3028.2536              3031.7382
 Red. masses --      1.0831                 1.0361                 1.0377
 Frc consts  --      5.8053                 5.5982                 5.6197
 IR Inten    --     14.6353                35.9519                28.9684

                     58                     59                     60
                      A                      A                      A
 Frequencies --   3036.0722              3086.3993              3086.8532
 Red. masses --      1.0357                 1.1022                 1.0987
 Frc consts  --      5.6247                 6.1861                 6.1683
 IR Inten    --      7.9199                14.8743                 6.5948

                     61                     62                     63
                      A                      A                      A
 Frequencies --   3088.5251              3119.3697              3121.2309
 Red. masses --      1.1016                 1.1008                 1.1033
 Frc consts  --      6.1910                 6.3111                 6.3327
 IR Inten    --     46.3789                 0.9853                11.4303

                     64                     65                     66
                      A                      A                      A
 Frequencies --   3122.9463              3165.5720              3170.0890
 Red. masses --      1.1000                 1.0914                 1.0920
 Frc consts  --      6.3210                 6.4438                 6.4656
 IR Inten    --     19.6397                 7.3093                 3.0225

 - Thermochemistry -
 -------------------
 Temperature   298.150 Kelvin.  Pressure   1.00000 Atm.
 Atom     1 has atomic number  6 and mass  12.00000

 Molecular mass:   164.08373 amu.
 Principal axes and moments of inertia in atomic units:
                           1         2         3
     Eigenvalues --  1019.056902926.261823539.06438
           X            0.97300  -0.20213   0.11142
           Y           -0.17491  -0.33076   0.92736
           Z            0.15060   0.92181   0.35719
 This molecule is an asymmetric top.
 Rotational symmetry number  1.
 Warning -- assumption of classical behavior for rotation
           may cause significant error
 Rotational temperatures (Kelvin)      0.08499     0.02960     0.02447
 Rotational constants (GHZ):           1.77099     0.61674     0.50995
 Zero-point vibrational energy     515665.0 (Joules/Mol)
                                  123.24688 (Kcal/Mol)
 Warning -- explicit consideration of  17 degrees of freedom as
           vibrations may cause significant error
 Vibrational temperatures:     80.53    92.96   184.34   189.77   254.84
          (Kelvin)            270.39   316.57   346.04   351.38   385.06
                              418.05   550.31   576.19   599.64   645.35
                              696.67   714.08   923.75   932.44  1018.73
                             1021.57  1144.90  1148.17  1269.98  1273.45
                             1344.87  1355.76  1391.49  1464.12  1468.12
                             1522.70  1601.83  1612.78  1690.71  1725.47
                             1777.95  1801.99  1927.16  1930.39  1968.29
                             2005.71  2005.97  2036.24  2039.03  2111.32
                             2128.34  2140.25  2158.88  2161.00  2185.02
                             2376.47  2428.47  2462.65  2472.16  4339.67
                             4356.98  4362.00  4368.23  4440.64  4441.29
                             4443.70  4488.08  4490.76  4493.22  4554.55
                             4561.05

 Zero-point correction=                           0.196406 (Hartree/Particle)
 Thermal correction to Energy=                    0.208681
 Thermal correction to Enthalpy=                  0.209625
 Thermal correction to Gibbs Free Energy=         0.158231
 Sum of electronic and zero-point Energies=           -538.675743
 Sum of electronic and thermal Energies=              -538.663468
 Sum of electronic and thermal Enthalpies=            -538.662524
 Sum of electronic and thermal Free Energies=         -538.713918

                     E (Thermal)             CV                S
                      KCal/Mol        Cal/Mol-Kelvin    Cal/Mol-Kelvin
 Total                  130.949             45.508            108.168
 Electronic               0.000              0.000              0.000
 Translational            0.889              2.981             41.194
 Rotational               0.889              2.981             30.735
 Vibrational            129.172             39.546             36.238
 Vibration     1          0.596              1.975              4.594
 Vibration     2          0.597              1.971              4.311
 Vibration     3          0.611              1.925              2.974
 Vibration     4          0.612              1.921              2.918
 Vibration     5          0.628              1.871              2.359
 Vibration     6          0.633              1.856              2.248
 Vibration     7          0.647              1.811              1.959
 Vibration     8          0.658              1.778              1.799
 Vibration     9          0.660              1.772              1.772
 Vibration    10          0.673              1.733              1.611
 Vibration    11          0.687              1.691              1.471
 Vibration    12          0.752              1.508              1.029
 Vibration    13          0.766              1.469              0.961
 Vibration    14          0.780              1.434              0.903
 Vibration    15          0.808              1.364              0.800
 Vibration    16          0.840              1.285              0.699
 Vibration    17          0.852              1.258              0.667

 Optimization completed.
    -- Stationary point found.
 Normal termination of Gaussian 16 at Sun Dec 17 21:25:33 2023.
