 Gaussian 16, Revision A.03,
 Gaussian 16:  ES64L-G16RevA.03 25-Dec-2016

 ----------------------------------------------------------------------
 #P UB3LYP/6-311++G(d,p) nosym opt freq SCRF=(PCM,Solvent=n,n-DiMethylF
 ormamide)
 ----------------------------------------------------------------------

 -------
 Radical
 -------
 Symbolic Z-matrix:
 Charge = -1 Multiplicity = 2

 SCF Done:  E(UB3LYP) =  -973.908816081     A.U. after   20 cycles
 SCF Done:  E(UB3LYP) =  -973.909086851     A.U. after   15 cycles
 SCF Done:  E(UB3LYP) =  -973.909124831     A.U. after   14 cycles
 SCF Done:  E(UB3LYP) =  -973.909124099     A.U. after   13 cycles
 SCF Done:  E(UB3LYP) =  -973.909127685     A.U. after   12 cycles
 Optimization completed.
    -- Stationary point found.
 Normal termination of Gaussian 16 at Sun Feb 11 15:25:37 2024.

 ----------------------------------------------------------------------
 #P Geom=AllCheck Guess=TCheck SCRF=Check GenChk UB3LYP/6-311++G(d,p) F
 req
 ----------------------------------------------------------------------

 Structure from the checkpoint file:  "337-rad.chk"
 -------
 Radical
 -------
 Charge = -1 Multiplicity = 2

                          Input orientation:
 ---------------------------------------------------------------------
 Center     Atomic      Atomic             Coordinates (Angstroms)
 Number     Number       Type             X           Y           Z
 ---------------------------------------------------------------------
      1          8           0       -0.110860   -2.469214    0.642698
      2          6           0       -0.045454   -1.207468    0.409286
      3          6           0       -1.272637   -0.421008    0.324221
      4          6           0       -2.524656   -1.089689    0.376191
      5          6           0       -3.731009   -0.409122    0.271942
      6          6           0       -3.747242    0.977640    0.095703
      7          6           0       -2.529883    1.667795    0.034730
      8          6           0       -1.320721    0.989042    0.160515
      9         16           0        0.155165    1.986481    0.220471
     10          6           0        1.449090    0.800199   -0.088542
     11          6           0        2.696918    1.311792   -0.434620
     12          6           0        3.801691    0.463532   -0.582589
     13          6           0        3.630497   -0.910617   -0.390534
     14          6           0        2.381329   -1.424278   -0.066181
     15          6           0        1.241594   -0.592568    0.097735
     16          1           0       -2.506057   -2.164488    0.503872
     17          1           0       -4.664537   -0.960426    0.322283
     18          1           0       -4.682528    1.518071    0.007016
     19          1           0       -2.526115    2.744709   -0.100598
     20          1           0        2.814082    2.381080   -0.579540
     21          1           0        4.770515    0.874448   -0.841868
     22          1           0        4.475417   -1.582884   -0.500532
     23          1           0        2.241202   -2.488428    0.074541
 ---------------------------------------------------------------------

 SCF Done:  E(UB3LYP) =  -973.909127685     A.U. after    1 cycles

 Alpha  occ. eigenvalues --  -88.85612 -19.05035 -10.20353 -10.20351 -10.20166
 Alpha  occ. eigenvalues --  -10.17181 -10.17179 -10.17011 -10.17011 -10.16567
 Alpha  occ. eigenvalues --  -10.16566 -10.16504 -10.16504 -10.16005 -10.16002
 Alpha  occ. eigenvalues --   -7.94259  -5.90618  -5.90239  -5.89723  -0.96915
 Alpha  occ. eigenvalues --   -0.86831  -0.84946  -0.79545  -0.75606  -0.74601
 Alpha  occ. eigenvalues --   -0.73878  -0.69456  -0.64155  -0.60864  -0.58893
 Alpha  occ. eigenvalues --   -0.57639  -0.53756  -0.51963  -0.47637  -0.45741
 Alpha  occ. eigenvalues --   -0.45577  -0.45013  -0.42487  -0.41741  -0.40718
 Alpha  occ. eigenvalues --   -0.40539  -0.39008  -0.37955  -0.36725  -0.35684
 Alpha  occ. eigenvalues --   -0.34714  -0.34480  -0.33000  -0.31759  -0.30456
 Alpha  occ. eigenvalues --   -0.26026  -0.25059  -0.24936  -0.22542  -0.21151
 Alpha  occ. eigenvalues --   -0.11187
 Alpha virt. eigenvalues --   -0.02301  -0.01009  -0.00984  -0.00175   0.00261
 Alpha virt. eigenvalues --    0.01262   0.02075   0.02153   0.03052   0.04015
 Alpha virt. eigenvalues --    0.04218   0.04446   0.05145   0.05150   0.05944

  Beta  occ. eigenvalues --  -88.85595 -19.04486 -10.20212 -10.20211 -10.19741
  Beta  occ. eigenvalues --  -10.17248 -10.17245 -10.17052 -10.17051 -10.16643
  Beta  occ. eigenvalues --  -10.16642 -10.16295 -10.16295 -10.15807 -10.15804
  Beta  occ. eigenvalues --   -7.94243  -5.90614  -5.90234  -5.89659  -0.95863
  Beta  occ. eigenvalues --   -0.86586  -0.84747  -0.79334  -0.75187  -0.74383
  Beta  occ. eigenvalues --   -0.73654  -0.69282  -0.63486  -0.60657  -0.58723
  Beta  occ. eigenvalues --   -0.57358  -0.53433  -0.51837  -0.47398  -0.45611
  Beta  occ. eigenvalues --   -0.45351  -0.44949  -0.42378  -0.41669  -0.40386
  Beta  occ. eigenvalues --   -0.39743  -0.38567  -0.37797  -0.36199  -0.35410
  Beta  occ. eigenvalues --   -0.34585  -0.32882  -0.32472  -0.31511  -0.30000
  Beta  occ. eigenvalues --   -0.25458  -0.24296  -0.23380  -0.22052  -0.20440
  Beta virt. eigenvalues --   -0.05251  -0.01751  -0.00483  -0.00160  -0.00158
  Beta virt. eigenvalues --    0.00280   0.01266   0.02093   0.02157   0.03107
  Beta virt. eigenvalues --    0.04048   0.04272   0.04553   0.05169   0.05878

 Mulliken charges and spin densities:
               1          2
     1  O   -0.548626   0.213105
     2  C   -0.130289   0.289126
     3  C    1.318199  -0.022600
     4  C    0.211688   0.201317
     5  C   -0.493095  -0.071566
     6  C   -0.296714   0.170454
     7  C   -0.362064  -0.048064
     8  C   -0.806698   0.018481
     9  S   -0.853534   0.039414
    10  C   -0.805141   0.018456
    11  C   -0.363588  -0.048172
    12  C   -0.296899   0.170570
    13  C   -0.491853  -0.071600
    14  C    0.209925   0.201381
    15  C    1.321057  -0.022546
    16  H    0.174721  -0.012069
    17  H    0.170116   0.004236
    18  H    0.171668  -0.011854
    19  H    0.177133   0.000811
    20  H    0.177209   0.000810
    21  H    0.171684  -0.011861
    22  H    0.170150   0.004239
    23  H    0.174950  -0.012066
 Sum of Mulliken charges =  -1.00000   1.00000

 Dipole moment (field-independent basis, Debye):
    X=              0.1959    Y=              5.7892    Z=             -2.2119  Tot=              6.2005
 Quadrupole moment (field-independent basis, Debye-Ang):
   XX=           -100.8183   YY=           -115.6874   ZZ=           -106.0997
   XY=             -0.7084   XZ=             -0.2423   YZ=              3.4777

  Exact polarizability: 570.408 -19.942 301.108 -39.062 -14.505 152.085
 Approx polarizability: 566.088 -16.437 355.799 -37.339 -20.361 170.818

                      1                      2                      3
                      A                      A                      A
 Frequencies --     36.1044               102.3815               140.6674
 Red. masses --      7.7278                 3.8529                 5.4058
 Frc consts  --      0.0059                 0.0238                 0.0630
 IR Inten    --      6.6267                 1.1259                 4.2492

                      4                      5                      6
                      A                      A                      A
 Frequencies --    188.8214               233.1337               234.1551
 Red. masses --      6.7020                 5.1406                 5.3702
 Frc consts  --      0.1408                 0.1646                 0.1735
 IR Inten    --      0.1042                 2.0219                10.5491

                      7                      8                      9
                      A                      A                      A
 Frequencies --    319.1872               332.3840               385.5379
 Red. masses --      6.7768                 7.1137                 4.2717
 Frc consts  --      0.4068                 0.4630                 0.3741
 IR Inten    --      1.0505                 6.6318                 2.4768

                     10                     11                     12
                      A                      A                      A
 Frequencies --    411.2128               434.4432               445.8217
 Red. masses --      9.0978                 9.9635                 3.2836
 Frc consts  --      0.9064                 1.1080                 0.3845
 IR Inten    --     12.1105                 3.1341                 1.6580

                     13                     14                     15
                      A                      A                      A
 Frequencies --    466.7512               498.2260               513.8464
 Red. masses --     10.7988                 4.9155                 4.2894
 Frc consts  --      1.3861                 0.7189                 0.6673
 IR Inten    --      0.0146                 6.7319                 0.1536

                     16                     17                     18
                      A                      A                      A
 Frequencies --    584.9831               620.5887               630.1764
 Red. masses --      6.5452                 4.4222                 6.9988
 Frc consts  --      1.3196                 1.0034                 1.6376
 IR Inten    --      0.4889                36.2921                 8.5251

                     19                     20                     21
                      A                      A                      A
 Frequencies --    671.3806               706.2667               719.8241
 Red. masses --      6.3281                 4.5499                 1.9983
 Frc consts  --      1.6806                 1.3372                 0.6101
 IR Inten    --      0.1188                 6.0737               128.8790

                     22                     23                     24
                      A                      A                      A
 Frequencies --    724.1775               737.9567               750.5531
 Red. masses --      6.4876                 1.2451                 2.0204
 Frc consts  --      2.0046                 0.3995                 0.6706
 IR Inten    --     20.0011                 4.2330               102.9695

                     25                     26                     27
                      A                      A                      A
 Frequencies --    775.8454               849.1041               853.2906
 Red. masses --      6.5965                 1.3876                 1.3759
 Frc consts  --      2.3394                 0.5894                 0.5902
 IR Inten    --     21.2078                 2.2930                 3.7272

                     28                     29                     30
                      A                      A                      A
 Frequencies --    920.3865               921.9270               928.0956
 Red. masses --      1.3529                 1.3535                 6.3677
 Frc consts  --      0.6752                 0.6778                 3.2316
 IR Inten    --      8.9834                 1.4890                 1.2886

                     31                     32                     33
                      A                      A                      A
 Frequencies --    973.8943               976.6327              1029.1070
 Red. masses --      1.2792                 1.2752                 5.2702
 Frc consts  --      0.7149                 0.7166                 3.2885
 IR Inten    --      0.7059                 1.0730               941.5570

                     34                     35                     36
                      A                      A                      A
 Frequencies --   1040.3046              1061.7115              1072.0302
 Red. masses --      3.2239                 2.2171                 3.8269
 Frc consts  --      2.0556                 1.4725                 2.5913
 IR Inten    --      3.0458                26.1816                44.3866

                     37                     38                     39
                      A                      A                      A
 Frequencies --   1103.8285              1118.2639              1158.5833
 Red. masses --      1.7194                 1.7242                 1.1800
 Frc consts  --      1.2343                 1.2704                 0.9333
 IR Inten    --    336.5272                20.4822                 5.3941

                     40                     41                     42
                      A                      A                      A
 Frequencies --   1162.8440              1179.6638              1239.5933
 Red. masses --      1.1510                 2.6439                 2.0812
 Frc consts  --      0.9170                 2.1677                 1.8842
 IR Inten    --      0.1960                 0.4332               395.2133

                     43                     44                     45
                      A                      A                      A
 Frequencies --   1262.4289              1270.4862              1319.0164
 Red. masses --      3.0260                 1.6633                 7.4837
 Frc consts  --      2.8414                 1.5818                 7.6713
 IR Inten    --    681.2238                 1.0192                54.8849

                     46                     47                     48
                      A                      A                      A
 Frequencies --   1330.8877              1428.1940              1435.0097
 Red. masses --      6.2310                 1.9069                 4.9620
 Frc consts  --      6.5027                 2.2917                 6.0203
 IR Inten    --      3.1780               401.7941               481.6271

                     49                     50                     51
                      A                      A                      A
 Frequencies --   1457.2918              1458.5431              1492.8544
 Red. masses --      2.2166                 2.4604                 3.1092
 Frc consts  --      2.7735                 3.0838                 4.0826
 IR Inten    --     95.1665               101.3830               258.6729

                     52                     53                     54
                      A                      A                      A
 Frequencies --   1543.7023              1561.7527              1564.3805
 Red. masses --      4.3415                 5.2990                 4.4101
 Frc consts  --      6.0956                 7.6150                 6.3589
 IR Inten    --    112.7658                22.4541               256.2728

                     55                     56                     57
                      A                      A                      A
 Frequencies --   1610.7221              3152.8622              3153.2664
 Red. masses --      5.8370                 1.0858                 1.0862
 Frc consts  --      8.9225                 6.3593                 6.3630
 IR Inten    --      6.8478                36.4378                 1.6728

                     58                     59                     60
                      A                      A                      A
 Frequencies --   3157.9870              3158.0741              3182.0089
 Red. masses --      1.0897                 1.0897                 1.0941
 Frc consts  --      6.4028                 6.4032                 6.5268
 IR Inten    --     47.2007                33.2754                52.9116

                     61                     62                     63
                      A                      A                      A
 Frequencies --   3182.1927              3193.8065              3196.5698
 Red. masses --      1.0942                 1.0917                 1.0911
 Frc consts  --      6.5282                 6.5611                 6.5686
 IR Inten    --     14.8607                16.1303                13.2693

 - Thermochemistry -
 -------------------
 Temperature   298.150 Kelvin.  Pressure   1.00000 Atm.
 Atom     1 has atomic number  8 and mass  15.99491

 Molecular mass:   212.02959 amu.
 Principal axes and moments of inertia in atomic units:
                           1         2         3
     Eigenvalues --  1509.308514272.973285714.99336
           X            0.99370   0.05860   0.09558
           Y           -0.06768   0.99320   0.09472
           Z           -0.08938  -0.10059   0.99090
 This molecule is an asymmetric top.
 Rotational symmetry number  1.
 Warning -- assumption of classical behavior for rotation
           may cause significant error
 Rotational temperatures (Kelvin)      0.05739     0.02027     0.01516
 Rotational constants (GHZ):           1.19574     0.42236     0.31579
 Zero-point vibrational energy     438824.5 (Joules/Mol)
                                  104.88157 (Kcal/Mol)
 Warning -- explicit consideration of  17 degrees of freedom as
           vibrations may cause significant error
 Vibrational temperatures:     51.95   147.30   202.39   271.67   335.43
          (Kelvin)            336.90   459.24   478.23   554.70   591.64
                              625.07   641.44   671.55   716.84   739.31
                              841.66   892.89   906.68   965.97  1016.16
                             1035.67  1041.93  1061.76  1079.88  1116.27
                             1221.67  1227.69  1324.23  1326.45  1335.32
                             1401.22  1405.16  1480.66  1496.77  1527.57
                             1542.41  1588.16  1608.93  1666.94  1673.07
                             1697.27  1783.50  1816.35  1827.95  1897.77
                             1914.85  2054.85  2064.66  2096.72  2098.52
                             2147.88  2221.04  2247.01  2250.79  2317.47
                             4536.27  4536.85  4543.64  4543.76  4578.20
                             4578.47  4595.18  4599.15

 Zero-point correction=                           0.167139 (Hartree/Particle)
 Thermal correction to Energy=                    0.178331
 Thermal correction to Enthalpy=                  0.179275
 Thermal correction to Gibbs Free Energy=         0.128866
 Sum of electronic and zero-point Energies=           -973.741988
 Sum of electronic and thermal Energies=              -973.730797
 Sum of electronic and thermal Enthalpies=            -973.729852
 Sum of electronic and thermal Free Energies=         -973.780261

                     E (Thermal)             CV                S
                      KCal/Mol        Cal/Mol-Kelvin    Cal/Mol-Kelvin
 Total                  111.905             45.819            106.095
 Electronic               0.000              0.000              1.377
 Translational            0.889              2.981             41.958
 Rotational               0.889              2.981             31.978
 Vibrational            110.127             39.858             30.782
 Vibration     1          0.594              1.982              5.462
 Vibration     2          0.604              1.947              3.408
 Vibration     3          0.615              1.913              2.795
 Vibration     4          0.633              1.855              2.239
 Vibration     5          0.654              1.790              1.855
 Vibration     6          0.654              1.789              1.847
 Vibration     7          0.705              1.637              1.314
 Vibration     8          0.714              1.611              1.248
 Vibration     9          0.754              1.501              1.017
 Vibration    10          0.775              1.446              0.922
 Vibration    11          0.795              1.395              0.844
 Vibration    12          0.805              1.370              0.809
 Vibration    13          0.824              1.324              0.747
 Vibration    14          0.854              1.254              0.663
 Vibration    15          0.869              1.219              0.624
 Vibration    16          0.942              1.064              0.476
 Vibration    17          0.981              0.988              0.416

                           ! Non-Optimized Parameters !
 Normal termination of Gaussian 16 at Sun Feb 11 15:45:35 2024.
