 Q-Chem 5.4, Q-Chem, Inc., Pleasanton, CA (2021)
 Q-Chem 5.4.0 for Intel X86 EM64T Linux

User input:
--------------------------------------------------------------
$molecule
0 1
C                 -1.5538400000      0.3212260000      0.9082720000
C                 -2.0416940000      1.4316730000      0.3284070000
C                 -1.0738680000      2.3692710000     -0.3342830000
O                 -1.4650370000      3.3921870000     -0.8762140000
C                  0.3651990000      2.0311970000     -0.3195760000
C                  0.8530520000      0.9207500000      0.2602880000
C                 -0.1147940000     -0.0169490000      0.9228020000
O                  0.2763860000     -1.0398100000      1.4648290000
H                  1.0013910000      2.7542750000     -0.8167550000
C                  2.3034930000      0.5270220000      0.3057970000
C                  3.2885330000      1.4832280000     -0.3687350000
C                  4.7393720000      0.9965710000     -0.2695690000
C                  5.7450280000      1.9415660000     -0.9377740000
C                  7.1934490000      1.4476630000     -0.8362230000
C                  8.2588030000      2.4041510000     -1.4051990000
C                  9.6690650000      1.9005760000     -1.0666920000
C                  8.1122800000      2.6151030000     -2.9192080000
C                 -3.4921220000      1.8254550000      0.2829860000
C                 -4.4770780000      0.8696660000      0.9582300000
C                 -5.9278850000      1.3564670000      0.8592950000
C                 -6.9334710000      0.4118550000      1.5281480000
C                 -8.3818490000      0.9059410000      1.4268770000
C                 -9.4471710000     -0.0502110000      1.9964740000
C                -10.8574630000      0.4535170000      1.6583220000
C                 -9.3001540000     -0.2607870000      3.5104870000
H                 -2.1900170000     -0.4017950000      1.4055510000
H                  2.3911940000     -0.4752110000     -0.1314970000
H                  2.5775440000      0.3836030000      1.3582600000
H                  3.2116360000      2.4777930000      0.0869210000
H                  3.0222940000      1.6058630000     -1.4254920000
H                  4.8195490000      0.0013310000     -0.7249380000
H                  5.0075460000      0.8693620000      0.7868860000
H                  5.6693920000      2.9346100000     -0.4754590000
H                  5.4648020000      2.0717630000     -1.9891420000
H                  7.2832150000      0.4761470000     -1.3417480000
H                  7.4247830000      1.2607070000      0.2201030000
H                  8.1249220000      3.3783510000     -0.9145500000
H                  9.8045340000      1.7883890000      0.0131890000
H                 10.4354350000      2.5913790000     -1.4305210000
H                  9.8564450000      0.9248080000     -1.5286530000
H                  8.8874790000      3.2887680000     -3.2961850000
H                  7.1447620000      3.0483300000     -3.1841880000
H                  8.2113880000      1.6638990000     -3.4546350000
H                 -3.7663830000      1.9682930000     -0.7695070000
H                 -3.5796840000      2.8279360000      0.7197280000
H                 -4.2105220000      0.7474560000      2.0149580000
H                 -4.4004570000     -0.1251090000      0.5029850000
H                 -6.1963470000      1.4833070000     -0.1971300000
H                 -6.0078030000      2.3518900000      1.3143070000
H                 -6.6529370000      0.2819840000      2.5794740000
H                 -6.8581280000     -0.5813630000      1.0661570000
H                 -8.6134770000      1.0926050000      0.3705640000
H                 -8.4713160000      1.8776260000      1.9321310000
H                 -9.3136250000     -1.0245640000      1.5060360000
H                -11.6238250000     -0.2370630000      2.0225880000
H                -10.9932830000      0.5654540000      0.5784590000
H                -11.0445200000      1.4294350000      2.1201000000
H                -10.0753370000     -0.9342190000      3.8879130000
H                 -9.3989080000      0.6905750000      4.0456970000
H                 -8.3326170000     -0.6941120000      3.7752400000
$end
$rem
MAX_SCF_CYCLES=200
BASIS  =  6-311++G(d,p)
GUI  =  2
JOB_TYPE  =  SP
METHOD  =  B3LYP
THRESH = 14
SCF_CONVERGENCE  = 5
SOLVENT_METHOD = COSMO
$end
$solvent
dielectric 37.219
opticaldielectric 1.43
$end

--------------------------------------------------------------

             Standard Nuclear Orientation (Angstroms)
    I     Atom           X                Y                Z
 ----------------------------------------------------------------
    1      C       1.1281409977    -0.8579406757     0.1410077875
    2      C       1.4002565206     0.4461341736    -0.0397666936
    3      C       0.2476721753     1.3963141094    -0.1935282904
    4      O       0.4399091188     2.5915045745    -0.3597337296
    5      C      -1.1281344947     0.8581029299    -0.1395941754
    6      C      -1.4002492302    -0.4459711428     0.0411811871
    7      C      -0.2476702718    -1.3961222449     0.1951445674
    8      O      -0.4399043582    -2.5913285255     0.3612399897
    9      H      -1.9065924379     1.6028981623    -0.2581365957
   10      C      -2.7765737691    -1.0481694942     0.1041082123
   11      C      -3.9498331637    -0.0795421776    -0.0535326756
   12      C      -5.3084139871    -0.7864864910     0.0245097424
   13      C      -6.4996756801     0.1658115690    -0.1332287948
   14      C      -7.8548206673    -0.5477836567    -0.0523579741
   15      C      -9.0865334054     0.3437248780    -0.3007093208
   16      C     -10.3583795450    -0.5109290449    -0.3955130535
   17      C      -9.2497148581     1.4336736236     0.7686720580
   18      C       2.7765805212     1.0483203011    -0.1027970594
   19      C       3.9498579698     0.0795823640     0.0540220461
   20      C       5.3084392669     0.7864967442    -0.0242928142
   21      C       6.4997234021    -0.1658980768     0.1326963055
   22      C       7.8548641248     0.5476667208     0.0514896367
   23      C       9.0866353222    -0.3439524347     0.2991453495
   24      C      10.3585654352     0.5106164863     0.3935802230
   25      C       9.2493024215    -1.4336995226    -0.7705192304
   26      H       1.9065984782    -1.6027532620     0.2594354357
   27      H      -2.8603983081    -1.5908163833     1.0537904194
   28      H      -2.8318161307    -1.8349598381    -0.6582962491
   29      H      -3.8724229430     0.4442209257    -1.0139362093
   30      H      -3.9012805519     0.6920629661     0.7242372463
   31      H      -5.3889198464    -1.3115516771     0.9847791276
   32      H      -5.3585273331    -1.5618543601    -0.7504030986
   33      H      -6.4221002480     0.6842024281    -1.0980320489
   34      H      -6.4370605506     0.9427207083     0.6370595124
   35      H      -7.9562813902    -1.0262735038     0.9316186448
   36      H      -7.8638459327    -1.3631500961    -0.7867888407
   37      H      -8.9449924965     0.8412448869    -1.2703310075
   38      H     -10.2755241619    -1.2640235115    -1.1848573744
   39      H     -11.2359896808     0.1055802363    -0.6114298402
   40      H     -10.5466407717    -1.0365174103     0.5473321090
   41      H     -10.1370069140     2.0429188429     0.5727058607
   42      H      -8.3908646329     2.1082251277     0.8053827294
   43      H      -9.3677387086     0.9871210965     1.7626311763
   44      H       2.8320719791     1.8347114884     0.6600088818
   45      H       2.8601428229     1.5914633634    -1.0522136115
   46      H       3.9009536486    -0.6917306152    -0.7240178672
   47      H       3.8728138654    -0.4445383489     1.0142604397
   48      H       5.3588713865     1.5616104336     0.7508519345
   49      H       5.3886082240     1.3118694787    -0.9844210264
   50      H       6.4367713116    -0.9425833109    -0.6377900614
   51      H       6.4225110690    -0.6845636154     1.0973820377
   52      H       7.8642042399     1.3628505336     0.7861189629
   53      H       7.9559664067     1.0263948020    -0.9324084478
   54      H       8.9454752656    -0.8416559450     1.2687291720
   55      H      11.2362320518    -0.1059785125     0.6090171926
   56      H      10.2760780256     1.2635687655     1.1830989091
   57      H      10.5464631365     1.0363716052    -0.5492459508
   58      H      10.1366445704    -2.0430312036    -0.5750491792
   59      H       9.3669252691    -0.9869595078    -1.7644407447
   60      H       8.3903986939    -2.1081967700    -0.8069939194
 ----------------------------------------------------------------

    8   -1010.7643117265      3.75e-06  Convergence criterion met
 Total energy in the final basis set =    -1010.7643117265
    3   -1010.7787139028      7.69e-06  Convergence criterion met
 Total energy in the final basis set =    -1010.7787139028

                    Orbital Energies (a.u.)
 --------------------------------------------------------------

 Alpha MOs
 -- Occupied --
-19.1402 -19.1402 -10.2841 -10.2841 -10.2158 -10.2158 -10.1986 -10.1986
-10.1796 -10.1796 -10.1676 -10.1676 -10.1666 -10.1666 -10.1612 -10.1612
-10.1581 -10.1581 -10.1565 -10.1565 -10.1511 -10.1511 -10.1508 -10.1508
 -1.0719  -1.0701  -0.8665  -0.8302  -0.8139  -0.8100  -0.7922  -0.7783
 -0.7481  -0.7346  -0.7085  -0.6916  -0.6789  -0.6789  -0.6601  -0.6400
 -0.6090  -0.6058  -0.5812  -0.5751  -0.5726  -0.5537  -0.5529  -0.5209
 -0.4986  -0.4849  -0.4826  -0.4785  -0.4655  -0.4610  -0.4537  -0.4484
 -0.4406  -0.4395  -0.4367  -0.4320  -0.4296  -0.4263  -0.4197  -0.4126
 -0.4111  -0.4073  -0.3890  -0.3875  -0.3812  -0.3804  -0.3740  -0.3738
 -0.3685  -0.3673  -0.3521  -0.3509  -0.3451  -0.3443  -0.3364  -0.3354
 -0.3251  -0.3250  -0.3164  -0.3163  -0.3146  -0.3146  -0.3069  -0.3056
 -0.3032  -0.2908  -0.2810  -0.2753

          Ground-State Mulliken Net Atomic Charges

     Atom                 Charge (a.u.)
  ----------------------------------------
      1 C                    -0.737978
      2 C                     1.009534
      3 C                    -0.887669
      4 O                    -0.278597
      5 C                    -0.738020
      6 C                     1.009667
      7 C                    -0.887532
      8 O                    -0.278604
      9 H                     0.240482
     10 C                    -0.221290
     11 C                     0.173728
     12 C                    -0.435246
     13 C                     0.174574
     14 C                    -0.723688
     15 C                     0.471656
     16 C                    -0.667749
     17 C                    -0.696390
     18 C                    -0.221478
     19 C                     0.174217
     20 C                    -0.435383
     21 C                     0.174378
     22 C                    -0.724011
     23 C                     0.472065
     24 C                    -0.667823
     25 C                    -0.696363
     26 H                     0.240487
     27 H                     0.216984
     28 H                     0.214161
     29 H                     0.138619
     30 H                     0.136336
     31 H                     0.147390
     32 H                     0.137489
     33 H                     0.142967
     34 H                     0.113163
     35 H                     0.141905
     36 H                     0.136670
     37 H                     0.144853
     38 H                     0.141146
     39 H                     0.164781
     40 H                     0.146526
     41 H                     0.153055
     42 H                     0.150926
     43 H                     0.151443
     44 H                     0.214261
     45 H                     0.216888
     46 H                     0.136433
     47 H                     0.138477
     48 H                     0.137508
     49 H                     0.147351
     50 H                     0.113225
     51 H                     0.142980
     52 H                     0.136808
     53 H                     0.141952
     54 H                     0.144887
     55 H                     0.164761
     56 H                     0.141186
     57 H                     0.146494
     58 H                     0.153118
     59 H                     0.151421
     60 H                     0.150870
  ----------------------------------------
  Sum of atomic charges =     0.000000

                    Cartesian Multipole Moments
 -----------------------------------------------------------------
    Charge (ESU x 10^10)
                -0.0000
    Dipole Moment (Debye)
         X       0.0002      Y       0.0001      Z      -0.0004
       Tot       0.0004
    Quadrupole Moments (Debye-Ang)
        XX    -140.5510     XY      -3.3090     YY    -175.7933
        XZ       2.8029     YZ       2.7955     ZZ    -151.6352

 Total job time:  245.93s(wall), 1886.57s(cpu)
        *  Thank you very much for using Q-Chem.  Have a nice day.  *
