 Q-Chem 5.4, Q-Chem, Inc., Pleasanton, CA (2021)
 Q-Chem 5.4.0 for Intel X86 EM64T Linux

User input:
--------------------------------------------------------------
$molecule
-2 1
Br                 3.7430310000     -2.1820720000      0.6164710000
C                  2.2231580000     -0.9389230000      0.2604640000
C                  0.9521700000     -1.5252340000      0.3184000000
C                 -0.1585420000     -0.7096890000      0.0785140000
C                 -1.4996800000     -1.1929520000      0.1098700000
C                 -2.5844990000     -0.3764520000     -0.1288360000
C                 -2.3744370000      1.0077530000     -0.4199150000
C                 -1.0862870000      1.5050460000     -0.4572710000
C                  0.0588430000      0.7014510000     -0.2181150000
C                  1.3807680000      1.2996860000     -0.2758300000
O                  1.5488770000      2.5286340000     -0.5356640000
C                  2.5771410000      0.4149400000     -0.0162220000
O                  3.7583090000      0.8673870000     -0.0501310000
H                  0.8330540000     -2.5794170000      0.5423900000
H                 -1.6554130000     -2.2493040000      0.3322960000
H                 -3.5941530000     -0.7835870000     -0.0957370000
H                 -3.2250780000      1.6603620000     -0.6097670000
H                 -0.8972630000      2.5523700000     -0.6758190000
$end
$rem
MAX_SCF_CYCLES=200
BASIS  =  6-311++G(d,p)
GUI  =  2
JOB_TYPE  =  SP
METHOD  =  B3LYP
SOLVENT_METHOD = PCM
$end
$pcm
theory = CPCM
$end
$solvent
dielectric 37.219
opticaldielectric 1.43
$end

--------------------------------------------------------------

             Standard Nuclear Orientation (Angstroms)
    I     Atom           X                Y                Z
 ----------------------------------------------------------------
    1      Br      3.7430310000    -2.1820720000     0.6164710000
    2      C       2.2231580000    -0.9389230000     0.2604640000
    3      C       0.9521700000    -1.5252340000     0.3184000000
    4      C      -0.1585420000    -0.7096890000     0.0785140000
    5      C      -1.4996800000    -1.1929520000     0.1098700000
    6      C      -2.5844990000    -0.3764520000    -0.1288360000
    7      C      -2.3744370000     1.0077530000    -0.4199150000
    8      C      -1.0862870000     1.5050460000    -0.4572710000
    9      C       0.0588430000     0.7014510000    -0.2181150000
   10      C       1.3807680000     1.2996860000    -0.2758300000
   11      O       1.5488770000     2.5286340000    -0.5356640000
   12      C       2.5771410000     0.4149400000    -0.0162220000
   13      O       3.7583090000     0.8673870000    -0.0501310000
   14      H       0.8330540000    -2.5794170000     0.5423900000
   15      H      -1.6554130000    -2.2493040000     0.3322960000
   16      H      -3.5941530000    -0.7835870000    -0.0957370000
   17      H      -3.2250780000     1.6603620000    -0.6097670000
   18      H      -0.8972630000     2.5523700000    -0.6758190000
 ----------------------------------------------------------------

    9   -3109.0679759040      6.73e-06  Convergence criterion met
 Total energy in the final basis set =    -3109.0679759040

                    Orbital Energies (a.u.)
 --------------------------------------------------------------

 Alpha MOs
 -- Occupied --
******** -62.4554 -56.2755 -56.2723 -56.2721 -19.0337 -19.0310 -10.1865
-10.1852 -10.1841 -10.1538 -10.1525 -10.1510 -10.1487 -10.1474 -10.1390
-10.1386  -8.6639  -6.4938  -6.4833  -6.4828  -2.6049  -2.6020  -2.6017
 -2.5933  -2.5933  -0.9677  -0.9399  -0.8347  -0.7931  -0.7495  -0.7295
 -0.6827  -0.6570  -0.5807  -0.5680  -0.5396  -0.4836  -0.4634  -0.4518
 -0.4159  -0.4049  -0.3893  -0.3841  -0.3825  -0.3711  -0.3508  -0.3401
 -0.3272  -0.3171  -0.3080  -0.2836  -0.2715  -0.2689  -0.2336  -0.2231
 -0.1958  -0.1935  -0.1251

          Ground-State Mulliken Net Atomic Charges

     Atom                 Charge (a.u.)
  ----------------------------------------
      1 Br                   -0.316929
      2 C                     0.836804
      3 C                    -0.427878
      4 C                    -0.457226
      5 C                    -0.169427
      6 C                    -0.427926
      7 C                    -0.405235
      8 C                     0.090665
      9 C                     0.689188
     10 C                    -0.402489
     11 O                    -0.651909
     12 C                    -0.510082
     13 O                    -0.650150
     14 H                     0.166232
     15 H                     0.146169
     16 H                     0.176312
     17 H                     0.174726
     18 H                     0.139157
  ----------------------------------------
  Sum of atomic charges =    -2.000000

                    Cartesian Multipole Moments
 -----------------------------------------------------------------
    Charge (ESU x 10^10)
                -9.6064
    Dipole Moment (Debye)
         X     -21.0285      Y      -7.9120      Z       1.2217
       Tot      22.5009
    Quadrupole Moments (Debye-Ang)
        XX    -172.5954     XY     -12.6698     YY    -125.5398
        XZ       0.1297     YZ       5.6466     ZZ    -100.2927

 Total job time:  45.57s(wall), 170.61s(cpu)
        *  Thank you very much for using Q-Chem.  Have a nice day.  *
