 Gaussian 16, Revision A.03,
 Gaussian 16:  ES64L-G16RevA.03 25-Dec-2016

 ----------------------------------------------------------------------
 #P UB3LYP/6-311++G(d,p) nosym opt freq SCRF=(PCM,Solvent=n,n-DiMethylF
 ormamide)
 ----------------------------------------------------------------------

 -------
 Reduced
 -------
 Symbolic Z-matrix:
 Charge = -2 Multiplicity = 1

 SCF Done:  E(UB3LYP) =  -727.478732633     A.U. after   19 cycles
 SCF Done:  E(UB3LYP) =  -727.481018749     A.U. after   14 cycles
 SCF Done:  E(UB3LYP) =  -727.481533465     A.U. after   14 cycles
 SCF Done:  E(UB3LYP) =  -727.481628537     A.U. after   13 cycles
 SCF Done:  E(UB3LYP) =  -727.481692374     A.U. after   12 cycles
 SCF Done:  E(UB3LYP) =  -727.481733458     A.U. after   13 cycles
 SCF Done:  E(UB3LYP) =  -727.481752236     A.U. after   12 cycles
 SCF Done:  E(UB3LYP) =  -727.481761474     A.U. after   11 cycles
 SCF Done:  E(UB3LYP) =  -727.481767102     A.U. after   12 cycles
 SCF Done:  E(UB3LYP) =  -727.481775227     A.U. after   12 cycles
 SCF Done:  E(UB3LYP) =  -727.481779856     A.U. after   12 cycles
 SCF Done:  E(UB3LYP) =  -727.481780863     A.U. after   11 cycles
 SCF Done:  E(UB3LYP) =  -727.481781100     A.U. after   11 cycles
 SCF Done:  E(UB3LYP) =  -727.481781130     A.U. after    9 cycles
 SCF Done:  E(UB3LYP) =  -727.481781133     A.U. after    8 cycles
 Optimization completed.
    -- Stationary point found.
 Normal termination of Gaussian 16 at Sun Feb 11 03:42:12 2024.

 ----------------------------------------------------------------------
 #P Geom=AllCheck Guess=TCheck SCRF=Check GenChk UB3LYP/6-311++G(d,p) F
 req
 ----------------------------------------------------------------------

 Structure from the checkpoint file:  "266-an.chk"
 -------
 Reduced
 -------
 Charge = -2 Multiplicity = 1

                          Input orientation:
 ---------------------------------------------------------------------
 Center     Atomic      Atomic             Coordinates (Angstroms)
 Number     Number       Type             X           Y           Z
 ---------------------------------------------------------------------
      1          6           0       -1.227399    2.868831   -0.095024
      2          6           0       -2.523200    2.397562   -0.103984
      3          6           0       -2.769961    1.001576   -0.044004
      4          6           0       -0.101865    1.998714   -0.027199
      5          6           0       -0.357728    0.574195    0.031552
      6          6           0       -1.703000    0.127993    0.021748
      7          6           0        1.230865    2.555727   -0.017579
      8          6           0        2.259495    1.585954    0.053358
      9          6           0        2.021348    0.195627    0.105590
     10          6           0        0.732323   -0.378385    0.099302
     11          8           0        1.454796    3.848000   -0.068562
     12          8           0        0.531800   -1.671201    0.147855
     13          1           0       -1.030831    3.934623   -0.141462
     14          1           0       -1.870007   -0.943089    0.067977
     15          8           0        3.555880    2.106322    0.051704
     16          6           0        4.653378    1.221833    0.253044
     17          6           0        5.900861    2.047373    0.354176
     18          6           0        6.988397    1.858510   -0.390319
     19          1           0       -3.355828    3.093124   -0.157452
     20          1           0       -3.789000    0.626828   -0.049758
     21          1           0        2.856986   -0.493858    0.151107
     22          1           0        4.738642    0.500997   -0.569700
     23          1           0        4.508266    0.653108    1.182820
     24          1           0        5.885483    2.831147    1.108522
     25          1           0        7.026977    1.087803   -1.154739
     26          1           0        7.879434    2.462393   -0.257868
 ---------------------------------------------------------------------

 SCF Done:  E(UB3LYP) =  -727.481781133     A.U. after    1 cycles

 Alpha  occ. eigenvalues --  -19.12438 -19.01465 -19.01004 -10.21548 -10.18217
 Alpha  occ. eigenvalues --  -10.17628 -10.17120 -10.16746 -10.16390 -10.14781
 Alpha  occ. eigenvalues --  -10.14555 -10.14484 -10.14324 -10.13707 -10.13451
 Alpha  occ. eigenvalues --  -10.12081  -1.03291  -0.92252  -0.91471  -0.82232
 Alpha  occ. eigenvalues --   -0.79253  -0.76128  -0.72032  -0.70604  -0.68167
 Alpha  occ. eigenvalues --   -0.63491  -0.58829  -0.57608  -0.55935  -0.52841
 Alpha  occ. eigenvalues --   -0.49833  -0.48407  -0.47287  -0.45552  -0.44100
 Alpha  occ. eigenvalues --   -0.42495  -0.41643  -0.40072  -0.39226  -0.37782
 Alpha  occ. eigenvalues --   -0.37085  -0.36276  -0.35303  -0.34952  -0.33126
 Alpha  occ. eigenvalues --   -0.32421  -0.31536  -0.31357  -0.29674  -0.28691
 Alpha  occ. eigenvalues --   -0.27002  -0.22675  -0.21841  -0.20029  -0.19573
 Alpha  occ. eigenvalues --   -0.19132  -0.10996
 Alpha virt. eigenvalues --   -0.00778  -0.00384   0.00099   0.00686   0.01513
 Alpha virt. eigenvalues --    0.01649   0.02172   0.02365   0.03102   0.03972
 Alpha virt. eigenvalues --    0.04750   0.05434   0.05664   0.05953   0.06585

  Beta  occ. eigenvalues --  -19.12438 -19.01465 -19.01004 -10.21548 -10.18217
  Beta  occ. eigenvalues --  -10.17628 -10.17120 -10.16746 -10.16390 -10.14781
  Beta  occ. eigenvalues --  -10.14555 -10.14484 -10.14324 -10.13707 -10.13451
  Beta  occ. eigenvalues --  -10.12081  -1.03291  -0.92252  -0.91471  -0.82232
  Beta  occ. eigenvalues --   -0.79253  -0.76128  -0.72032  -0.70604  -0.68167
  Beta  occ. eigenvalues --   -0.63491  -0.58829  -0.57608  -0.55935  -0.52841
  Beta  occ. eigenvalues --   -0.49833  -0.48407  -0.47287  -0.45552  -0.44100
  Beta  occ. eigenvalues --   -0.42495  -0.41643  -0.40072  -0.39226  -0.37782
  Beta  occ. eigenvalues --   -0.37085  -0.36276  -0.35303  -0.34952  -0.33126
  Beta  occ. eigenvalues --   -0.32421  -0.31536  -0.31357  -0.29674  -0.28691
  Beta  occ. eigenvalues --   -0.27002  -0.22675  -0.21841  -0.20029  -0.19573
  Beta  occ. eigenvalues --   -0.19132  -0.10996
  Beta virt. eigenvalues --   -0.00778  -0.00384   0.00099   0.00686   0.01513
  Beta virt. eigenvalues --    0.01649   0.02172   0.02365   0.03102   0.03972
  Beta virt. eigenvalues --    0.04750   0.05434   0.05664   0.05953   0.06585

 Mulliken charges and spin densities:
               1          2
     1  C    0.039381  -0.000000
     2  C   -0.445183   0.000000
     3  C   -0.381845  -0.000000
     4  C    0.137444  -0.000000
     5  C    0.517098   0.000000
     6  C    0.080375   0.000000
     7  C   -0.578582   0.000000
     8  C   -0.487546  -0.000000
     9  C    0.353537  -0.000000
    10  C   -0.366543   0.000000
    11  O   -0.745486   0.000000
    12  O   -0.710971   0.000000
    13  H    0.143432  -0.000000
    14  H    0.139596   0.000000
    15  O   -0.172056   0.000000
    16  C   -0.282628  -0.000000
    17  C   -0.034169   0.000000
    18  C   -0.460024  -0.000000
    19  H    0.155174   0.000000
    20  H    0.154936  -0.000000
    21  H    0.161258   0.000000
    22  H    0.138954   0.000000
    23  H    0.152990  -0.000000
    24  H    0.192499   0.000000
    25  H    0.141738   0.000000
    26  H    0.156621   0.000000
 Sum of Mulliken charges =  -2.00000   0.00000

 Dipole moment (field-independent basis, Debye):
    X=             -6.9283    Y=            -12.6203    Z=              0.0472  Tot=             14.3971
 Quadrupole moment (field-independent basis, Debye-Ang):
   XX=           -113.9703   YY=           -179.9267   ZZ=           -104.5791
   XY=            -22.0804   XZ=              0.8132   YZ=              3.8244

  Exact polarizability: 408.152  -3.174 313.070  -3.926  -4.694 161.924
 Approx polarizability: 436.844  -1.891 356.941  -5.721  -5.240 177.497

                      1                      2                      3
                      A                      A                      A
 Frequencies --     27.9865                64.9650                86.4057
 Red. masses --      4.8799                 2.7455                 7.1906
 Frc consts  --      0.0023                 0.0068                 0.0316
 IR Inten    --      7.3480                 0.9204                20.1989

                      4                      5                      6
                      A                      A                      A
 Frequencies --     98.7560               133.9177               141.2927
 Red. masses --      2.7148                 3.4546                 3.7665
 Frc consts  --      0.0156                 0.0365                 0.0443
 IR Inten    --      5.3705                 3.2440                 1.1800

                      7                      8                      9
                      A                      A                      A
 Frequencies --    184.2799               252.6536               259.2167
 Red. masses --      8.2867                 5.1541                 5.4113
 Frc consts  --      0.1658                 0.1938                 0.2142
 IR Inten    --      8.6563                 7.0395                 9.8702

                     10                     11                     12
                      A                      A                      A
 Frequencies --    266.8556               304.4330               350.0204
 Red. masses --      4.3946                 3.9577                 9.9897
 Frc consts  --      0.1844                 0.2161                 0.7211
 IR Inten    --      5.6467                 0.7770                 7.5056

                     13                     14                     15
                      A                      A                      A
 Frequencies --    379.9233               443.0427               458.1854
 Red. masses --      7.8169                 3.1342                 2.4526
 Frc consts  --      0.6648                 0.3625                 0.3034
 IR Inten    --      0.4697                10.3053                 3.9141

                     16                     17                     18
                      A                      A                      A
 Frequencies --    477.0008               479.0977               520.5265
 Red. masses --     10.2797                 6.1211                 3.6891
 Frc consts  --      1.3781                 0.8278                 0.5889
 IR Inten    --      1.0275                 4.6498                 7.1225

                     19                     20                     21
                      A                      A                      A
 Frequencies --    551.9380               622.3102               637.6618
 Red. masses --      5.4855                 2.5367                 2.5925
 Frc consts  --      0.9846                 0.5788                 0.6211
 IR Inten    --     17.4561                38.8297                 3.2541

                     22                     23                     24
                      A                      A                      A
 Frequencies --    681.7361               691.5155               705.6518
 Red. masses --      4.7297                 3.4961                 3.3624
 Frc consts  --      1.2951                 0.9850                 0.9865
 IR Inten    --      0.5198                16.9636                40.2226

                     25                     26                     27
                      A                      A                      A
 Frequencies --    726.0456               760.8237               778.3021
 Red. masses --      5.8714                 1.5629                 2.6886
 Frc consts  --      1.8235                 0.5330                 0.9596
 IR Inten    --     86.0188               125.6000                 6.4438

                     28                     29                     30
                      A                      A                      A
 Frequencies --    806.1076               842.4971               854.0029
 Red. masses --      2.4388                 4.7485                 1.6266
 Frc consts  --      0.9337                 1.9858                 0.6990
 IR Inten    --     21.2453                35.9979                 0.3085

                     31                     32                     33
                      A                      A                      A
 Frequencies --    929.1185               946.8422               956.7588
 Red. masses --      2.5452                 2.0725                 1.3422
 Frc consts  --      1.2946                 1.0947                 0.7239
 IR Inten    --    168.3904                61.8434                81.6022

                     34                     35                     36
                      A                      A                      A
 Frequencies --    971.2492               978.7593               998.3364
 Red. masses --      1.3651                 1.2500                 1.6787
 Frc consts  --      0.7587                 0.7055                 0.9858
 IR Inten    --      4.1067                 0.5168                38.7656

                     37                     38                     39
                      A                      A                      A
 Frequencies --   1015.6996              1031.9061              1064.7557
 Red. masses --      2.0828                 1.2499                 5.3245
 Frc consts  --      1.2660                 0.7841                 3.5566
 IR Inten    --     77.1130                46.7654               352.6545

                     40                     41                     42
                      A                      A                      A
 Frequencies --   1087.8539              1123.8931              1138.3864
 Red. masses --      3.1041                 1.7417                 3.0645
 Frc consts  --      2.1644                 1.2962                 2.3398
 IR Inten    --    211.8359                 8.4717               495.2478

                     43                     44                     45
                      A                      A                      A
 Frequencies --   1157.9655              1170.5339              1202.3527
 Red. masses --      1.6694                 1.8833                 1.8771
 Frc consts  --      1.3189                 1.5203                 1.5988
 IR Inten    --    187.3443                45.4869               668.8878

                     46                     47                     48
                      A                      A                      A
 Frequencies --   1233.3509              1261.7881              1273.4723
 Red. masses --      2.6962                 1.2175                 2.0381
 Frc consts  --      2.4164                 1.1421                 1.9474
 IR Inten    --    121.1099                 8.7224               178.9117

                     49                     50                     51
                      A                      A                      A
 Frequencies --   1309.0018              1315.3974              1362.0465
 Red. masses --      1.3128                 5.4944                 7.2720
 Frc consts  --      1.3254                 5.6013                 7.9485
 IR Inten    --     24.4692               595.0807              1483.0831

                     52                     53                     54
                      A                      A                      A
 Frequencies --   1377.3127              1385.0405              1432.8223
 Red. masses --      1.6676                 2.7144                 2.8138
 Frc consts  --      1.8638                 3.0680                 3.4035
 IR Inten    --     37.9300               268.4456               123.4935

                     55                     56                     57
                      A                      A                      A
 Frequencies --   1446.1334              1455.0464              1499.7799
 Red. masses --      2.6565                 1.2498                 1.2352
 Frc consts  --      3.2732                 1.5589                 1.6370
 IR Inten    --     97.5109                16.7471                39.8179

                     58                     59                     60
                      A                      A                      A
 Frequencies --   1508.2544              1527.9031              1586.3706
 Red. masses --      3.0509                 4.4622                 7.4625
 Frc consts  --      4.0891                 6.1375                11.0648
 IR Inten    --     62.2668               439.0081                20.3046

                     61                     62                     63
                      A                      A                      A
 Frequencies --   1606.3075              1698.9853              2971.0212
 Red. masses --      5.4952                 4.7255                 1.0591
 Frc consts  --      8.3540                 8.0367                 5.5080
 IR Inten    --     19.3327                11.6682                86.6336

                     64                     65                     66
                      A                      A                      A
 Frequencies --   3014.4090              3121.9515              3135.8110
 Red. masses --      1.1006                 1.0588                 1.0848
 Frc consts  --      5.8923                 6.0803                 6.2852
 IR Inten    --     67.0769                21.6048                17.3216

                     67                     68                     69
                      A                      A                      A
 Frequencies --   3135.8600              3151.9932              3166.4663
 Red. masses --      1.0915                 1.0890                 1.0867
 Frc consts  --      6.3241                 6.3744                 6.4198
 IR Inten    --     18.2365                34.1721                65.9367

                     70                     71                     72
                      A                      A                      A
 Frequencies --   3170.4197              3174.5008              3207.5474
 Red. masses --      1.0903                 1.0931                 1.1154
 Frc consts  --      6.4570                 6.4901                 6.7613
 IR Inten    --     55.7351                60.2962                22.7976

 - Thermochemistry -
 -------------------
 Temperature   298.150 Kelvin.  Pressure   1.00000 Atm.
 Atom     1 has atomic number  6 and mass  12.00000

 Molecular mass:   214.06299 amu.
 Principal axes and moments of inertia in atomic units:
                           1         2         3
     Eigenvalues --  1531.965326104.672327574.63007
           X            0.99597  -0.08916  -0.01011
           Y            0.08950   0.99512   0.04149
           Z            0.00637  -0.04223   0.99909
 This molecule is an asymmetric top.
 Rotational symmetry number  1.
 Warning -- assumption of classical behavior for rotation
           may cause significant error
 Rotational temperatures (Kelvin)      0.05654     0.01419     0.01143
 Rotational constants (GHZ):           1.17806     0.29563     0.23826
 Zero-point vibrational energy     507758.3 (Joules/Mol)
                                  121.35714 (Kcal/Mol)
 Warning -- explicit consideration of  19 degrees of freedom as
           vibrations may cause significant error
 Vibrational temperatures:     40.27    93.47   124.32   142.09   192.68
          (Kelvin)            203.29   265.14   363.51   372.96   383.95
                              438.01   503.60   546.62   637.44   659.23
                              686.30   689.31   748.92   794.12   895.37
                              917.45   980.87   994.94  1015.28  1044.62
                             1094.66  1119.80  1159.81  1212.17  1228.72
                             1336.79  1362.29  1376.56  1397.41  1408.22
                             1436.38  1461.37  1484.68  1531.95  1565.18
                             1617.03  1637.88  1666.05  1684.14  1729.92
                             1774.52  1815.43  1832.24  1883.36  1892.56
                             1959.68  1981.65  1992.76  2061.51  2080.66
                             2093.49  2157.85  2170.04  2198.31  2282.43
                             2311.12  2444.46  4274.64  4337.06  4491.79
                             4511.73  4511.80  4535.02  4555.84  4561.53
                             4567.40  4614.95

 Zero-point correction=                           0.193395 (Hartree/Particle)
 Thermal correction to Energy=                    0.206984
 Thermal correction to Enthalpy=                  0.207928
 Thermal correction to Gibbs Free Energy=         0.152160
 Sum of electronic and zero-point Energies=           -727.288386
 Sum of electronic and thermal Energies=              -727.274797
 Sum of electronic and thermal Enthalpies=            -727.273853
 Sum of electronic and thermal Free Energies=         -727.329621

                     E (Thermal)             CV                S
                      KCal/Mol        Cal/Mol-Kelvin    Cal/Mol-Kelvin
 Total                  129.884             52.380            117.373
 Electronic               0.000              0.000              0.000
 Translational            0.889              2.981             41.987
 Rotational               0.889              2.981             32.627
 Vibrational            128.107             46.418             42.759
 Vibration     1          0.593              1.984              5.967
 Vibration     2          0.597              1.971              4.300
 Vibration     3          0.601              1.959              3.740
 Vibration     4          0.604              1.950              3.479
 Vibration     5          0.613              1.919              2.889
 Vibration     6          0.615              1.912              2.786
 Vibration     7          0.631              1.861              2.285
 Vibration     8          0.664              1.758              1.712
 Vibration     9          0.668              1.747              1.667
 Vibration    10          0.672              1.734              1.616
 Vibration    11          0.695              1.665              1.392
 Vibration    12          0.727              1.575              1.166
 Vibration    13          0.750              1.513              1.039
 Vibration    14          0.803              1.376              0.817
 Vibration    15          0.816              1.343              0.771
 Vibration    16          0.834              1.301              0.718
 Vibration    17          0.836              1.296              0.713
 Vibration    18          0.876              1.205              0.609
 Vibration    19          0.907              1.135              0.540

 Optimization completed.
    -- Stationary point found.
 Normal termination of Gaussian 16 at Sun Feb 11 04:24:08 2024.
