 Gaussian 16, Revision A.03,
 Gaussian 16:  ES64L-G16RevA.03 25-Dec-2016

 ----------------------------------------------------------------
 #P UB3LYP/6-311++G(d,p) SCRF=(PCM,Solvent=n,n-DiMethylFormamide)
 ----------------------------------------------------------------

 -------
 Reduced
 -------
 Symbolic Z-matrix:
 Charge = -2 Multiplicity = 1

                         Standard orientation:
 ---------------------------------------------------------------------
 Center     Atomic      Atomic             Coordinates (Angstroms)
 Number     Number       Type             X           Y           Z
 ---------------------------------------------------------------------
      1          8           0       -1.301303    2.440896   -0.238038
      2          6           0       -0.728707    1.288182   -0.121092
      3          6           0        0.689540    1.171287   -0.134588
      4          6           0        1.440834   -0.014088   -0.011633
      5          6           0        0.728680   -1.288146    0.121235
      6          8           0        1.301248   -2.440882    0.238149
      7          6           0       -0.689557   -1.171250    0.134701
      8          6           0       -1.440837    0.014127    0.011812
      9          6           0       -2.910900   -0.052662    0.002056
     10          6           0       -3.611968   -1.278361   -0.166519
     11          6           0       -5.000466   -1.351005   -0.151434
     12          6           0       -5.780015   -0.202088    0.025114
     13          6           0       -5.115642    1.020660    0.176844
     14          6           0       -3.726328    1.101578    0.162541
     15          6           0        2.910906    0.052683   -0.002032
     16          6           0        3.612029    1.278360    0.166502
     17          6           0        5.000529    1.350966    0.151299
     18          6           0        5.780037    0.202035   -0.025330
     19          6           0        5.115620   -1.020696   -0.176979
     20          6           0        3.726306   -1.101582   -0.162562
     21          1           0        1.195040    2.121536   -0.276561
     22          1           0       -1.195087   -2.121498    0.276584
     23          1           0       -3.050521   -2.189955   -0.328320
     24          1           0       -5.482103   -2.317555   -0.289034
     25          1           0       -6.865723   -0.258078    0.032731
     26          1           0       -5.693890    1.933937    0.308230
     27          1           0       -3.207244    2.048776    0.249208
     28          1           0        3.050643    2.189974    0.328388
     29          1           0        5.482199    2.317504    0.288865
     30          1           0        6.865746    0.258000   -0.033030
     31          1           0        5.693832   -1.933991   -0.308398
     32          1           0        3.207182   -2.048768   -0.249158
 ---------------------------------------------------------------------

 SCF Done:  E(UB3LYP) =  -844.050178265     A.U. after   17 cycles

 The electronic state is 1-A.
 Alpha  occ. eigenvalues --  -19.01604 -19.01604 -10.17496 -10.17495 -10.16729
 Alpha  occ. eigenvalues --  -10.16729 -10.16286 -10.16286 -10.16064 -10.16064
 Alpha  occ. eigenvalues --  -10.15972 -10.15972 -10.15634 -10.15634 -10.14577
 Alpha  occ. eigenvalues --  -10.14577 -10.14020 -10.14018 -10.11936 -10.11935
 Alpha  occ. eigenvalues --   -0.93514  -0.93191  -0.84051  -0.84014  -0.78637
 Alpha  occ. eigenvalues --   -0.75944  -0.72974  -0.72957  -0.72579  -0.68228
 Alpha  occ. eigenvalues --   -0.64704  -0.61075  -0.59178  -0.58685  -0.57308
 Alpha  occ. eigenvalues --   -0.54542  -0.52887  -0.50007  -0.48257  -0.45438
 Alpha  occ. eigenvalues --   -0.44810  -0.44549  -0.43035  -0.41851  -0.40836
 Alpha  occ. eigenvalues --   -0.40456  -0.40338  -0.40003  -0.38068  -0.36780
 Alpha  occ. eigenvalues --   -0.36336  -0.35866  -0.35617  -0.34344  -0.33339
 Alpha  occ. eigenvalues --   -0.32633  -0.32462  -0.32113  -0.31488  -0.30967
 Alpha  occ. eigenvalues --   -0.27184  -0.25651  -0.24319  -0.24311  -0.21259
 Alpha  occ. eigenvalues --   -0.19205  -0.19041  -0.18862  -0.12063
 Alpha virt. eigenvalues --   -0.03507  -0.00164  -0.00001   0.00118   0.00369
 Alpha virt. eigenvalues --    0.00763   0.01398   0.01752   0.02144   0.03183
 Alpha virt. eigenvalues --    0.03448   0.03715   0.04538   0.05121   0.05398

  Beta  occ. eigenvalues --  -19.01604 -19.01604 -10.17496 -10.17495 -10.16729
  Beta  occ. eigenvalues --  -10.16729 -10.16286 -10.16286 -10.16064 -10.16064
  Beta  occ. eigenvalues --  -10.15972 -10.15972 -10.15634 -10.15634 -10.14577
  Beta  occ. eigenvalues --  -10.14577 -10.14020 -10.14018 -10.11936 -10.11935
  Beta  occ. eigenvalues --   -0.93514  -0.93191  -0.84051  -0.84014  -0.78637
  Beta  occ. eigenvalues --   -0.75944  -0.72974  -0.72957  -0.72579  -0.68228
  Beta  occ. eigenvalues --   -0.64704  -0.61075  -0.59178  -0.58685  -0.57308
  Beta  occ. eigenvalues --   -0.54542  -0.52887  -0.50007  -0.48257  -0.45438
  Beta  occ. eigenvalues --   -0.44810  -0.44549  -0.43035  -0.41851  -0.40836
  Beta  occ. eigenvalues --   -0.40456  -0.40338  -0.40003  -0.38068  -0.36780
  Beta  occ. eigenvalues --   -0.36336  -0.35866  -0.35617  -0.34344  -0.33339
  Beta  occ. eigenvalues --   -0.32633  -0.32462  -0.32113  -0.31488  -0.30967
  Beta  occ. eigenvalues --   -0.27184  -0.25651  -0.24319  -0.24311  -0.21259
  Beta  occ. eigenvalues --   -0.19205  -0.19041  -0.18862  -0.12063
  Beta virt. eigenvalues --   -0.03507  -0.00164  -0.00001   0.00118   0.00369
  Beta virt. eigenvalues --    0.00763   0.01398   0.01752   0.02144   0.03183
  Beta virt. eigenvalues --    0.03448   0.03715   0.04538   0.05121   0.05398

 Mulliken charges and spin densities:
               1          2
     1  O   -0.654854   0.000000
     2  C   -0.694459  -0.000000
     3  C   -0.870516   0.000000
     4  C    1.221396  -0.000000
     5  C   -0.694268   0.000000
     6  O   -0.654856   0.000000
     7  C   -0.870301  -0.000000
     8  C    1.221349   0.000000
     9  C    1.187618   0.000000
    10  C   -0.467296  -0.000000
    11  C   -0.496809   0.000000
    12  C   -0.394755  -0.000000
    13  C   -0.499454   0.000000
    14  C   -0.222605   0.000000
    15  C    1.187598  -0.000000
    16  C   -0.467487  -0.000000
    17  C   -0.496751   0.000000
    18  C   -0.394770   0.000000
    19  C   -0.499482  -0.000000
    20  C   -0.222373   0.000000
    21  H    0.079606  -0.000000
    22  H    0.079595   0.000000
    23  H    0.113339  -0.000000
    24  H    0.186410   0.000000
    25  H    0.154956  -0.000000
    26  H    0.183907   0.000000
    27  H    0.173318  -0.000000
    28  H    0.113351   0.000000
    29  H    0.186408   0.000000
    30  H    0.154956   0.000000
    31  H    0.183909  -0.000000
    32  H    0.173319   0.000000
 Sum of Mulliken charges =  -2.00000  -0.00000

 Dipole moment (field-independent basis, Debye):
    X=              0.0001    Y=             -0.0000    Z=             -0.0005  Tot=              0.0005
 Quadrupole moment (field-independent basis, Debye-Ang):
   XX=           -165.5909   YY=           -162.7747   ZZ=           -133.1694
   XY=             20.8903   XZ=             -1.9843   YZ=              6.3501

 Normal termination of Gaussian 16 at Wed Jan 24 22:55:35 2024.
