 Gaussian 16, Revision A.03,
 Gaussian 16:  ES64L-G16RevA.03 25-Dec-2016

 ----------------------------------------------------------------------
 #P UB3LYP/6-311++G(d,p) nosym opt freq SCRF=(PCM,Solvent=n,n-DiMethylF
 ormamide)
 ----------------------------------------------------------------------

 --------
 Oxidized
 --------
 Symbolic Z-matrix:
 Charge =  0 Multiplicity = 1

 SCF Done:  E(UB3LYP) =  -3577.32593324     A.U. after   16 cycles
 SCF Done:  E(UB3LYP) =  -3577.32606009     A.U. after   11 cycles
 SCF Done:  E(UB3LYP) =  -3577.32606507     A.U. after   11 cycles
 SCF Done:  E(UB3LYP) =  -3577.32608110     A.U. after   11 cycles
 SCF Done:  E(UB3LYP) =  -3577.32608164     A.U. after   10 cycles
 SCF Done:  E(UB3LYP) =  -3577.32608211     A.U. after    9 cycles
 SCF Done:  E(UB3LYP) =  -3577.32608219     A.U. after   10 cycles
 SCF Done:  E(UB3LYP) =  -3577.32608221     A.U. after    9 cycles
 SCF Done:  E(UB3LYP) =  -3577.32608222     A.U. after    8 cycles
 Optimization completed.
    -- Stationary point found.
 Normal termination of Gaussian 16 at Sun Feb 11 16:16:14 2024.

 ----------------------------------------------------------------------
 #P Geom=AllCheck Guess=TCheck SCRF=Check GenChk UB3LYP/6-311++G(d,p) F
 req
 ----------------------------------------------------------------------

 Structure from the checkpoint file:  "295.chk"
 --------
 Oxidized
 --------
 Charge =  0 Multiplicity = 1

                          Input orientation:
 ---------------------------------------------------------------------
 Center     Atomic      Atomic             Coordinates (Angstroms)
 Number     Number       Type             X           Y           Z
 ---------------------------------------------------------------------
      1          6           0       -0.942726    2.113559   -0.226309
      2          6           0       -1.373900    2.212459    1.093978
      3          6           0       -0.755803    1.451644    2.087140
      4          6           0        0.107977    1.252609   -0.551578
      5          6           0        0.732815    0.484366    0.446611
      6          6           0        0.293187    0.590591    1.764862
      7          6           0        0.574224    1.137749   -1.943389
      8          6           0        1.704480    0.207637   -2.233817
      9          6           0        2.317265   -0.548642   -1.289718
     10          6           0        1.861027   -0.445550    0.109537
     11          8           0        0.092622    1.760251   -2.885064
     12          8           0        2.391938   -1.113453    0.992498
     13          1           0       -1.411332    2.696352   -1.009385
     14          1           0       -2.188487    2.879875    1.348385
     15          1           0       -1.091298    1.528685    3.114673
     16          1           0        0.777564   -0.003053    2.529522
     17          8           0        2.069983    0.173050   -3.525058
     18          6           0        3.464413   -1.464426   -1.615418
     19          6           0        4.840139   -0.778703   -1.469400
     20          6           0        6.004182   -1.718637   -1.799584
     21          6           0        7.377968   -1.052795   -1.661708
     22          6           0        8.546826   -1.986500   -1.996350
     23          6           0        9.920638   -1.321454   -1.853979
     24          6           0       11.089121   -2.254124   -2.191812
     25          6           0       12.461318   -1.585344   -2.044056
     26          6           0       13.623234   -2.531745   -2.389450
     27          6           0       14.960146   -1.833844   -2.227021
     28         35           0       16.492034   -3.042214   -2.669999
     29          1           0        1.476940    0.786190   -3.999718
     30          1           0        3.352022   -1.829781   -2.639361
     31          1           0        3.423577   -2.327467   -0.946639
     32          1           0        4.948685   -0.405779   -0.445122
     33          1           0        4.877069    0.096210   -2.128140
     34          1           0        5.885051   -2.095626   -2.823431
     35          1           0        5.958470   -2.595834   -1.141693
     36          1           0        7.496537   -0.678397   -0.636760
     37          1           0        7.420068   -0.172626   -2.316162
     38          1           0        8.429782   -2.358402   -3.022439
     39          1           0        8.503075   -2.868353   -1.344218
     40          1           0       10.038452   -0.952013   -0.827153
     41          1           0        9.963787   -0.438249   -2.504228
     42          1           0       10.975019   -2.620726   -3.219696
     43          1           0       11.046948   -3.138098   -1.543150
     44          1           0       12.579455   -1.223362   -1.015578
     45          1           0       12.506083   -0.701781   -2.692137
     46          1           0       13.515667   -2.885549   -3.419395
     47          1           0       13.586397   -3.411582   -1.739806
     48          1           0       15.151738   -1.521529   -1.203132
     49          1           0       15.080433   -0.989361   -2.901531
 ---------------------------------------------------------------------

 SCF Done:  E(UB3LYP) =  -3577.32608222     A.U. after    2 cycles

 Alpha  occ. eigenvalues -- -482.82078 -62.47376 -56.29387 -56.29031 -56.29028
 Alpha  occ. eigenvalues --  -19.18100 -19.15107 -19.13024 -10.29530 -10.28226
 Alpha  occ. eigenvalues --  -10.26924 -10.22734 -10.21324 -10.21212 -10.20546
 Alpha  occ. eigenvalues --  -10.20379 -10.20191 -10.20021 -10.20004 -10.17812
 Alpha  occ. eigenvalues --  -10.17803 -10.17010 -10.16918 -10.16433 -10.16313
 Alpha  occ. eigenvalues --  -10.16166 -10.16141 -10.16089  -8.68326  -6.51380
 Alpha  occ. eigenvalues --   -6.50213  -6.50203  -2.62481  -2.62154  -2.62146
 Alpha  occ. eigenvalues --   -2.61220  -2.61220  -1.11019  -1.06868  -1.06151
 Alpha  occ. eigenvalues --   -0.89491  -0.84621  -0.82924  -0.81231  -0.79873
 Alpha  occ. eigenvalues --   -0.78370  -0.78169  -0.76171  -0.73464  -0.70699
 Alpha  occ. eigenvalues --   -0.68751  -0.66247  -0.65224  -0.62853  -0.60901
 Alpha  occ. eigenvalues --   -0.60426  -0.58956  -0.57786  -0.57745  -0.57528
 Alpha  occ. eigenvalues --   -0.54491  -0.52079  -0.49998  -0.49496  -0.48330
 Alpha  occ. eigenvalues --   -0.47922  -0.47334  -0.46891  -0.46238  -0.45526
 Alpha  occ. eigenvalues --   -0.44911  -0.44029  -0.43562  -0.42991  -0.42824
 Alpha  occ. eigenvalues --   -0.42586  -0.41673  -0.41019  -0.40229  -0.40103
 Alpha  occ. eigenvalues --   -0.39320  -0.38296  -0.37920  -0.37476  -0.37310
 Alpha  occ. eigenvalues --   -0.37051  -0.35523  -0.34900  -0.34841  -0.33644
 Alpha  occ. eigenvalues --   -0.33424  -0.32649  -0.32568  -0.32226  -0.31189
 Alpha  occ. eigenvalues --   -0.30389  -0.29179  -0.28529  -0.28436  -0.28234
 Alpha  occ. eigenvalues --   -0.28043  -0.25851
 Alpha virt. eigenvalues --   -0.12788  -0.05859  -0.02808  -0.02472  -0.00978
 Alpha virt. eigenvalues --   -0.00402   0.00123   0.00440   0.00621   0.00976
 Alpha virt. eigenvalues --    0.01298   0.01779   0.02143   0.02201   0.02288

  Beta  occ. eigenvalues -- -482.82078 -62.47376 -56.29387 -56.29031 -56.29028
  Beta  occ. eigenvalues --  -19.18100 -19.15107 -19.13024 -10.29530 -10.28226
  Beta  occ. eigenvalues --  -10.26924 -10.22734 -10.21324 -10.21212 -10.20546
  Beta  occ. eigenvalues --  -10.20379 -10.20191 -10.20021 -10.20004 -10.17812
  Beta  occ. eigenvalues --  -10.17803 -10.17010 -10.16918 -10.16433 -10.16313
  Beta  occ. eigenvalues --  -10.16166 -10.16141 -10.16089  -8.68326  -6.51380
  Beta  occ. eigenvalues --   -6.50213  -6.50203  -2.62481  -2.62154  -2.62146
  Beta  occ. eigenvalues --   -2.61220  -2.61220  -1.11019  -1.06868  -1.06151
  Beta  occ. eigenvalues --   -0.89491  -0.84621  -0.82924  -0.81231  -0.79873
  Beta  occ. eigenvalues --   -0.78370  -0.78169  -0.76171  -0.73464  -0.70699
  Beta  occ. eigenvalues --   -0.68751  -0.66247  -0.65224  -0.62853  -0.60901
  Beta  occ. eigenvalues --   -0.60426  -0.58956  -0.57786  -0.57745  -0.57528
  Beta  occ. eigenvalues --   -0.54491  -0.52079  -0.49998  -0.49496  -0.48330
  Beta  occ. eigenvalues --   -0.47922  -0.47334  -0.46891  -0.46238  -0.45526
  Beta  occ. eigenvalues --   -0.44911  -0.44029  -0.43562  -0.42991  -0.42824
  Beta  occ. eigenvalues --   -0.42586  -0.41673  -0.41019  -0.40229  -0.40103
  Beta  occ. eigenvalues --   -0.39320  -0.38296  -0.37920  -0.37476  -0.37310
  Beta  occ. eigenvalues --   -0.37051  -0.35523  -0.34900  -0.34841  -0.33644
  Beta  occ. eigenvalues --   -0.33424  -0.32649  -0.32568  -0.32226  -0.31189
  Beta  occ. eigenvalues --   -0.30389  -0.29179  -0.28529  -0.28436  -0.28234
  Beta  occ. eigenvalues --   -0.28043  -0.25851
  Beta virt. eigenvalues --   -0.12788  -0.05859  -0.02808  -0.02472  -0.00978
  Beta virt. eigenvalues --   -0.00402   0.00123   0.00440   0.00621   0.00976
  Beta virt. eigenvalues --    0.01298   0.01779   0.02143   0.02201   0.02288

 Mulliken charges and spin densities:
               1          2
     1  C    0.129386   0.000000
     2  C   -0.377781  -0.000000
     3  C   -0.393724   0.000000
     4  C    0.584830  -0.000000
     5  C   -0.144987  -0.000000
     6  C    0.135187   0.000000
     7  C   -0.838771   0.000000
     8  C   -0.462103   0.000000
     9  C    1.925019  -0.000000
    10  C   -0.767950  -0.000000
    11  O   -0.315274   0.000000
    12  O   -0.281662   0.000000
    13  H    0.191349   0.000000
    14  H    0.211493  -0.000000
    15  H    0.207685   0.000000
    16  H    0.192128  -0.000000
    17  O   -0.220585   0.000000
    18  C   -0.370926   0.000000
    19  C   -0.856380  -0.000000
    20  C   -0.296877  -0.000000
    21  C   -0.010494   0.000000
    22  C    0.037645   0.000000
    23  C   -0.007713   0.000000
    24  C   -0.149932   0.000000
    25  C   -0.326150   0.000000
    26  C   -0.365097  -0.000000
    27  C   -0.639322  -0.000000
    28  Br  -0.198654  -0.000000
    29  H    0.307930  -0.000000
    30  H    0.235081  -0.000000
    31  H    0.222226  -0.000000
    32  H    0.179003  -0.000000
    33  H    0.177368   0.000000
    34  H    0.119619  -0.000000
    35  H    0.121904  -0.000000
    36  H    0.129409  -0.000000
    37  H    0.129541  -0.000000
    38  H    0.133194  -0.000000
    39  H    0.133583  -0.000000
    40  H    0.132586  -0.000000
    41  H    0.132870  -0.000000
    42  H    0.133433   0.000000
    43  H    0.133649   0.000000
    44  H    0.138457   0.000000
    45  H    0.138564   0.000000
    46  H    0.149102   0.000000
    47  H    0.149140   0.000000
    48  H    0.206341   0.000000
    49  H    0.206660   0.000000
 Sum of Mulliken charges =  -0.00000   0.00000

 Dipole moment (field-independent basis, Debye):
    X=             -4.8324    Y=              3.6103    Z=              1.4876  Tot=              6.2129
 Quadrupole moment (field-independent basis, Debye-Ang):
   XX=           -242.0866   YY=           -167.2364   ZZ=           -160.2605
   XY=             30.8858   XZ=              8.4912   YZ=              1.2072

  Exact polarizability: 396.003 -90.612 323.260 -18.845 -16.869 392.694
 Approx polarizability: 401.667-101.216 375.622   4.165 -46.315 477.640

                      1                      2                      3
                      A                      A                      A
 Frequencies --      9.9651                14.0326                16.5082
 Red. masses --      6.4028                 3.4549                 3.3754
 Frc consts  --      0.0004                 0.0004                 0.0005
 IR Inten    --      0.1436                 1.0489                 0.9159

                      4                      5                      6
                      A                      A                      A
 Frequencies --     27.3748                34.9586                53.9200
 Red. masses --      3.5556                 6.5635                 3.1994
 Frc consts  --      0.0016                 0.0047                 0.0055
 IR Inten    --      0.2047                 3.5216                 0.5770

                      7                      8                      9
                      A                      A                      A
 Frequencies --     63.5458                74.6001                88.3176
 Red. masses --      7.5320                 1.8725                 6.6348
 Frc consts  --      0.0179                 0.0061                 0.0305
 IR Inten    --      3.1456                 0.5133                 1.9416

                     10                     11                     12
                      A                      A                      A
 Frequencies --     99.6828               100.1291               119.5629
 Red. masses --      2.7037                 5.5110                 5.1372
 Frc consts  --      0.0158                 0.0326                 0.0433
 IR Inten    --      1.2442                 0.3253                 0.3262

                     13                     14                     15
                      A                      A                      A
 Frequencies --    121.7118               135.9219               141.0992
 Red. masses --      1.9233                 5.9095                 2.2252
 Frc consts  --      0.0168                 0.0643                 0.0261
 IR Inten    --      0.0179                 1.9148                 0.2392

                     16                     17                     18
                      A                      A                      A
 Frequencies --    161.1597               169.1113               173.5515
 Red. masses --      2.0067                 2.0471                 6.1884
 Frc consts  --      0.0307                 0.0345                 0.1098
 IR Inten    --      0.0481                 0.1619                 0.3731

                     19                     20                     21
                      A                      A                      A
 Frequencies --    212.3926               235.5207               253.3620
 Red. masses --      4.9222                 4.6601                 4.3888
 Frc consts  --      0.1308                 0.1523                 0.1660
 IR Inten    --      0.4168                 1.1989                 0.7382

                     22                     23                     24
                      A                      A                      A
 Frequencies --    306.1900               312.8070               331.9719
 Red. masses --      2.9229                 4.6257                 5.0169
 Frc consts  --      0.1615                 0.2667                 0.3258
 IR Inten    --      5.7391                 0.8437                15.6903

                     25                     26                     27
                      A                      A                      A
 Frequencies --    363.4194               380.4387               387.2834
 Red. masses --      4.9419                 3.9140                 9.9009
 Frc consts  --      0.3846                 0.3338                 0.8749
 IR Inten    --      9.9174                 0.2765                35.1508

                     28                     29                     30
                      A                      A                      A
 Frequencies --    418.7199               429.3168               445.7236
 Red. masses --      9.9299                 3.6645                 4.9330
 Frc consts  --      1.0258                 0.3979                 0.5774
 IR Inten    --     16.6288                 4.4514                 9.3966

                     31                     32                     33
                      A                      A                      A
 Frequencies --    454.6101               482.3412               490.7107
 Red. masses --      4.8612                 3.4671                 4.7168
 Frc consts  --      0.5919                 0.4753                 0.6692
 IR Inten    --     19.0505                 1.9316                 1.4524

                     34                     35                     36
                      A                      A                      A
 Frequencies --    528.1083               583.5666               607.9116
 Red. masses --      6.2721                 2.8363                 1.3793
 Frc consts  --      1.0306                 0.5691                 0.3003
 IR Inten    --      5.0231                65.6303                76.9411

                     37                     38                     39
                      A                      A                      A
 Frequencies --    620.6541               653.4193               676.2512
 Red. masses --      4.6944                 6.3647                 5.9708
 Frc consts  --      1.0654                 1.6011                 1.6088
 IR Inten    --     69.5967                 9.1647                 5.2272

                     40                     41                     42
                      A                      A                      A
 Frequencies --    705.9897               712.1052               729.7100
 Red. masses --      3.1242                 4.6633                 1.0693
 Frc consts  --      0.9175                 1.3933                 0.3355
 IR Inten    --      3.0160                 9.1690                15.8475

                     43                     44                     45
                      A                      A                      A
 Frequencies --    732.8428               735.0208               740.5505
 Red. masses --      1.1159                 2.3441                 1.1401
 Frc consts  --      0.3531                 0.7462                 0.3684
 IR Inten    --      0.1884               114.4833                 9.0788

                     46                     47                     48
                      A                      A                      A
 Frequencies --    754.2045               775.6505               782.4453
 Red. masses --      1.1938                 7.2890                 1.2842
 Frc consts  --      0.4001                 2.5837                 0.4632
 IR Inten    --      0.0914                 1.6244                 1.4469

                     49                     50                     51
                      A                      A                      A
 Frequencies --    806.7230               825.0717               866.1178
 Red. masses --      1.9904                 1.4964                 1.9179
 Frc consts  --      0.7632                 0.6002                 0.8477
 IR Inten    --     15.7330                 4.7702                14.2703

                     52                     53                     54
                      A                      A                      A
 Frequencies --    910.3086               910.8686               945.3893
 Red. masses --      1.5329                 1.3484                 5.8683
 Frc consts  --      0.7484                 0.6592                 3.0902
 IR Inten    --     12.9101                 0.0865                65.3669

                     55                     56                     57
                      A                      A                      A
 Frequencies --    967.5116               980.9619               988.2692
 Red. masses --      1.4200                 5.0135                 4.9079
 Frc consts  --      0.7831                 2.8425                 2.8242
 IR Inten    --      2.2070                11.5202                 9.6142

                     58                     59                     60
                      A                      A                      A
 Frequencies --    997.8602              1009.7078              1020.5206
 Red. masses --      1.3903                 3.9572                 1.9757
 Frc consts  --      0.8157                 2.3770                 1.2123
 IR Inten    --      1.6325                48.2602                 2.5801

                     61                     62                     63
                      A                      A                      A
 Frequencies --   1022.1620              1028.4264              1040.8614
 Red. masses --      1.3339                 3.0199                 2.0483
 Frc consts  --      0.8211                 1.8818                 1.3075
 IR Inten    --      0.0850                 5.8233                49.6680

                     64                     65                     66
                      A                      A                      A
 Frequencies --   1046.9757              1055.7069              1060.3204
 Red. masses --      2.8354                 1.9253                 3.0047
 Frc consts  --      1.8312                 1.2643                 1.9903
 IR Inten    --      2.7838                 5.8603                 2.2113

                     67                     68                     69
                      A                      A                      A
 Frequencies --   1061.8397              1064.6025              1083.2249
 Red. masses --      2.6273                 2.2664                 1.0761
 Frc consts  --      1.7454                 1.5134                 0.7440
 IR Inten    --      0.5191                 0.2078                 2.0916

                     70                     71                     72
                      A                      A                      A
 Frequencies --   1108.5146              1110.7192              1131.4035
 Red. masses --      2.8113                 3.0118                 1.5931
 Frc consts  --      2.0353                 2.1892                 1.2015
 IR Inten    --      3.7522                 5.2652                67.6428

                     73                     74                     75
                      A                      A                      A
 Frequencies --   1178.2825              1193.0092              1213.8280
 Red. masses --      1.1721                 2.2485                 1.7161
 Frc consts  --      0.9588                 1.8855                 1.4897
 IR Inten    --     44.0301                64.7690                12.1921

                     76                     77                     78
                      A                      A                      A
 Frequencies --   1216.3783              1227.2349              1239.9516
 Red. masses --      1.1730                 2.5053                 1.2300
 Frc consts  --      1.0226                 2.2231                 1.1142
 IR Inten    --      8.9339               152.7159                28.9444

                     79                     80                     81
                      A                      A                      A
 Frequencies --   1250.0567              1270.2574              1278.9710
 Red. masses --      1.5045                 1.3178                 1.4428
 Frc consts  --      1.3852                 1.2528                 1.3905
 IR Inten    --    130.3582                64.0625                79.5502

                     82                     83                     84
                      A                      A                      A
 Frequencies --   1283.0551              1300.8947              1304.4113
 Red. masses --      1.8037                 1.5885                 1.3772
 Frc consts  --      1.7494                 1.5839                 1.3807
 IR Inten    --    173.7985               271.9645                44.3781

                     85                     86                     87
                      A                      A                      A
 Frequencies --   1308.0464              1318.8832              1325.9935
 Red. masses --      1.5617                 1.4145                 1.0695
 Frc consts  --      1.5744                 1.4497                 1.1079
 IR Inten    --      9.9047                61.7456                11.9069

                     88                     89                     90
                      A                      A                      A
 Frequencies --   1328.4817              1333.7072              1334.6626
 Red. masses --      1.1833                 1.1896                 1.3652
 Frc consts  --      1.2304                 1.2467                 1.4329
 IR Inten    --     21.0383                20.9278                12.3472

                     91                     92                     93
                      A                      A                      A
 Frequencies --   1335.7994              1338.8954              1357.7930
 Red. masses --      1.1204                 1.5346                 1.3895
 Frc consts  --      1.1779                 1.6208                 1.5093
 IR Inten    --      5.6461                69.1904                15.6096

                     94                     95                     96
                      A                      A                      A
 Frequencies --   1367.3608              1374.8068              1379.7186
 Red. masses --      6.4885                 1.4395                 2.1642
 Frc consts  --      7.1477                 1.6030                 2.4273
 IR Inten    --    119.6546                14.3820               592.2100

                     97                     98                     99
                      A                      A                      A
 Frequencies --   1388.3534              1396.2011              1397.7114
 Red. masses --      1.5138                 1.5811                 1.6417
 Frc consts  --      1.7191                 1.8160                 1.8896
 IR Inten    --      9.5731                 1.5939                 0.3198

                    100                    101                    102
                      A                      A                      A
 Frequencies --   1470.7153              1471.4339              1473.3245
 Red. masses --      1.1103                 1.0718                 1.0838
 Frc consts  --      1.4150                 1.3673                 1.3862
 IR Inten    --      9.3390                 0.0321                 2.4656

                    103                    104                    105
                      A                      A                      A
 Frequencies --   1474.0479              1477.4255              1483.1659
 Red. masses --      1.1040                 1.0889                 1.3233
 Frc consts  --      1.4133                 1.4004                 1.7150
 IR Inten    --      2.5414                 0.9103                 1.1374

                    106                    107                    108
                      A                      A                      A
 Frequencies --   1484.0768              1490.7354              1498.2659
 Red. masses --      1.6931                 1.0996                 1.1012
 Frc consts  --      2.1971                 1.4398                 1.4565
 IR Inten    --      8.7307                 0.9516                 4.6427

                    109                    110                    111
                      A                      A                      A
 Frequencies --   1504.3960              1504.6829              1508.3699
 Red. masses --      1.7485                 1.4131                 1.0999
 Frc consts  --      2.3316                 1.8850                 1.4744
 IR Inten    --      4.3140                 4.6379                30.8226

                    112                    113                    114
                      A                      A                      A
 Frequencies --   1610.2573              1618.9575              1673.2781
 Red. masses --      6.6404                 6.0680                10.5325
 Frc consts  --     10.1446                 9.3706                17.3747
 IR Inten    --     30.1926               304.5843               598.3687

                    115                    116                    117
                      A                      A                      A
 Frequencies --   1686.3181              1688.5103              2991.3288
 Red. masses --     11.9754                 7.5298                 1.0574
 Frc consts  --     20.0642                12.6486                 5.5747
 IR Inten    --    384.9011               124.7541                 0.4514

                    118                    119                    120
                      A                      A                      A
 Frequencies --   2991.5365              2995.1608              2998.1221
 Red. masses --      1.0573                 1.0581                 1.0583
 Frc consts  --      5.5752                 5.5927                 5.6050
 IR Inten    --      0.1404                 0.0655                 9.3247

                    121                    122                    123
                      A                      A                      A
 Frequencies --   3001.4993              3006.8189              3007.4182
 Red. masses --      1.0589                 1.0587                 1.0986
 Frc consts  --      5.6206                 5.6396                 5.8541
 IR Inten    --    149.9028               182.4582                 0.2095

                    124                    125                    126
                      A                      A                      A
 Frequencies --   3012.8531              3016.2819              3020.7566
 Red. masses --      1.1000                 1.0595                 1.1018
 Frc consts  --      5.8829                 5.6791                 5.9238
 IR Inten    --      1.0305                67.0024                 1.0398

                    127                    128                    129
                      A                      A                      A
 Frequencies --   3029.9044              3031.3569              3039.9383
 Red. masses --      1.1043                 1.0585                 1.1054
 Frc consts  --      5.9728                 5.7309                 6.0188
 IR Inten    --      2.2080                46.4941                18.4411

                    130                    131                    132
                      A                      A                      A
 Frequencies --   3047.0043              3048.3114              3054.5879
 Red. masses --      1.0613                 1.1036                 1.1041
 Frc consts  --      5.8055                 6.0420                 6.0698
 IR Inten    --     54.9596               183.2896               171.4284

                    133                    134                    135
                      A                      A                      A
 Frequencies --   3072.2022              3092.8419              3098.6215
 Red. masses --      1.1057                 1.1050                 1.0563
 Frc consts  --      6.1490                 6.2275                 5.9753
 IR Inten    --     86.0132                34.9283                22.1539

                    136                    137                    138
                      A                      A                      A
 Frequencies --   3164.1340              3180.2808              3192.1541
 Red. masses --      1.1123                 1.0875                 1.0910
 Frc consts  --      6.5610                 6.4804                 6.5499
 IR Inten    --      9.7754                 3.1637                 8.0130

                    139                    140                    141
                      A                      A                      A
 Frequencies --   3202.8575              3206.4464              3618.2102
 Red. masses --      1.0931                 1.0958                 1.0645
 Frc consts  --      6.6070                 6.6377                 8.2109
 IR Inten    --      4.0308                15.5335               280.6214

 - Thermochemistry -
 -------------------
 Temperature   298.150 Kelvin.  Pressure   1.00000 Atm.
 Atom     1 has atomic number  6 and mass  12.00000

 Molecular mass:   392.09871 amu.
 Principal axes and moments of inertia in atomic units:
                           1         2         3
     Eigenvalues --  2671.18399********************
           X            0.96366   0.12028   0.23851
           Y           -0.22913  -0.08677   0.96952
           Z           -0.13731   0.98894   0.05606
 This molecule is an asymmetric top.
 Rotational symmetry number  1.
 Warning -- assumption of classical behavior for rotation
           may cause significant error
 Rotational temperatures (Kelvin)      0.03243     0.00133     0.00130
 Rotational constants (GHZ):           0.67563     0.02772     0.02717
 Zero-point vibrational energy    1076482.3 (Joules/Mol)
                                  257.28545 (Kcal/Mol)
 Warning -- explicit consideration of  37 degrees of freedom as
           vibrations may cause significant error
 Vibrational temperatures:     14.34    20.19    23.75    39.39    50.30
          (Kelvin)             77.58    91.43   107.33   127.07   143.42
                              144.06   172.02   175.12   195.56   203.01
                              231.87   243.31   249.70   305.59   338.86
                              364.53   440.54   450.06   477.63   522.88
                              547.37   557.21   602.44   617.69   641.30
                              654.08   693.98   706.02   759.83   839.62
                              874.65   892.98   940.12   972.97  1015.76
                             1024.56  1049.89  1054.40  1057.53  1065.49
                             1085.13  1115.99  1125.76  1160.69  1187.09
                             1246.15  1309.73  1310.54  1360.20  1392.03
                             1411.39  1421.90  1435.70  1452.74  1468.30
                             1470.66  1479.68  1497.57  1506.36  1518.93
                             1525.56  1527.75  1531.73  1558.52  1594.91
                             1598.08  1627.84  1695.29  1716.47  1746.43
                             1750.10  1765.72  1784.01  1798.55  1827.62
                             1840.15  1846.03  1871.70  1876.76  1881.99
                             1897.58  1907.81  1911.39  1918.91  1920.28
                             1921.92  1926.37  1953.56  1967.33  1978.04
                             1985.11  1997.53  2008.82  2010.99  2116.03
                             2117.07  2119.79  2120.83  2125.69  2133.94
                             2135.26  2144.84  2155.67  2164.49  2164.90
                             2170.21  2316.80  2329.32  2407.47  2426.24
                             2429.39  4303.85  4304.15  4309.37  4313.63
                             4318.49  4326.14  4327.00  4334.82  4339.76
                             4346.20  4359.36  4361.45  4373.79  4383.96
                             4385.84  4394.87  4420.21  4449.91  4458.23
                             4552.48  4575.71  4592.80  4608.20  4613.36
                             5205.80

 Zero-point correction=                           0.410010 (Hartree/Particle)
 Thermal correction to Energy=                    0.434952
 Thermal correction to Enthalpy=                  0.435896
 Thermal correction to Gibbs Free Energy=         0.348490
 Sum of electronic and zero-point Energies=          -3576.916072
 Sum of electronic and thermal Energies=             -3576.891130
 Sum of electronic and thermal Enthalpies=           -3576.890186
 Sum of electronic and thermal Free Energies=        -3576.977593

                     E (Thermal)             CV                S
                      KCal/Mol        Cal/Mol-Kelvin    Cal/Mol-Kelvin
 Total                  272.936             91.199            183.962
 Electronic               0.000              0.000              0.000
 Translational            0.889              2.981             43.791
 Rotational               0.889              2.981             37.689
 Vibrational            271.159             85.237            102.483
 Vibration     1          0.593              1.987              8.018
 Vibration     2          0.593              1.986              7.338
 Vibration     3          0.593              1.986              7.015
 Vibration     4          0.593              1.984              6.011
 Vibration     5          0.594              1.982              5.526
 Vibration     6          0.596              1.976              4.668
 Vibration     7          0.597              1.972              4.344
 Vibration     8          0.599              1.966              4.028
 Vibration     9          0.601              1.957              3.697
 Vibration    10          0.604              1.949              3.461
 Vibration    11          0.604              1.949              3.452
 Vibration    12          0.609              1.933              3.107
 Vibration    13          0.609              1.931              3.073
 Vibration    14          0.614              1.917              2.860
 Vibration    15          0.615              1.912              2.789
 Vibration    16          0.622              1.890              2.536
 Vibration    17          0.625              1.880              2.445
 Vibration    18          0.627              1.875              2.397
 Vibration    19          0.643              1.822              2.023
 Vibration    20          0.655              1.786              1.836
 Vibration    21          0.665              1.757              1.707
 Vibration    22          0.697              1.662              1.383
 Vibration    23          0.701              1.649              1.347
 Vibration    24          0.714              1.612              1.250
 Vibration    25          0.737              1.548              1.107
 Vibration    26          0.750              1.512              1.037
 Vibration    27          0.756              1.497              1.011
 Vibration    28          0.782              1.430              0.896
 Vibration    29          0.791              1.406              0.861
 Vibration    30          0.805              1.370              0.809
 Vibration    31          0.813              1.351              0.782
 Vibration    32          0.839              1.289              0.704
 Vibration    33          0.847              1.271              0.682
 Vibration    34          0.883              1.188              0.591
 Vibration    35          0.940              1.067              0.479
 Vibration    36          0.967              1.015              0.436
 Vibration    37          0.981              0.988              0.415

 Optimization completed.
    -- Stationary point found.
 Normal termination of Gaussian 16 at Sun Feb 11 18:52:27 2024.
