 Gaussian 16, Revision A.03,
 Gaussian 16:  ES64L-G16RevA.03 25-Dec-2016

 ----------------------------------------------------------------
 #P UB3LYP/6-311++G(d,p) SCRF=(PCM,Solvent=n,n-DiMethylFormamide)
 ----------------------------------------------------------------

 ------------------
 Quinone PCM in DMF
 ------------------
 Symbolic Z-matrix:
 Charge =  0 Multiplicity = 1

                         Standard orientation:
 ---------------------------------------------------------------------
 Center     Atomic      Atomic             Coordinates (Angstroms)
 Number     Number       Type             X           Y           Z
 ---------------------------------------------------------------------
      1          6           0        0.907056   -1.400412    0.089436
      2          6           0       -0.423443   -0.674499    0.087139
      3          6           0       -0.423344    0.674379   -0.087480
      4          6           0        0.907246    1.400195   -0.089824
      5          6           0        2.208220    0.672706   -0.030342
      6          6           0        2.208109   -0.673049    0.030212
      7          6           0        3.423543   -1.555878    0.059941
      8          6           0        3.423788    1.555302   -0.059833
      9          8           0        0.936122   -2.622838    0.132641
     10          8           0        0.936402    2.622604   -0.133372
     11          1           0        4.348465   -0.993840   -0.045734
     12          1           0        3.368460   -2.298197   -0.739917
     13          1           0        3.461257   -2.122640    0.994599
     14          1           0        3.368315    2.298149    0.739498
     15          1           0        3.462262    2.121475   -0.994830
     16          1           0        4.348486    0.993092    0.046803
     17          6           0       -1.586069    1.654761   -0.250672
     18          6           0       -2.708312    1.256958   -1.221765
     19          6           0       -2.119577    2.168304    1.104980
     20          6           0       -1.586411   -1.654682    0.250234
     21          6           0       -2.121855   -2.166502   -1.105284
     22          6           0       -2.707031   -1.257529    1.223514
     23          1           0       -1.114641    2.527770   -0.703830
     24          1           0       -3.322073    2.140064   -1.423445
     25          1           0       -3.373286    0.483300   -0.842471
     26          1           0       -2.300557    0.916807   -2.177119
     27          1           0       -2.834340    2.978539    0.932304
     28          1           0       -1.305122    2.571047    1.711220
     29          1           0       -2.622877    1.391845    1.680717
     30          1           0       -1.114771   -2.528444    0.701681
     31          1           0       -2.835832   -2.977420   -0.932562
     32          1           0       -1.308113   -2.567966   -1.713338
     33          1           0       -2.626553   -1.389664   -1.679244
     34          1           0       -3.321381   -2.140375    1.424577
     35          1           0       -3.371801   -0.482570    0.846502
     36          1           0       -2.297616   -0.919418    2.178901
 ---------------------------------------------------------------------

 SCF Done:  E(UB3LYP) =  -696.163079740     A.U. after   14 cycles

 The electronic state is 1-A.
 Alpha  occ. eigenvalues --  -19.13257 -19.13257 -10.27752 -10.27751 -10.21022
 Alpha  occ. eigenvalues --  -10.20953 -10.20878 -10.20801 -10.18428 -10.18426
 Alpha  occ. eigenvalues --  -10.17324 -10.17323 -10.16097 -10.16096 -10.16074
 Alpha  occ. eigenvalues --  -10.16073  -1.06750  -1.06556  -0.86260  -0.83403
 Alpha  occ. eigenvalues --   -0.79868  -0.76443  -0.74962  -0.69272  -0.69097
 Alpha  occ. eigenvalues --   -0.68684  -0.67863  -0.62009  -0.60298  -0.57441
 Alpha  occ. eigenvalues --   -0.54075  -0.53345  -0.49010  -0.46617  -0.46352
 Alpha  occ. eigenvalues --   -0.45500  -0.45290  -0.44884  -0.43544  -0.43209
 Alpha  occ. eigenvalues --   -0.42644  -0.42406  -0.40969  -0.40803  -0.39684
 Alpha  occ. eigenvalues --   -0.39546  -0.39370  -0.39282  -0.38271  -0.38134
 Alpha  occ. eigenvalues --   -0.36079  -0.35189  -0.34984  -0.34811  -0.33259
 Alpha  occ. eigenvalues --   -0.32371  -0.29102  -0.28817  -0.26571  -0.26239
 Alpha virt. eigenvalues --   -0.12255  -0.01611  -0.01121   0.00086   0.00163
 Alpha virt. eigenvalues --    0.00595   0.01181   0.01898   0.02165   0.02707
 Alpha virt. eigenvalues --    0.03122   0.03264   0.04356   0.04492   0.04889

  Beta  occ. eigenvalues --  -19.13257 -19.13257 -10.27752 -10.27751 -10.21022
  Beta  occ. eigenvalues --  -10.20953 -10.20878 -10.20801 -10.18428 -10.18426
  Beta  occ. eigenvalues --  -10.17324 -10.17323 -10.16097 -10.16096 -10.16074
  Beta  occ. eigenvalues --  -10.16073  -1.06750  -1.06556  -0.86260  -0.83403
  Beta  occ. eigenvalues --   -0.79868  -0.76443  -0.74962  -0.69272  -0.69097
  Beta  occ. eigenvalues --   -0.68684  -0.67863  -0.62009  -0.60298  -0.57441
  Beta  occ. eigenvalues --   -0.54075  -0.53345  -0.49010  -0.46617  -0.46352
  Beta  occ. eigenvalues --   -0.45500  -0.45290  -0.44884  -0.43544  -0.43209
  Beta  occ. eigenvalues --   -0.42644  -0.42406  -0.40969  -0.40803  -0.39684
  Beta  occ. eigenvalues --   -0.39546  -0.39370  -0.39282  -0.38271  -0.38134
  Beta  occ. eigenvalues --   -0.36079  -0.35189  -0.34984  -0.34811  -0.33259
  Beta  occ. eigenvalues --   -0.32371  -0.29102  -0.28817  -0.26571  -0.26239
  Beta virt. eigenvalues --   -0.12255  -0.01611  -0.01121   0.00086   0.00163
  Beta virt. eigenvalues --    0.00595   0.01181   0.01898   0.02165   0.02707
  Beta virt. eigenvalues --    0.03122   0.03264   0.04356   0.04492   0.04889

 Mulliken charges and spin densities:
               1          2
     1  C   -1.133034  -0.000000
     2  C    1.041332   0.000000
     3  C    1.040021   0.000000
     4  C   -1.132779  -0.000000
     5  C    0.276677  -0.000000
     6  C    0.278229  -0.000000
     7  C   -0.501204   0.000000
     8  C   -0.501133   0.000000
     9  O   -0.222478   0.000000
    10  O   -0.222487   0.000000
    11  H    0.127980  -0.000000
    12  H    0.191549   0.000000
    13  H    0.193352   0.000000
    14  H    0.191505   0.000000
    15  H    0.193395   0.000000
    16  H    0.127972  -0.000000
    17  C    0.205474  -0.000000
    18  C   -0.639787  -0.000000
    19  C   -0.673308   0.000000
    20  C    0.206034  -0.000000
    21  C   -0.673347   0.000000
    22  C   -0.640367  -0.000000
    23  H    0.219664   0.000000
    24  H    0.170997   0.000000
    25  H    0.131279  -0.000000
    26  H    0.147782  -0.000000
    27  H    0.157382  -0.000000
    28  H    0.174778  -0.000000
    29  H    0.131406   0.000000
    30  H    0.219718   0.000000
    31  H    0.157347   0.000000
    32  H    0.174717  -0.000000
    33  H    0.131287   0.000000
    34  H    0.170960   0.000000
    35  H    0.131240   0.000000
    36  H    0.147847  -0.000000
 Sum of Mulliken charges =  -0.00000  -0.00000

 Dipole moment (field-independent basis, Debye):
    X=              0.0681    Y=              0.0007    Z=              0.0007  Tot=              0.0681
 Quadrupole moment (field-independent basis, Debye-Ang):
   XX=            -86.3890   YY=           -115.1777   ZZ=            -98.0805
   XY=             -0.0027   XZ=              0.0018   YZ=             -0.0727

 Normal termination of Gaussian 16 at Sun Jan 21 07:02:46 2024.
