 Q-Chem 5.4, Q-Chem, Inc., Pleasanton, CA (2021)
 Q-Chem 5.4.0 for Intel X86 EM64T Linux

User input:
--------------------------------------------------------------
$molecule
-2 1
C                  0.2351460000      1.6921070000     -1.6391620000
C                 -1.1987230000      1.8038750000     -1.4530120000
C                 -2.0711420000      0.7667580000     -1.6706050000
C                 -1.6562370000     -0.5613280000     -2.0934550000
C                 -0.2559710000     -0.6927100000     -2.2367370000
C                  0.6899000000      0.3458910000     -1.9785570000
O                  0.9799600000      2.7234470000     -1.5545200000
O                 -2.5245710000     -1.4996990000     -2.2864240000
C                  3.1911950000      0.8038570000     -1.4460380000
C                  4.4631160000      0.8558630000     -2.0352170000
C                  3.0464440000      1.3312460000     -0.1548280000
C                  4.1323730000      1.8789360000      0.5220770000
C                  5.5492270000      1.4284750000     -1.3718580000
C                  5.3936360000      1.9393400000     -0.0834940000
H                 -1.5617310000      2.7898540000     -1.1643640000
H                 -3.1432480000      0.9134180000     -1.5300700000
H                  0.1357980000     -1.6615700000     -2.5295540000
H                  4.5817960000      0.4190190000     -3.0203490000
H                  2.0685590000      1.3084530000      0.3082930000
H                  3.9955830000      2.2729580000      1.5259900000
H                  6.5244350000      1.4634010000     -1.8544320000
H                  6.2420870000      2.3683800000      0.4456660000
C                  2.0969640000      0.0266190000     -2.1539330000
O                  2.5009210000     -0.9516900000     -2.8252610000
$end
$rem
MAX_SCF_CYCLES=200
BASIS  =  6-311++G(d,p)
GUI  =  2
JOB_TYPE  =  SP
METHOD  =  B3LYP
SOLVENT_METHOD = PCM
$end
$pcm
theory = CPCM
$end
$solvent
dielectric 37.219
opticaldielectric 1.43
$end

--------------------------------------------------------------

             Standard Nuclear Orientation (Angstroms)
    I     Atom           X                Y                Z
 ----------------------------------------------------------------
    1      C       0.2351460000     1.6921070000    -1.6391620000
    2      C      -1.1987230000     1.8038750000    -1.4530120000
    3      C      -2.0711420000     0.7667580000    -1.6706050000
    4      C      -1.6562370000    -0.5613280000    -2.0934550000
    5      C      -0.2559710000    -0.6927100000    -2.2367370000
    6      C       0.6899000000     0.3458910000    -1.9785570000
    7      O       0.9799600000     2.7234470000    -1.5545200000
    8      O      -2.5245710000    -1.4996990000    -2.2864240000
    9      C       3.1911950000     0.8038570000    -1.4460380000
   10      C       4.4631160000     0.8558630000    -2.0352170000
   11      C       3.0464440000     1.3312460000    -0.1548280000
   12      C       4.1323730000     1.8789360000     0.5220770000
   13      C       5.5492270000     1.4284750000    -1.3718580000
   14      C       5.3936360000     1.9393400000    -0.0834940000
   15      H      -1.5617310000     2.7898540000    -1.1643640000
   16      H      -3.1432480000     0.9134180000    -1.5300700000
   17      H       0.1357980000    -1.6615700000    -2.5295540000
   18      H       4.5817960000     0.4190190000    -3.0203490000
   19      H       2.0685590000     1.3084530000     0.3082930000
   20      H       3.9955830000     2.2729580000     1.5259900000
   21      H       6.5244350000     1.4634010000    -1.8544320000
   22      H       6.2420870000     2.3683800000     0.4456660000
   23      C       2.0969640000     0.0266190000    -2.1539330000
   24      O       2.5009210000    -0.9516900000    -2.8252610000
 ----------------------------------------------------------------

    9    -726.3217152717      8.30e-06  Convergence criterion met
 Total energy in the final basis set =     -726.3217152717

                    Orbital Energies (a.u.)
 --------------------------------------------------------------

 Alpha MOs
 -- Occupied --
-19.0771 -19.0353 -19.0214 -10.2297 -10.1954 -10.1769 -10.1718 -10.1705
-10.1684 -10.1674 -10.1667 -10.1661 -10.1427 -10.1376 -10.1362 -10.1218
 -1.0017  -0.9569  -0.9351  -0.8498  -0.7881  -0.7516  -0.7397  -0.7192
 -0.6598  -0.6230  -0.5992  -0.5815  -0.5487  -0.5290  -0.4903  -0.4536
 -0.4475  -0.4380  -0.4362  -0.4214  -0.4135  -0.4069  -0.3899  -0.3808
 -0.3697  -0.3653  -0.3527  -0.3449  -0.3384  -0.3324  -0.3256  -0.3215
 -0.2556  -0.2529  -0.2365  -0.2348  -0.2245  -0.2049  -0.2014  -0.1307

          Ground-State Mulliken Net Atomic Charges

     Atom                 Charge (a.u.)
  ----------------------------------------
      1 C                    -1.037700
      2 C                    -0.090105
      3 C                    -0.054081
      4 C                    -0.407245
      5 C                    -0.040716
      6 C                     1.367938
      7 O                    -0.569235
      8 O                    -0.745779
      9 C                     1.235629
     10 C                     0.151890
     11 C                    -0.709394
     12 C                    -0.435067
     13 C                    -0.319643
     14 C                    -0.294632
     15 H                     0.171346
     16 H                     0.168291
     17 H                     0.156543
     18 H                     0.209900
     19 H                     0.190567
     20 H                     0.200764
     21 H                     0.199464
     22 H                     0.192798
     23 C                    -1.121808
     24 O                    -0.419724
  ----------------------------------------
  Sum of atomic charges =    -2.000000

                    Cartesian Multipole Moments
 -----------------------------------------------------------------
    Charge (ESU x 10^10)
                -9.6064
    Dipole Moment (Debye)
         X       1.4694      Y      -0.0293      Z      21.2041
       Tot      21.2550
    Quadrupole Moments (Debye-Ang)
        XX    -138.6915     XY     -16.6700     YY    -138.5172
        XZ      -3.2284     YZ      -5.1212     ZZ    -146.5366

 Total job time:  40.99s(wall), 256.88s(cpu)
        *  Thank you very much for using Q-Chem.  Have a nice day.  *
