 Gaussian 16, Revision A.03,
 Gaussian 16:  ES64L-G16RevA.03 25-Dec-2016

 ----------------------------------------------
 #P UB3LYP/6-311++G(d,p) nosym opt freq SCF=YQC
 ----------------------------------------------

 -------
 Reduced
 -------
 Symbolic Z-matrix:
 Charge = -2 Multiplicity = 1

 SCF Done:  E(UB3LYP) =  -726.040403064     a.u. after   10 cycles
 SCF Done:  E(UB3LYP) =  -726.040708111     A.U. after   33 cycles
 SCF Done:  E(UB3LYP) =  -726.040708111     a.u. after    1 cycles
 SCF Done:  E(UB3LYP) =  -726.040217431     a.u. after   76 cycles
 SCF Done:  E(UB3LYP) =  -726.040462721     A.U. after   33 cycles
 SCF Done:  E(UB3LYP) =  -726.040573176     a.u. after    6 cycles
 SCF Done:  E(UB3LYP) =  -726.040451359     a.u. after   28 cycles
 SCF Done:  E(UB3LYP) =  -726.040686994     A.U. after   29 cycles
 SCF Done:  E(UB3LYP) =  -726.040780517     a.u. after    5 cycles
 SCF Done:  E(UB3LYP) =  -726.041026524     A.U. after   27 cycles
 SCF Done:  E(UB3LYP) =  -726.041154068     a.u. after    3 cycles
 SCF Done:  E(UB3LYP) =  -726.041181597     A.U. after   22 cycles
 SCF Done:  E(UB3LYP) =  -726.041159235     a.u. after    1 cycles
 SCF Done:  E(UB3LYP) =  -726.041182166     A.U. after   23 cycles
 SCF Done:  E(UB3LYP) =  -726.041120241     a.u. after    1 cycles
 SCF Done:  E(UB3LYP) =  -726.041182238     A.U. after   24 cycles
 SCF Done:  E(UB3LYP) =  -726.041179823     a.u. after    1 cycles
 SCF Done:  E(UB3LYP) =  -726.041182393     A.U. after   23 cycles
 Optimization completed.
    -- Stationary point found.
 Normal termination of Gaussian 16 at Wed Jan 10 20:04:32 2024.

 ----------------------------------------------------------------------
 #P Geom=AllCheck Guess=TCheck SCRF=Check GenChk UB3LYP/6-311++G(d,p) F
 req
 ----------------------------------------------------------------------

 Structure from the checkpoint file:  "076-an.chk"
 -------
 Reduced
 -------
 Charge = -2 Multiplicity = 1

                          Input orientation:
 ---------------------------------------------------------------------
 Center     Atomic      Atomic             Coordinates (Angstroms)
 Number     Number       Type             X           Y           Z
 ---------------------------------------------------------------------
      1          6           0        0.235146    1.692107   -1.639162
      2          6           0       -1.198723    1.803875   -1.453012
      3          6           0       -2.071142    0.766758   -1.670605
      4          6           0       -1.656237   -0.561328   -2.093455
      5          6           0       -0.255971   -0.692710   -2.236737
      6          6           0        0.689900    0.345891   -1.978557
      7          8           0        0.979960    2.723447   -1.554520
      8          8           0       -2.524571   -1.499699   -2.286424
      9          6           0        3.191195    0.803857   -1.446038
     10          6           0        4.463116    0.855863   -2.035217
     11          6           0        3.046444    1.331246   -0.154828
     12          6           0        4.132373    1.878936    0.522077
     13          6           0        5.549227    1.428475   -1.371858
     14          6           0        5.393636    1.939340   -0.083494
     15          1           0       -1.561731    2.789854   -1.164364
     16          1           0       -3.143248    0.913418   -1.530070
     17          1           0        0.135798   -1.661570   -2.529554
     18          1           0        4.581796    0.419019   -3.020349
     19          1           0        2.068559    1.308453    0.308293
     20          1           0        3.995583    2.272958    1.525990
     21          1           0        6.524435    1.463401   -1.854432
     22          1           0        6.242087    2.368380    0.445666
     23          6           0        2.096964    0.026619   -2.153933
     24          8           0        2.500921   -0.951690   -2.825261
 ---------------------------------------------------------------------

 SCF Done:  E(UB3LYP) =  -726.041182393     a.u. after    1 cycles
 SCF Done:  E(UB3LYP) =  -726.041182393     A.U. after    2 cycles

 Alpha  occ. eigenvalues --  -18.83342 -18.79420 -18.76965  -9.98757  -9.96962
 Alpha  occ. eigenvalues --   -9.96815  -9.96455  -9.95599  -9.95535  -9.95510
 Alpha  occ. eigenvalues --   -9.95481  -9.93134  -9.90587  -9.90041  -9.89694
 Alpha  occ. eigenvalues --   -9.87610  -0.75775  -0.71314  -0.68069  -0.64091
 Alpha  occ. eigenvalues --   -0.54678  -0.53774  -0.53316  -0.48103  -0.42030
 Alpha  occ. eigenvalues --   -0.39946  -0.39145  -0.35543  -0.31507  -0.30713
 Alpha  occ. eigenvalues --   -0.27255  -0.23950  -0.23236  -0.21082  -0.20936
 Alpha  occ. eigenvalues --   -0.19402  -0.18838  -0.17094  -0.15877  -0.15141
 Alpha  occ. eigenvalues --   -0.13874  -0.12942  -0.12675  -0.11784  -0.10459
 Alpha  occ. eigenvalues --   -0.09146  -0.08048  -0.07273  -0.04324  -0.03568
 Alpha  occ. eigenvalues --    0.00373   0.01009   0.02210   0.03924   0.05497
 Alpha  occ. eigenvalues --    0.12061
 Alpha virt. eigenvalues --    0.13358   0.15473   0.17262   0.17724   0.18450
 Alpha virt. eigenvalues --    0.19796   0.20013   0.20446   0.21679   0.22454
 Alpha virt. eigenvalues --    0.22693   0.23229   0.25136   0.25753   0.26187

  Beta  occ. eigenvalues --  -18.83342 -18.79420 -18.76965  -9.98757  -9.96962
  Beta  occ. eigenvalues --   -9.96815  -9.96455  -9.95599  -9.95535  -9.95510
  Beta  occ. eigenvalues --   -9.95481  -9.93134  -9.90587  -9.90041  -9.89694
  Beta  occ. eigenvalues --   -9.87610  -0.75775  -0.71314  -0.68069  -0.64091
  Beta  occ. eigenvalues --   -0.54678  -0.53774  -0.53316  -0.48103  -0.42030
  Beta  occ. eigenvalues --   -0.39946  -0.39145  -0.35543  -0.31507  -0.30713
  Beta  occ. eigenvalues --   -0.27255  -0.23950  -0.23236  -0.21082  -0.20936
  Beta  occ. eigenvalues --   -0.19402  -0.18838  -0.17094  -0.15877  -0.15141
  Beta  occ. eigenvalues --   -0.13874  -0.12942  -0.12675  -0.11784  -0.10459
  Beta  occ. eigenvalues --   -0.09146  -0.08048  -0.07273  -0.04324  -0.03568
  Beta  occ. eigenvalues --    0.00373   0.01009   0.02210   0.03924   0.05497
  Beta  occ. eigenvalues --    0.12061
  Beta virt. eigenvalues --    0.13358   0.15473   0.17262   0.17724   0.18450
  Beta virt. eigenvalues --    0.19796   0.20013   0.20446   0.21679   0.22454
  Beta virt. eigenvalues --    0.22693   0.23229   0.25136   0.25753   0.26187

 Mulliken charges and spin densities:
               1          2
     1  C   -1.409843   0.000000
     2  C    0.162264  -0.000000
     3  C    0.174272  -0.000000
     4  C   -0.867800  -0.000000
     5  C    0.197899  -0.000000
     6  C    1.684783   0.000000
     7  O   -0.410824   0.000000
     8  O   -0.557983   0.000000
     9  C    1.468567   0.000000
    10  C   -0.069196  -0.000000
    11  C   -0.662497   0.000000
    12  C   -0.501831  -0.000000
    13  C    0.042224   0.000000
    14  C    0.214145   0.000000
    15  H    0.094770  -0.000000
    16  H    0.083752  -0.000000
    17  H    0.149799   0.000000
    18  H    0.186036  -0.000000
    19  H    0.182005   0.000000
    20  H    0.105618  -0.000000
    21  H   -0.108045  -0.000000
    22  H   -0.359316  -0.000000
    23  C   -1.476354  -0.000000
    24  O   -0.322446   0.000000
 Sum of Mulliken charges =  -2.00000   0.00000

 Dipole moment (field-independent basis, Debye):
    X=             -7.3645    Y=             -3.1578    Z=             17.9135  Tot=             19.6240
 Quadrupole moment (field-independent basis, Debye-Ang):
   XX=           -202.3974   YY=           -143.3690   ZZ=           -144.2705
   XY=            -31.3274   XZ=             -2.5707   YZ=             -5.1725

  Exact polarizability:2348.624 611.839 417.058 561.128 310.888 610.681
 Approx polarizability:5134.9471269.379 730.2821175.907 456.511 686.333

                      1                      2                      3
                      A                      A                      A
 Frequencies --     31.5560                45.8157                80.0693
 Red. masses --      8.2849                 4.6528                 4.9803
 Frc consts  --      0.0049                 0.0058                 0.0188
 IR Inten    --      1.7385                 0.2776                 9.1244

                      4                      5                      6
                      A                      A                      A
 Frequencies --    111.8115               152.2977               194.7624
 Red. masses --      6.6048                 9.3490                 5.8403
 Frc consts  --      0.0486                 0.1278                 0.1305
 IR Inten    --      0.8761                12.7732                53.0505

                      7                      8                      9
                      A                      A                      A
 Frequencies --    202.9461               257.1304               324.6433
 Red. masses --      7.4063                 6.6374                 5.9989
 Frc consts  --      0.1797                 0.2586                 0.3725
 IR Inten    --     18.3096                10.6869                 3.9873

                     10                     11                     12
                      A                      A                      A
 Frequencies --    344.8810               395.3132               412.7376
 Red. masses --     10.9590                 5.0654                 3.8345
 Frc consts  --      0.7680                 0.4664                 0.3849
 IR Inten    --      5.0259                37.3533               271.8205

                     13                     14                     15
                      A                      A                      A
 Frequencies --    418.8263               441.2083               466.3436
 Red. masses --      4.9279                 4.5548                10.4079
 Frc consts  --      0.5093                 0.5224                 1.3336
 IR Inten    --    257.3700                 2.5062               911.0599

                     16                     17                     18
                      A                      A                      A
 Frequencies --    514.9465               556.6299               611.3810
 Red. masses --      3.7359                 2.3905                 5.2826
 Frc consts  --      0.5837                 0.4364                 1.1634
 IR Inten    --     50.2288                 9.3604                72.0049

                     19                     20                     21
                      A                      A                      A
 Frequencies --    631.0344               638.7347               685.2298
 Red. masses --      6.3743                 6.1079                 5.7090
 Frc consts  --      1.4955                 1.4682                 1.5794
 IR Inten    --      3.6922                43.5448                30.5342

                     22                     23                     24
                      A                      A                      A
 Frequencies --    696.7025               713.9192               739.5190
 Red. masses --      1.6838                 5.1616                 2.3002
 Frc consts  --      0.4815                 1.5500                 0.7412
 IR Inten    --     43.7460               125.6092                64.5626

                     25                     26                     27
                      A                      A                      A
 Frequencies --    783.2505               813.7304               824.8497
 Red. masses --      2.5406                 4.4134                 2.5989
 Frc consts  --      0.9183                 1.7218                 1.0418
 IR Inten    --     25.5194               135.8179                34.6270

                     28                     29                     30
                      A                      A                      A
 Frequencies --    829.2528               839.5579               848.3231
 Red. masses --      1.2661                 2.2224                 3.8548
 Frc consts  --      0.5130                 0.9229                 1.6345
 IR Inten    --      7.5752                15.7168                88.8636

                     31                     32                     33
                      A                      A                      A
 Frequencies --    906.7103               929.3213               954.4225
 Red. masses --      1.5154                 1.2855                 1.2516
 Frc consts  --      0.7340                 0.6541                 0.6717
 IR Inten    --     82.2949                 2.6510                12.2690

                     34                     35                     36
                      A                      A                      A
 Frequencies --    958.8471               972.8864              1008.7169
 Red. masses --      1.3615                 2.9814                 6.0962
 Frc consts  --      0.7375                 1.6626                 3.6547
 IR Inten    --     16.1961                 8.6400                27.5520

                     37                     38                     39
                      A                      A                      A
 Frequencies --   1040.0984              1072.7832              1088.8051
 Red. masses --      2.2797                 2.1365                 1.6143
 Frc consts  --      1.4530                 1.4487                 1.1275
 IR Inten    --    279.0846               692.6504               205.5801

                     40                     41                     42
                      A                      A                      A
 Frequencies --   1128.1440              1160.9243              1180.1104
 Red. masses --      1.7470                 1.0902                 1.3069
 Frc consts  --      1.3100                 0.8657                 1.0724
 IR Inten    --    122.6534                58.9494               102.6089

                     43                     44                     45
                      A                      A                      A
 Frequencies --   1188.6647              1224.0067              1265.0099
 Red. masses --      1.9405                 2.0385                 6.6004
 Frc consts  --      1.6154                 1.7994                 6.2231
 IR Inten    --    212.1084              1304.0838                63.6412

                     46                     47                     48
                      A                      A                      A
 Frequencies --   1310.3806              1326.6517              1342.3171
 Red. masses --      2.6597                 2.1911                 2.5650
 Frc consts  --      2.6908                 2.2720                 2.7230
 IR Inten    --    293.9505                23.9738               206.7673

                     49                     50                     51
                      A                      A                      A
 Frequencies --   1373.1237              1420.5372              1449.1626
 Red. masses --      5.4651                 5.0636                 3.4948
 Frc consts  --      6.0711                 6.0203                 4.3242
 IR Inten    --    398.7136              1261.3925              3804.0683

                     52                     53                     54
                      A                      A                      A
 Frequencies --   1462.5406              1485.7733              1499.7159
 Red. masses --      2.8717                 5.2192                 2.6498
 Frc consts  --      3.6191                 6.7883                 3.5114
 IR Inten    --    834.5824               436.7484               667.7813

                     55                     56                     57
                      A                      A                      A
 Frequencies --   1532.2570              1586.5787              1602.4740
 Red. masses --      5.3161                 5.7374                 5.9908
 Frc consts  --      7.3537                 8.5092                 9.0640
 IR Inten    --   2222.9436              5259.1242               344.1951

                     58                     59                     60
                      A                      A                      A
 Frequencies --   1613.3227              3076.7224              3100.4379
 Red. masses --      5.5443                 1.0837                 1.0836
 Frc consts  --      8.5024                 6.0440                 6.1369
 IR Inten    --    414.0402               194.0100               362.4704

                     61                     62                     63
                      A                      A                      A
 Frequencies --   3108.9166              3119.5730              3137.2868
 Red. masses --      1.0929                 1.0892                 1.0939
 Frc consts  --      6.2237                 6.2454                 6.3439
 IR Inten    --    739.0783               328.9995               215.8699

                     64                     65                     66
                      A                      A                      A
 Frequencies --   3157.0178              3174.8699              3197.6523
 Red. masses --      1.0870                 1.0905                 1.0918
 Frc consts  --      6.3834                 6.4760                 6.5775
 IR Inten    --    128.1969                20.2529                11.4905

 - Thermochemistry -
 -------------------
 Temperature   298.150 Kelvin.  Pressure   1.00000 Atm.
 Atom     1 has atomic number  6 and mass  12.00000

 Molecular mass:   212.04734 amu.
 Principal axes and moments of inertia in atomic units:
                           1         2         3
     Eigenvalues --  1368.217065797.189516660.77222
           X            0.95167  -0.30402  -0.04343
           Y            0.24285   0.83154  -0.49956
           Z            0.18799   0.46488   0.86519
 This molecule is an asymmetric top.
 Rotational symmetry number  1.
 Warning -- assumption of classical behavior for rotation
           may cause significant error
 Rotational temperatures (Kelvin)      0.06330     0.01494     0.01300
 Rotational constants (GHZ):           1.31905     0.31131     0.27095
 Zero-point vibrational energy     447189.0 (Joules/Mol)
                                  106.88074 (Kcal/Mol)
 Warning -- explicit consideration of  18 degrees of freedom as
           vibrations may cause significant error
 Vibrational temperatures:     45.40    65.92   115.20   160.87   219.12
          (Kelvin)            280.22   291.99   369.95   467.09   496.21
                              568.77   593.84   602.60   634.80   670.96
                              740.89   800.87   879.64   907.92   919.00
                              985.89  1002.40  1027.17  1064.00  1126.92
                             1170.78  1186.77  1193.11  1207.94  1220.55
                             1304.55  1337.09  1373.20  1379.57  1399.77
                             1451.32  1496.47  1543.50  1566.55  1623.15
                             1670.31  1697.92  1710.22  1761.07  1820.07
                             1885.35  1908.76  1931.29  1975.62  2043.84
                             2085.02  2104.27  2137.70  2157.76  2204.58
                             2282.73  2305.60  2321.21  4426.72  4460.84
                             4473.04  4488.37  4513.86  4542.24  4567.93
                             4600.71

 Zero-point correction=                           0.170325 (Hartree/Particle)
 Thermal correction to Energy=                    0.183027
 Thermal correction to Enthalpy=                  0.183972
 Thermal correction to Gibbs Free Energy=         0.129979
 Sum of electronic and zero-point Energies=           -725.870857
 Sum of electronic and thermal Energies=              -725.858155
 Sum of electronic and thermal Enthalpies=            -725.857211
 Sum of electronic and thermal Free Energies=         -725.911204

                     E (Thermal)             CV                S
                      KCal/Mol        Cal/Mol-Kelvin    Cal/Mol-Kelvin
 Total                  114.851             49.593            113.637
 Electronic               0.000              0.000              0.000
 Translational            0.889              2.981             41.958
 Rotational               0.889              2.981             32.335
 Vibrational            113.074             43.632             39.344
 Vibration     1          0.594              1.983              5.729
 Vibration     2          0.595              1.979              4.990
 Vibration     3          0.600              1.963              3.889
 Vibration     4          0.607              1.940              3.237
 Vibration     5          0.619              1.900              2.643
 Vibration     6          0.635              1.847              2.182
 Vibration     7          0.639              1.836              2.106
 Vibration     8          0.667              1.751              1.681
 Vibration     9          0.709              1.626              1.287
 Vibration    10          0.723              1.586              1.189
 Vibration    11          0.762              1.480              0.980
 Vibration    12          0.777              1.443              0.917
 Vibration    13          0.782              1.429              0.896
 Vibration    14          0.801              1.380              0.823
 Vibration    15          0.824              1.325              0.748
 Vibration    16          0.870              1.217              0.622
 Vibration    17          0.912              1.125              0.531
 Vibration    18          0.971              1.008              0.430

 Optimization completed.
    -- Stationary point found.
 Normal termination of Gaussian 16 at Wed Jan 10 20:50:42 2024.
