 Q-Chem 5.4, Q-Chem, Inc., Pleasanton, CA (2021)
 Q-Chem 5.4.0 for Intel X86 EM64T Linux

User input:
--------------------------------------------------------------
$molecule
-1 1
C                  2.7800980000      0.5335120000      0.2074580000
C                  2.7392180000     -0.6745790000      0.9064800000
C                  1.5366620000     -1.3551130000      1.0575640000
C                 -0.9076950000     -1.5894270000      0.6970470000
O                 -0.9621930000     -2.6485410000      1.3108080000
C                 -2.1493020000     -1.0049880000      0.0954360000
C                 -3.3629310000     -1.6846640000      0.2432370000
C                 -4.5287060000     -1.1643970000     -0.3055520000
C                 -4.4922480000      0.0431700000     -1.0095540000
C                 -3.2903180000      0.7240180000     -1.1608300000
C                 -2.1128330000      0.2072420000     -0.6109260000
C                 -0.8308830000      0.9656600000     -0.7918020000
O                 -0.8256380000      2.0186920000     -1.4106760000
C                  0.3978720000      0.3831470000     -0.1948040000
C                  1.6114520000      1.0575750000     -0.3429250000
H                  3.6655130000     -1.0645050000      1.3113020000
H                  1.4901800000     -2.2945880000      1.5951820000
H                 -3.3632750000     -2.6180360000      0.7928990000
H                 -5.4670840000     -1.6956940000     -0.1876990000
H                 -5.4022520000      0.4491990000     -1.4381450000
H                 -3.2341070000      1.6610860000     -1.7012770000
H                  1.6411350000      1.9873320000     -0.8968040000
C                  0.3547960000     -0.8405720000      0.5149170000
S                  4.3597770000      1.4522560000      0.0543460000
O                  5.3892150000      0.4487750000      0.4182870000
O                  4.3813950000      1.8848920000     -1.3621860000
O                  4.2022320000      2.5562650000      1.0322280000
$end
$rem
MAX_SCF_CYCLES=200
BASIS  =  6-311++G(d,p)
GUI  =  2
JOB_TYPE  =  SP
METHOD  =  B3LYP
SOLVENT_METHOD = COSMO
$end
$solvent
dielectric 37.219
opticaldielectric 1.43
$end

--------------------------------------------------------------

             Standard Nuclear Orientation (Angstroms)
    I     Atom           X                Y                Z
 ----------------------------------------------------------------
    1      C       2.2414009700     0.2407793945     0.0294710941
    2      C       1.9402641130     1.6042669709     0.0272311253
    3      C       0.6165795249     2.0283921949     0.0188204848
    4      C      -1.8253210245     1.5851160231    -0.0007918525
    5      O      -2.1072957574     2.7775285616    -0.0069278380
    6      C      -2.9140099548     0.5556313732    -0.0040246835
    7      C      -4.2483726777     0.9752875147    -0.0120743239
    8      C      -5.2767601492     0.0407870885    -0.0146492747
    9      C      -4.9803224810    -1.3256885249    -0.0087190051
   10      C      -3.6571753451    -1.7502905009    -0.0004141409
   11      C      -2.6165317448    -0.8159567238     0.0016005047
   12      C      -1.1983635323    -1.3058742547     0.0110623382
   13      O      -0.9658061332    -2.5049592965     0.0156503214
   14      C      -0.1218825210    -0.2827708905     0.0149347449
   15      C       1.2110973375    -0.6982404423     0.0258490768
   16      H       2.7614298983     2.3109106440     0.0441732811
   17      H       0.3678502853     3.0828779793     0.0194999764
   18      H      -4.4502782287     2.0394904786    -0.0163078964
   19      H      -6.3097255534     0.3719375719    -0.0210472222
   20      H      -5.7831169377    -2.0551917342    -0.0105084535
   21      H      -3.3998174156    -2.8024711428     0.0042619591
   22      H       1.4401935419    -1.7562591734     0.0407621561
   23      C      -0.4284275709     1.0989171870     0.0109573606
   24      S       3.9891026890    -0.3131852903    -0.0102956582
   25      O       4.7535815675     0.9011032397     0.3641975660
   26      O       4.0345635804    -1.4117071741     0.9823710188
   27      O       4.1718032078    -0.7472738853    -1.4167440636
 ----------------------------------------------------------------

   10   -1312.3397322768      8.03e-06  Convergence criterion met
 Total energy in the final basis set =    -1312.3397322768
    5   -1312.4393704660      6.73e-06  Convergence criterion met
 Total energy in the final basis set =    -1312.4393704660

                    Orbital Energies (a.u.)
 --------------------------------------------------------------

 Alpha MOs
 -- Occupied --
-89.0577 -19.1328 -19.1323 -19.1032 -19.1031 -19.1028 -10.2851 -10.2847
-10.2169 -10.2131 -10.2115 -10.2066 -10.2061 -10.2039 -10.2010 -10.2000
-10.1951 -10.1946 -10.1941 -10.1940  -8.1165  -6.0792  -6.0791  -6.0783
 -1.1239  -1.0674  -1.0645  -0.9888  -0.9873  -0.8960  -0.8822  -0.8152
 -0.7840  -0.7750  -0.7721  -0.6951  -0.6757  -0.6495  -0.6206  -0.6042
 -0.5859  -0.5602  -0.5467  -0.5126  -0.5005  -0.4906  -0.4855  -0.4663
 -0.4626  -0.4615  -0.4555  -0.4546  -0.4513  -0.4466  -0.4405  -0.4205
 -0.4180  -0.3953  -0.3825  -0.3748  -0.3723  -0.3643  -0.3487  -0.3481
 -0.3228  -0.3109  -0.3020  -0.2895  -0.2878  -0.2794  -0.2768  -0.2759
 -0.2714  -0.2696

          Ground-State Mulliken Net Atomic Charges

     Atom                 Charge (a.u.)
  ----------------------------------------
      1 C                    -0.940270
      2 C                    -0.135659
      3 C                     0.202222
      4 C                    -0.538396
      5 O                    -0.293484
      6 C                     0.212949
      7 C                     0.180699
      8 C                    -0.459840
      9 C                    -0.426111
     10 C                     0.123405
     11 C                     0.398580
     12 C                    -0.687639
     13 O                    -0.287206
     14 C                     0.329723
     15 C                    -0.144895
     16 H                     0.261284
     17 H                     0.207839
     18 H                     0.200504
     19 H                     0.227004
     20 H                     0.228386
     21 H                     0.197512
     22 H                     0.216858
     23 C                     0.328435
     24 S                     0.783436
     25 O                    -0.414357
     26 O                    -0.398140
     27 O                    -0.372846
  ----------------------------------------
  Sum of atomic charges =    -1.000010

                    Cartesian Multipole Moments
 -----------------------------------------------------------------
    Charge (ESU x 10^10)
                -4.8033
    Dipole Moment (Debye)
         X     -22.8729      Y       2.8454      Z       0.2223
       Tot      23.0502
    Quadrupole Moments (Debye-Ang)
        XX    -196.5512     XY      19.2694     YY    -142.1331
        XZ       0.7411     YZ       0.1114     ZZ    -133.5586

 Total job time:  71.28s(wall), 545.23s(cpu)
        *  Thank you very much for using Q-Chem.  Have a nice day.  *
