 Gaussian 16, Revision A.03,
 Gaussian 16:  ES64L-G16RevA.03 25-Dec-2016

 ----------------------------------------------------------------------
 #P UB3LYP/6-311++G(d,p) nosym opt freq SCRF=(PCM,Solvent=n,n-DiMethylF
 ormamide)
 ----------------------------------------------------------------------

 --------
 Oxidized
 --------
 Symbolic Z-matrix:
 Charge =  0 Multiplicity = 1

 SCF Done:  E(UB3LYP) =  -838.451096328     A.U. after   15 cycles
 SCF Done:  E(UB3LYP) =  -838.451140225     A.U. after   13 cycles
 SCF Done:  E(UB3LYP) =  -838.451328836     A.U. after   12 cycles
 SCF Done:  E(UB3LYP) =  -838.451466429     A.U. after   13 cycles
 SCF Done:  E(UB3LYP) =  -838.451552402     A.U. after   11 cycles
 SCF Done:  E(UB3LYP) =  -838.451562494     A.U. after   11 cycles
 SCF Done:  E(UB3LYP) =  -838.451584718     A.U. after   10 cycles
 SCF Done:  E(UB3LYP) =  -838.451594432     A.U. after   11 cycles
 SCF Done:  E(UB3LYP) =  -838.451600640     A.U. after   12 cycles
 SCF Done:  E(UB3LYP) =  -838.451602642     A.U. after   11 cycles
 SCF Done:  E(UB3LYP) =  -838.451603260     A.U. after   10 cycles
 SCF Done:  E(UB3LYP) =  -838.451603386     A.U. after    9 cycles
 SCF Done:  E(UB3LYP) =  -838.451603425     A.U. after    8 cycles
 Optimization completed.
    -- Stationary point found.
 Normal termination of Gaussian 16 at Sun Feb 11 01:11:17 2024.

 ----------------------------------------------------------------------
 #P Geom=AllCheck Guess=TCheck SCRF=Check GenChk UB3LYP/6-311++G(d,p) F
 req
 ----------------------------------------------------------------------

 Structure from the checkpoint file:  "263.chk"
 --------
 Oxidized
 --------
 Charge =  0 Multiplicity = 1

                          Input orientation:
 ---------------------------------------------------------------------
 Center     Atomic      Atomic             Coordinates (Angstroms)
 Number     Number       Type             X           Y           Z
 ---------------------------------------------------------------------
      1          6           0       -1.277543    2.842337    0.244791
      2          6           0       -2.601355    2.380284    0.235081
      3          6           0       -2.882432    1.045691    0.018938
      4          6           0       -0.217148    1.936672    0.024130
      5          6           0       -0.527266    0.569662   -0.201331
      6          6           0       -1.851342    0.123914   -0.192773
      7          6           0        1.204978    2.373430    0.038521
      8          6           0        2.247557    1.338924   -0.172530
      9          6           0        1.957807    0.056352   -0.414005
     10          6           0        0.563908   -0.409015   -0.495538
     11          8           0        1.560024    3.531332    0.220427
     12          8           0        0.314438   -1.565064   -0.813542
     13          8           0       -1.016526    4.148117    0.460816
     14          1           0       -3.913063    0.711529    0.019054
     15          1           0        2.724167   -0.691061   -0.584306
     16          6           0       -2.259024   -1.308022   -0.417168
     17          8           0       -2.757139   -1.709896   -1.445434
     18          8           0       -2.127010   -2.037875    0.694931
     19          6           0       -2.502008   -3.432292    0.601774
     20          1           0       -3.409831    3.083686    0.402898
     21          1           0        3.269002    1.699646   -0.129085
     22          1           0       -1.845247    4.627916    0.590777
     23          1           0       -2.331384   -3.842543    1.593463
     24          1           0       -1.876306   -3.936242   -0.134997
     25          1           0       -3.551710   -3.523622    0.323700
 ---------------------------------------------------------------------

 SCF Done:  E(UB3LYP) =  -838.451603425     A.U. after    2 cycles

 Alpha  occ. eigenvalues --  -19.18377 -19.18220 -19.14382 -19.13591 -19.13013
 Alpha  occ. eigenvalues --  -10.32554 -10.29266 -10.28945 -10.27934 -10.22894
 Alpha  occ. eigenvalues --  -10.22725 -10.22144 -10.21997 -10.21573 -10.21477
 Alpha  occ. eigenvalues --  -10.21387 -10.20828  -1.12622  -1.10010  -1.07547
 Alpha  occ. eigenvalues --   -1.06628  -1.03900  -0.90227  -0.84951  -0.80078
 Alpha  occ. eigenvalues --   -0.79119  -0.74282  -0.70895  -0.67580  -0.66089
 Alpha  occ. eigenvalues --   -0.62442  -0.59826  -0.56826  -0.55262  -0.53381
 Alpha  occ. eigenvalues --   -0.52163  -0.50522  -0.49838  -0.49654  -0.48553
 Alpha  occ. eigenvalues --   -0.46651  -0.46626  -0.45794  -0.44064  -0.43753
 Alpha  occ. eigenvalues --   -0.43570  -0.42103  -0.41788  -0.41076  -0.40087
 Alpha  occ. eigenvalues --   -0.39041  -0.37270  -0.37103  -0.32509  -0.31341
 Alpha  occ. eigenvalues --   -0.30578  -0.29423  -0.29248  -0.27903  -0.26107
 Alpha virt. eigenvalues --   -0.13301  -0.05996  -0.04526  -0.01344  -0.00701
 Alpha virt. eigenvalues --   -0.00027   0.00512   0.01474   0.01992   0.02583
 Alpha virt. eigenvalues --    0.02599   0.03100   0.04234   0.04660   0.05018

  Beta  occ. eigenvalues --  -19.18377 -19.18220 -19.14382 -19.13591 -19.13013
  Beta  occ. eigenvalues --  -10.32554 -10.29266 -10.28945 -10.27934 -10.22894
  Beta  occ. eigenvalues --  -10.22725 -10.22144 -10.21997 -10.21573 -10.21477
  Beta  occ. eigenvalues --  -10.21387 -10.20828  -1.12622  -1.10010  -1.07547
  Beta  occ. eigenvalues --   -1.06628  -1.03900  -0.90227  -0.84951  -0.80078
  Beta  occ. eigenvalues --   -0.79119  -0.74282  -0.70895  -0.67580  -0.66089
  Beta  occ. eigenvalues --   -0.62442  -0.59826  -0.56826  -0.55262  -0.53381
  Beta  occ. eigenvalues --   -0.52163  -0.50522  -0.49838  -0.49654  -0.48553
  Beta  occ. eigenvalues --   -0.46651  -0.46626  -0.45794  -0.44064  -0.43753
  Beta  occ. eigenvalues --   -0.43570  -0.42103  -0.41788  -0.41076  -0.40087
  Beta  occ. eigenvalues --   -0.39041  -0.37270  -0.37103  -0.32509  -0.31341
  Beta  occ. eigenvalues --   -0.30578  -0.29423  -0.29248  -0.27903  -0.26107
  Beta virt. eigenvalues --   -0.13301  -0.05996  -0.04526  -0.01344  -0.00701
  Beta virt. eigenvalues --   -0.00027   0.00512   0.01474   0.01992   0.02583
  Beta virt. eigenvalues --    0.02599   0.03100   0.04234   0.04660   0.05018

 Mulliken charges and spin densities:
               1          2
     1  C    0.238144  -0.000000
     2  C    0.089242  -0.000000
     3  C   -0.260071   0.000000
     4  C   -0.048176  -0.000000
     5  C    0.766562   0.000000
     6  C    0.684958  -0.000000
     7  C   -0.445647   0.000000
     8  C   -0.126622   0.000000
     9  C   -0.222614  -0.000000
    10  C   -0.645035  -0.000000
    11  O   -0.290922   0.000000
    12  O   -0.230920  -0.000000
    13  O   -0.203612   0.000000
    14  H    0.221442   0.000000
    15  H    0.237163   0.000000
    16  C   -0.634727  -0.000000
    17  O   -0.222263   0.000000
    18  O    0.035520   0.000000
    19  C   -0.230958   0.000000
    20  H    0.199074   0.000000
    21  H    0.235553   0.000000
    22  H    0.312560  -0.000000
    23  H    0.174470   0.000000
    24  H    0.188487  -0.000000
    25  H    0.178390   0.000000
 Sum of Mulliken charges =  -0.00000  -0.00000

 Dipole moment (field-independent basis, Debye):
    X=             -2.8664    Y=              1.0536    Z=              3.0805  Tot=              4.3378
 Quadrupole moment (field-independent basis, Debye-Ang):
   XX=            -78.3660   YY=            -95.7731   ZZ=           -103.4256
   XY=            -19.8567   XZ=            -11.1793   YZ=             -6.9536

  Exact polarizability: 248.923  18.120 284.513  -1.007  27.080 126.682
 Approx polarizability: 281.869  25.068 350.513   3.247  40.407 153.955

                      1                      2                      3
                      A                      A                      A
 Frequencies --     28.5891                52.7688                79.3376
 Red. masses --      6.3985                 7.0141                 5.0968
 Frc consts  --      0.0031                 0.0115                 0.0189
 IR Inten    --      2.7914                12.3378                10.1943

                      4                      5                      6
                      A                      A                      A
 Frequencies --     92.0509               113.6793               145.3910
 Red. masses --      4.4434                 3.5696                 1.2693
 Frc consts  --      0.0222                 0.0272                 0.0158
 IR Inten    --      2.7766                 5.6587                 0.7371

                      7                      8                      9
                      A                      A                      A
 Frequencies --    173.9038               216.7296               229.1559
 Red. masses --      6.0605                 6.0828                 6.3034
 Frc consts  --      0.1080                 0.1683                 0.1950
 IR Inten    --      2.3820                 1.6723                 0.8941

                     10                     11                     12
                      A                      A                      A
 Frequencies --    252.3542               283.1079               295.5470
 Red. masses --      4.4890                 7.0104                 9.8804
 Frc consts  --      0.1684                 0.3311                 0.5085
 IR Inten    --      0.2601                 8.4801                 3.6207

                     13                     14                     15
                      A                      A                      A
 Frequencies --    311.4220               374.6058               394.5344
 Red. masses --      4.2746                10.5766                 9.6749
 Frc consts  --      0.2443                 0.8745                 0.8873
 IR Inten    --     25.8988                31.9912                16.6658

                     16                     17                     18
                      A                      A                      A
 Frequencies --    420.4992               444.0267               450.7754
 Red. masses --      4.6655                 2.2314                 2.2806
 Frc consts  --      0.4860                 0.2592                 0.2730
 IR Inten    --      8.7205                71.8499                73.7926

                     19                     20                     21
                      A                      A                      A
 Frequencies --    472.6735               498.5465               563.9565
 Red. masses --      3.5692                 6.3081                 7.7647
 Frc consts  --      0.4698                 0.9238                 1.4550
 IR Inten    --     29.7415                 4.4299                22.8264

                     22                     23                     24
                      A                      A                      A
 Frequencies --    569.9072               626.1002               664.3628
 Red. masses --      2.9497                 4.5919                 3.0277
 Frc consts  --      0.5645                 1.0606                 0.7874
 IR Inten    --      1.9263                13.2609                13.8531

                     25                     26                     27
                      A                      A                      A
 Frequencies --    670.0916               721.6678               752.9631
 Red. masses --      4.9474                 6.4991                 8.3421
 Frc consts  --      1.3089                 1.9942                 2.7866
 IR Inten    --     23.8643                 1.9789                41.2711

                     28                     29                     30
                      A                      A                      A
 Frequencies --    768.2990               801.2622               806.3401
 Red. masses --      6.0578                 6.4911                 8.9689
 Frc consts  --      2.1068                 2.4554                 3.4358
 IR Inten    --     10.5054                14.1813                 4.0607

                     31                     32                     33
                      A                      A                      A
 Frequencies --    849.4323               871.5612               884.3728
 Red. masses --      1.6096                 2.2556                 5.7400
 Frc consts  --      0.6843                 1.0095                 2.6450
 IR Inten    --     51.9444                79.8908                 2.9397

                     34                     35                     36
                      A                      A                      A
 Frequencies --    947.7355               973.3424               985.9488
 Red. masses --      7.4659                 3.7079                 1.6691
 Frc consts  --      3.9510                 2.0697                 0.9559
 IR Inten    --     60.7295                14.9444                 5.1812

                     37                     38                     39
                      A                      A                      A
 Frequencies --   1019.3050              1090.6910              1114.8709
 Red. masses --      1.2668                 3.4608                 1.8776
 Frc consts  --      0.7754                 2.4256                 1.3750
 IR Inten    --      0.1853               135.1052               234.2191

                     40                     41                     42
                      A                      A                      A
 Frequencies --   1154.2942              1165.4029              1199.2224
 Red. masses --      3.2886                 1.2943                 1.2959
 Frc consts  --      2.5816                 1.0357                 1.0980
 IR Inten    --    197.4464                 0.9710                73.9130

                     43                     44                     45
                      A                      A                      A
 Frequencies --   1208.9319              1212.1275              1272.5614
 Red. masses --      1.5248                 1.5934                 4.4517
 Frc consts  --      1.3130                 1.3794                 4.2475
 IR Inten    --     20.3189               159.9310               513.6925

                     46                     47                     48
                      A                      A                      A
 Frequencies --   1294.9438              1300.9058              1326.8720
 Red. masses --      3.4331                 2.2376                 3.6286
 Frc consts  --      3.3919                 2.2311                 3.7640
 IR Inten    --    622.6270               133.7137                44.7094

                     49                     50                     51
                      A                      A                      A
 Frequencies --   1378.4593              1396.2215              1437.8268
 Red. masses --      5.6240                 1.9184                 4.7776
 Frc consts  --      6.2962                 2.2035                 5.8193
 IR Inten    --     74.4553                 2.5590                65.1105

                     52                     53                     54
                      A                      A                      A
 Frequencies --   1465.7325              1476.1378              1484.0159
 Red. masses --      1.2222                 1.0454                 1.0439
 Frc consts  --      1.5471                 1.3421                 1.3546
 IR Inten    --     20.5804                16.0102                16.0704

                     55                     56                     57
                      A                      A                      A
 Frequencies --   1511.4066              1597.0986              1623.1889
 Red. masses --      2.5351                 6.1591                 6.2578
 Frc consts  --      3.4120                 9.2562                 9.7143
 IR Inten    --     20.0447               303.2374                93.3393

                     58                     59                     60
                      A                      A                      A
 Frequencies --   1667.5837              1694.3068              1705.7336
 Red. masses --      9.6165                10.7143                 9.0091
 Frc consts  --     15.7558                18.1216                15.4438
 IR Inten    --    107.2655              1017.8717                62.8899

                     61                     62                     63
                      A                      A                      A
 Frequencies --   1740.8505              3057.6931              3136.1841
 Red. masses --     11.8112                 1.0294                 1.1079
 Frc consts  --     21.0896                 5.6703                 6.4205
 IR Inten    --    551.5846                40.0709                23.2271

                     64                     65                     66
                      A                      A                      A
 Frequencies --   3169.1715              3174.9646              3182.1868
 Red. masses --      1.1065                 1.0896                 1.0875
 Frc consts  --      6.5477                 6.4711                 6.4885
 IR Inten    --     15.2722                 6.5546                 2.7986

                     67                     68                     69
                      A                      A                      A
 Frequencies --   3193.1534              3198.5670              3787.4499
 Red. masses --      1.0951                 1.0995                 1.0663
 Frc consts  --      6.5785                 6.6274                 9.0122
 IR Inten    --      4.8686                 5.7512               181.3935

 - Thermochemistry -
 -------------------
 Temperature   298.150 Kelvin.  Pressure   1.00000 Atm.
 Atom     1 has atomic number  6 and mass  12.00000

 Molecular mass:   232.03717 amu.
 Principal axes and moments of inertia in atomic units:
                           1         2         3
     Eigenvalues --  2175.385774793.967746533.17061
           X            0.46307   0.88255   0.08164
           Y            0.88464  -0.45457  -0.10377
           Z            0.05447  -0.12028   0.99124
 This molecule is an asymmetric top.
 Rotational symmetry number  1.
 Warning -- assumption of classical behavior for rotation
           may cause significant error
 Rotational temperatures (Kelvin)      0.03982     0.01807     0.01326
 Rotational constants (GHZ):           0.82962     0.37646     0.27624
 Zero-point vibrational energy     467890.0 (Joules/Mol)
                                  111.82840 (Kcal/Mol)
 Warning -- explicit consideration of  22 degrees of freedom as
           vibrations may cause significant error
 Vibrational temperatures:     41.13    75.92   114.15   132.44   163.56
          (Kelvin)            209.19   250.21   311.83   329.70   363.08
                              407.33   425.23   448.07   538.97   567.65
                              605.00   638.86   648.57   680.07   717.30
                              811.41   819.97   900.82   955.87   964.11
                             1038.32  1083.35  1105.41  1152.84  1160.14
                             1222.14  1253.98  1272.42  1363.58  1400.42
                             1418.56  1466.55  1569.26  1604.05  1660.77
                             1676.75  1725.41  1739.38  1743.98  1830.93
                             1863.14  1871.71  1909.07  1983.30  2008.85
                             2068.71  2108.86  2123.83  2135.17  2174.58
                             2297.87  2335.41  2399.28  2437.73  2454.17
                             2504.70  4399.34  4512.27  4559.73  4568.07
                             4578.46  4594.24  4602.02  5449.30

 Zero-point correction=                           0.178210 (Hartree/Particle)
 Thermal correction to Energy=                    0.192770
 Thermal correction to Enthalpy=                  0.193714
 Thermal correction to Gibbs Free Energy=         0.135795
 Sum of electronic and zero-point Energies=           -838.273394
 Sum of electronic and thermal Energies=              -838.258834
 Sum of electronic and thermal Enthalpies=            -838.257890
 Sum of electronic and thermal Free Energies=         -838.315809

                     E (Thermal)             CV                S
                      KCal/Mol        Cal/Mol-Kelvin    Cal/Mol-Kelvin
 Total                  120.965             54.508            121.901
 Electronic               0.000              0.000              0.000
 Translational            0.889              2.981             42.227
 Rotational               0.889              2.981             32.588
 Vibrational            119.187             48.546             47.086
 Vibration     1          0.593              1.984              5.925
 Vibration     2          0.596              1.977              4.711
 Vibration     3          0.600              1.963              3.907
 Vibration     4          0.602              1.955              3.616
 Vibration     5          0.607              1.938              3.205
 Vibration     6          0.617              1.908              2.732
 Vibration     7          0.627              1.875              2.393
 Vibration     8          0.646              1.816              1.986
 Vibration     9          0.652              1.797              1.886
 Vibration    10          0.664              1.759              1.714
 Vibration    11          0.682              1.705              1.515
 Vibration    12          0.690              1.682              1.442
 Vibration    13          0.700              1.652              1.355
 Vibration    14          0.746              1.524              1.061
 Vibration    15          0.761              1.482              0.983
 Vibration    16          0.783              1.426              0.890
 Vibration    17          0.804              1.374              0.814
 Vibration    18          0.810              1.359              0.793
 Vibration    19          0.830              1.311              0.730
 Vibration    20          0.854              1.253              0.662
 Vibration    21          0.920              1.109              0.516
 Vibration    22          0.926              1.096              0.504

                           ! Non-Optimized Parameters !
 Normal termination of Gaussian 16 at Sun Feb 11 02:01:15 2024.
