 Q-Chem 5.4, Q-Chem, Inc., Pleasanton, CA (2021)
 Q-Chem 5.4.0 for Intel X86 EM64T Linux

User input:
--------------------------------------------------------------
$molecule
0 1
C                  0.8264430000      1.0826010000     -1.5373460000
C                 -0.4140170000      0.3154500000     -1.7961890000
C                 -0.6689000000     -0.8283590000     -1.1547370000
C                  0.2738540000     -1.3769750000     -0.1562960000
C                  1.4917080000     -0.5604630000      0.2144930000
C                  1.7099270000      0.6019680000     -0.4294540000
O                  1.1176510000      2.0418070000     -2.2256150000
O                  0.0755840000     -2.4630000000      0.3538980000
S                  3.0998780000      1.7041280000      0.0328360000
C                  4.2274830000      1.6434200000     -1.3625790000
C                  5.0890830000      0.5524650000     -1.4779790000
C                  4.2337470000      2.6967960000     -2.2734370000
C                  5.1367200000      2.6529150000     -3.3324480000
C                  5.9785020000      0.5204550000     -2.5487280000
C                  6.0029530000      1.5681320000     -3.4698850000
O                  3.7480150000      1.0392630000      1.1699510000
O                  2.5655080000      3.0561170000      0.1796350000
H                 -1.0678220000      0.7258420000     -2.5575280000
H                 -1.5506190000     -1.4297360000     -1.3454100000
H                  5.0647220000     -0.2464190000     -0.7467610000
H                  3.5448020000      3.5212700000     -2.1478440000
H                  5.1621930000      3.4651270000     -4.0492970000
H                  6.6562940000     -0.3179560000     -2.6573830000
H                  6.7015550000      1.5391790000     -4.2984770000
C                  2.4471650000     -1.2800580000      1.1909940000
O                  3.2959790000     -1.9552880000      0.6582340000
C                  2.2197400000     -1.2539270000      2.7120960000
C                  1.2675310000     -0.1242900000      3.1363520000
C                  1.6238520000     -2.6281870000      3.1153290000
C                  3.5882540000     -1.0957970000      3.4090270000
H                  0.2782900000     -0.2243010000      2.6786590000
H                  1.6734580000      0.8575910000      2.8864270000
H                  1.1228670000     -0.1598880000      4.2193330000
H                  0.6395990000     -2.7960250000      2.6790330000
H                  1.5337920000     -2.6617600000      4.2046120000
H                  2.2808010000     -3.4403760000      2.7978640000
H                  4.0306950000     -0.1239000000      3.1956280000
H                  4.2796130000     -1.8734660000      3.0801950000
H                  3.4503140000     -1.1923460000      4.4895860000
$end
$rem
MAX_SCF_CYCLES=200
BASIS  =  6-311++G(d,p)
GUI  =  2
JOB_TYPE  =  SP
METHOD  =  B3LYP
SOLVENT_METHOD = COSMO
$end
$solvent
dielectric 37.219
opticaldielectric 1.43
$end

--------------------------------------------------------------

             Standard Nuclear Orientation (Angstroms)
    I     Atom           X                Y                Z
 ----------------------------------------------------------------
    1      C       0.5316921303    -2.3092527229    -0.3386962222
    2      C      -0.3187505880    -3.4198463082     0.1487362739
    3      C      -1.5038889608    -3.1870223267     0.7196697827
    4      C      -2.0201263305    -1.8114824849     0.8871158103
    5      C      -1.2299249660    -0.6649142827     0.2969396880
    6      C      -0.0508917566    -0.9316464173    -0.2965818027
    7      O       1.6657147049    -2.5193171556    -0.7239989608
    8      O      -3.0567627121    -1.6062179900     1.4890383223
    9      S       0.9173065786     0.3819795267    -1.1316933850
   10      C       2.3852705058     0.5939825682    -0.1205068847
   11      C       2.2905151057     1.3587409315     1.0422573184
   12      C       3.5823933544     0.0169434198    -0.5367102457
   13      C       4.7207893400     0.2173634012     0.2396121680
   14      C       3.4367281024     1.5404081007     1.8115342675
   15      C       4.6466530711     0.9737218530     1.4094106132
   16      O       0.0990104533     1.5941465069    -1.0044132784
   17      O       1.2934924648    -0.1148696788    -2.4532835429
   18      H       0.1024418222    -4.4132362310     0.0424674667
   19      H      -2.1344443246    -3.9747945993     1.1162220034
   20      H       1.3455267223     1.8013757160     1.3330498049
   21      H       3.6093899285    -0.5724009638    -1.4434188945
   22      H       5.6638275563    -0.2179239103    -0.0692787101
   23      H       3.3851468348     2.1306713834     2.7187660676
   24      H       5.5364217536     1.1233854841     2.0105430631
   25      C      -1.8183286913     0.7254817699     0.6207438249
   26      O      -1.4087553822     1.2188637978     1.6449888425
   27      C      -2.9495617026     1.3411259539    -0.2203568629
   28      C      -3.0880555457     0.6608888532    -1.5918056688
   29      C      -4.2655910462     1.1815549760     0.5851701561
   30      C      -2.6665472123     2.8490406406    -0.3925328768
   31      H      -3.3161660247    -0.4059170410    -1.5025104731
   32      H      -2.1834445649     0.7785327128    -2.1911122921
   33      H      -3.9145853540     1.1187538255    -2.1415791494
   34      H      -4.5428176408     0.1366174529     0.7212905074
   35      H      -5.0685467098     1.6885387129     0.0429477878
   36      H      -4.1711227907     1.6407293478     1.5711983664
   37      H      -1.7743254398     3.0177757806    -0.9936532570
   38      H      -2.5286543315     3.3279259666     0.5783075955
   39      H      -3.5213977827     3.3169225407    -0.8887928241
 ----------------------------------------------------------------

   10   -1431.9472896527      3.80e-06  Convergence criterion met
 Total energy in the final basis set =    -1431.9472896527
    5   -1431.9707684776      4.40e-06  Convergence criterion met
 Total energy in the final basis set =    -1431.9707684776

                    Orbital Energies (a.u.)
 --------------------------------------------------------------

 Alpha MOs
 -- Occupied --
-89.0798 -19.1638 -19.1595 -19.1479 -19.1457 -19.1437 -10.3121 -10.3103
-10.3005 -10.2598 -10.2584 -10.2283 -10.2239 -10.2228 -10.2059 -10.2050
-10.2041 -10.1968 -10.1948 -10.1944 -10.1641 -10.1632 -10.1585  -8.1437
 -6.1064  -6.1056  -6.1046  -1.1420  -1.0986  -1.0931  -1.0843  -1.0379
 -0.8921  -0.8879  -0.8331  -0.8227  -0.7942  -0.7741  -0.7465  -0.7041
 -0.6948  -0.6905  -0.6745  -0.6452  -0.6332  -0.6208  -0.6017  -0.5622
 -0.5585  -0.5456  -0.5309  -0.5100  -0.5008  -0.4982  -0.4923  -0.4904
 -0.4760  -0.4720  -0.4669  -0.4636  -0.4595  -0.4470  -0.4447  -0.4434
 -0.4361  -0.4312  -0.4190  -0.3989  -0.3936  -0.3894  -0.3872  -0.3805
 -0.3710  -0.3703  -0.3678  -0.3579  -0.3413  -0.3406  -0.3383  -0.3339
 -0.3292  -0.3201  -0.3120  -0.3049  -0.2854  -0.2796  -0.2751

          Ground-State Mulliken Net Atomic Charges

     Atom                 Charge (a.u.)
  ----------------------------------------
      1 C                    -0.173581
      2 C                    -0.138277
      3 C                    -0.109857
      4 C                    -0.407406
      5 C                     0.563227
      6 C                     0.038319
      7 O                    -0.212424
      8 O                    -0.195509
      9 S                     0.315159
     10 C                     0.890978
     11 C                    -0.414924
     12 C                    -0.030976
     13 C                    -0.485847
     14 C                    -0.580934
     15 C                    -0.378820
     16 O                    -0.123029
     17 O                    -0.123591
     18 H                     0.283087
     19 H                     0.279186
     20 H                     0.231297
     21 H                     0.276920
     22 H                     0.241688
     23 H                     0.248705
     24 H                     0.218994
     25 C                    -0.152271
     26 O                    -0.208331
     27 C                     0.218728
     28 C                    -0.545428
     29 C                    -0.560777
     30 C                    -0.583137
     31 H                     0.151819
     32 H                     0.211609
     33 H                     0.193854
     34 H                     0.177672
     35 H                     0.172378
     36 H                     0.190042
     37 H                     0.162105
     38 H                     0.178724
     39 H                     0.180628
  ----------------------------------------
  Sum of atomic charges =     0.000000

                    Cartesian Multipole Moments
 -----------------------------------------------------------------
    Charge (ESU x 10^10)
                -0.0000
    Dipole Moment (Debye)
         X       1.0388      Y      -3.6647      Z       2.5286
       Tot       4.5720
    Quadrupole Moments (Debye-Ang)
        XX    -121.9598     XY       6.9188     YY    -130.2524
        XZ      19.1198     YZ       0.2246     ZZ    -154.6110

 Total job time:  155.76s(wall), 1179.70s(cpu)
        *  Thank you very much for using Q-Chem.  Have a nice day.  *
