 Q-Chem 5.4, Q-Chem, Inc., Pleasanton, CA (2021)
 Q-Chem 5.4.0 for Intel X86 EM64T Linux

User input:
--------------------------------------------------------------
$molecule
-2 1
C                 -4.6669330000      0.2851680000     -0.0836420000
C                 -3.2005000000     -0.0720180000     -0.0282860000
C                 -2.8173040000     -1.4475410000     -0.0613090000
C                 -1.4849920000     -1.8080800000     -0.0132010000
O                 -1.1385140000     -3.1226100000     -0.0454700000
C                 -0.4458520000     -0.8114360000      0.0712490000
C                  0.9168750000     -1.1997900000      0.1195300000
O                  1.2732450000     -2.5052570000      0.0875190000
C                  1.8954630000     -0.1747720000      0.2025200000
C                  3.2970090000     -0.5097260000      0.2546160000
O                  3.6678700000     -1.8190230000      0.2232900000
C                  4.2625650000      0.4758070000      0.3354600000
C                  3.8776990000      1.8454950000      0.3684900000
C                  2.5486130000      2.2010250000      0.3206230000
C                  1.5215190000      1.2216190000      0.2371350000
C                  0.1341890000      1.6468490000      0.1891840000
O                 -0.2033640000      2.8833900000      0.2196200000
C                 -0.8394280000      0.5774600000      0.1046440000
C                 -2.2260550000      0.8963670000      0.0524470000
H                 -5.1469640000     -0.0847230000     -1.0034350000
H                 -5.2297850000     -0.1513560000      0.7565480000
H                 -4.8051790000      1.3704690000     -0.0490400000
H                 -3.5653710000     -2.2347120000     -0.1243200000
H                 -0.1159750000     -3.1149180000      0.0016740000
H                  2.7835750000     -2.3296040000      0.1636280000
H                  5.3075340000      0.1796930000      0.3725780000
H                  4.6482400000      2.6125280000      0.4322860000
H                  2.2316590000      3.2379970000      0.3445130000
H                 -2.4798380000      1.9516990000      0.0796440000
$end
$rem
MAX_SCF_CYCLES=200
BASIS  =  6-311++G(d,p)
GUI  =  2
JOB_TYPE  =  SP
METHOD  =  B3LYP
SOLVENT_METHOD = PCM
$end
$pcm
theory = CPCM
$end
$solvent
dielectric 37.219
opticaldielectric 1.43
$end

--------------------------------------------------------------

             Standard Nuclear Orientation (Angstroms)
    I     Atom           X                Y                Z
 ----------------------------------------------------------------
    1      C      -4.6669330000     0.2851680000    -0.0836420000
    2      C      -3.2005000000    -0.0720180000    -0.0282860000
    3      C      -2.8173040000    -1.4475410000    -0.0613090000
    4      C      -1.4849920000    -1.8080800000    -0.0132010000
    5      O      -1.1385140000    -3.1226100000    -0.0454700000
    6      C      -0.4458520000    -0.8114360000     0.0712490000
    7      C       0.9168750000    -1.1997900000     0.1195300000
    8      O       1.2732450000    -2.5052570000     0.0875190000
    9      C       1.8954630000    -0.1747720000     0.2025200000
   10      C       3.2970090000    -0.5097260000     0.2546160000
   11      O       3.6678700000    -1.8190230000     0.2232900000
   12      C       4.2625650000     0.4758070000     0.3354600000
   13      C       3.8776990000     1.8454950000     0.3684900000
   14      C       2.5486130000     2.2010250000     0.3206230000
   15      C       1.5215190000     1.2216190000     0.2371350000
   16      C       0.1341890000     1.6468490000     0.1891840000
   17      O      -0.2033640000     2.8833900000     0.2196200000
   18      C      -0.8394280000     0.5774600000     0.1046440000
   19      C      -2.2260550000     0.8963670000     0.0524470000
   20      H      -5.1469640000    -0.0847230000    -1.0034350000
   21      H      -5.2297850000    -0.1513560000     0.7565480000
   22      H      -4.8051790000     1.3704690000    -0.0490400000
   23      H      -3.5653710000    -2.2347120000    -0.1243200000
   24      H      -0.1159750000    -3.1149180000     0.0016740000
   25      H       2.7835750000    -2.3296040000     0.1636280000
   26      H       5.3075340000     0.1796930000     0.3725780000
   27      H       4.6482400000     2.6125280000     0.4322860000
   28      H       2.2316590000     3.2379970000     0.3445130000
   29      H      -2.4798380000     1.9516990000     0.0796440000
 ----------------------------------------------------------------

    9    -879.0583904479      3.39e-06  Convergence criterion met
 Total energy in the final basis set =     -879.0583904479

                    Orbital Energies (a.u.)
 --------------------------------------------------------------

 Alpha MOs
 -- Occupied --
-19.1115 -19.1113 -19.0625 -19.0289 -10.2134 -10.2133 -10.1912 -10.1843
-10.1601 -10.1526 -10.1523 -10.1510 -10.1500 -10.1438 -10.1429 -10.1424
-10.1413 -10.1397 -10.1366  -1.0327  -1.0257  -0.9555  -0.9482  -0.8333
 -0.8205  -0.7706  -0.7298  -0.7203  -0.7147  -0.6791  -0.6424  -0.6115
 -0.5930  -0.5644  -0.5542  -0.5100  -0.4967  -0.4885  -0.4729  -0.4509
 -0.4418  -0.4412  -0.4121  -0.4114  -0.4001  -0.3968  -0.3902  -0.3841
 -0.3827  -0.3768  -0.3708  -0.3561  -0.3554  -0.3382  -0.3338  -0.3315
 -0.3251  -0.3138  -0.3087  -0.2896  -0.2418  -0.2390  -0.2192  -0.2094
 -0.2062  -0.2049  -0.1194

          Ground-State Mulliken Net Atomic Charges

     Atom                 Charge (a.u.)
  ----------------------------------------
      1 C                    -0.344720
      2 C                     0.330019
      3 C                    -0.406242
      4 C                     0.005902
      5 O                    -0.480286
      6 C                     0.391462
      7 C                    -0.384418
      8 O                    -0.763163
      9 C                     0.494409
     10 C                    -0.106335
     11 O                    -0.479013
     12 C                    -0.343959
     13 C                    -0.454979
     14 C                    -0.237997
     15 C                     0.232908
     16 C                    -0.408924
     17 O                    -0.653939
     18 C                    -0.090784
     19 C                    -0.441243
     20 H                     0.159481
     21 H                     0.159184
     22 H                     0.163776
     23 H                     0.169792
     24 H                     0.446367
     25 H                     0.444196
     26 H                     0.174346
     27 H                     0.181807
     28 H                     0.135570
     29 H                     0.106784
  ----------------------------------------
  Sum of atomic charges =    -2.000000

                    Cartesian Multipole Moments
 -----------------------------------------------------------------
    Charge (ESU x 10^10)
                -9.6064
    Dipole Moment (Debye)
         X      -6.0914      Y      -0.4637      Z      -1.4721
       Tot       6.2839
    Quadrupole Moments (Debye-Ang)
        XX    -154.3847     XY       6.7946     YY    -176.0619
        XZ      -1.9602     YZ      -1.7441     ZZ    -122.6195

 Total job time:  103.92s(wall), 406.51s(cpu)
        *  Thank you very much for using Q-Chem.  Have a nice day.  *
