 Gaussian 16, Revision A.03,
 Gaussian 16:  ES64L-G16RevA.03 25-Dec-2016

 ----------------------------------------------------------------
 #P UB3LYP/6-311++G(d,p) SCRF=(PCM,Solvent=n,n-DiMethylFormamide)
 ----------------------------------------------------------------

 -------
 Reduced
 -------
 Symbolic Z-matrix:
 Charge = -2 Multiplicity = 1

                         Standard orientation:
 ---------------------------------------------------------------------
 Center     Atomic      Atomic             Coordinates (Angstroms)
 Number     Number       Type             X           Y           Z
 ---------------------------------------------------------------------
      1          6           0       -4.877809   -1.024590    0.000965
      2          6           0       -3.466331   -0.487186   -0.000041
      3          6           0       -3.259493    0.926041   -0.000226
      4          6           0       -1.981704    1.450077   -0.000288
      5          8           0       -1.803621    2.798173   -0.000662
      6          6           0       -0.823661    0.590322   -0.000016
      7          6           0        0.480814    1.145768    0.000120
      8          8           0        0.669841    2.486118    0.000278
      9          6           0        1.582312    0.250288    0.000112
     10          6           0        2.932094    0.757564    0.000197
     11          8           0        3.135038    2.103518    0.000196
     12          6           0        4.015655   -0.100343    0.000274
     13          6           0        3.806436   -1.507996    0.000159
     14          6           0        2.531232   -2.026665   -0.000055
     15          6           0        1.387320   -1.182513   -0.000097
     16          6           0        0.063072   -1.777636   -0.000334
     17          8           0       -0.115967   -3.047222   -0.000598
     18          6           0       -1.039102   -0.837486   -0.000187
     19          6           0       -2.376102   -1.326966   -0.000077
     20          1           0       -5.445763   -0.689994    0.883429
     21          1           0       -5.447683   -0.688670   -0.879760
     22          1           0       -4.877963   -2.119207    0.000125
     23          1           0       -4.101945    1.614145   -0.000781
     24          1           0       -0.787011    2.918056   -0.000416
     25          1           0        2.192190    2.500089    0.000241
     26          1           0        5.016169    0.323912    0.000346
     27          1           0        4.668691   -2.173322    0.000222
     28          1           0        2.347433   -3.095571   -0.000204
     29          1           0       -2.494850   -2.406211    0.000055
 ---------------------------------------------------------------------

 SCF Done:  E(UB3LYP) =  -879.052218707     A.U. after   16 cycles

 The electronic state is 1-A.
 Alpha  occ. eigenvalues --  -19.10855 -19.10840 -19.05901 -19.02406 -10.21122
 Alpha  occ. eigenvalues --  -10.21122 -10.18806 -10.18078 -10.15854 -10.15430
 Alpha  occ. eigenvalues --  -10.15130 -10.14839 -10.14738 -10.14113 -10.14092
 Alpha  occ. eigenvalues --  -10.13996 -10.13931 -10.13847 -10.13484  -1.02969
 Alpha  occ. eigenvalues --   -1.02274  -0.95196  -0.94316  -0.83084  -0.81848
 Alpha  occ. eigenvalues --   -0.76878  -0.72837  -0.71781  -0.71257  -0.67818
 Alpha  occ. eigenvalues --   -0.64018  -0.60928  -0.59130  -0.56233  -0.55157
 Alpha  occ. eigenvalues --   -0.50789  -0.49413  -0.48661  -0.47012  -0.44921
 Alpha  occ. eigenvalues --   -0.43975  -0.43907  -0.41063  -0.40988  -0.39960
 Alpha  occ. eigenvalues --   -0.39475  -0.38789  -0.38262  -0.38054  -0.37257
 Alpha  occ. eigenvalues --   -0.36853  -0.35578  -0.35169  -0.33649  -0.33192
 Alpha  occ. eigenvalues --   -0.32810  -0.32317  -0.31058  -0.30625  -0.28659
 Alpha  occ. eigenvalues --   -0.23872  -0.23558  -0.21711  -0.20633  -0.20239
 Alpha  occ. eigenvalues --   -0.20086  -0.11606
 Alpha virt. eigenvalues --   -0.01739  -0.00128   0.00016   0.00697   0.01418
 Alpha virt. eigenvalues --    0.02208   0.02657   0.03207   0.03673   0.04089
 Alpha virt. eigenvalues --    0.04384   0.04858   0.05459   0.06383   0.06477

  Beta  occ. eigenvalues --  -19.10855 -19.10840 -19.05901 -19.02406 -10.21122
  Beta  occ. eigenvalues --  -10.21122 -10.18806 -10.18078 -10.15854 -10.15430
  Beta  occ. eigenvalues --  -10.15130 -10.14839 -10.14738 -10.14113 -10.14092
  Beta  occ. eigenvalues --  -10.13996 -10.13931 -10.13847 -10.13484  -1.02969
  Beta  occ. eigenvalues --   -1.02274  -0.95196  -0.94316  -0.83084  -0.81848
  Beta  occ. eigenvalues --   -0.76878  -0.72837  -0.71781  -0.71257  -0.67818
  Beta  occ. eigenvalues --   -0.64018  -0.60928  -0.59130  -0.56233  -0.55157
  Beta  occ. eigenvalues --   -0.50789  -0.49413  -0.48661  -0.47012  -0.44921
  Beta  occ. eigenvalues --   -0.43975  -0.43907  -0.41063  -0.40988  -0.39960
  Beta  occ. eigenvalues --   -0.39475  -0.38789  -0.38262  -0.38054  -0.37257
  Beta  occ. eigenvalues --   -0.36853  -0.35578  -0.35169  -0.33649  -0.33192
  Beta  occ. eigenvalues --   -0.32810  -0.32317  -0.31058  -0.30625  -0.28659
  Beta  occ. eigenvalues --   -0.23872  -0.23558  -0.21711  -0.20633  -0.20239
  Beta  occ. eigenvalues --   -0.20086  -0.11606
  Beta virt. eigenvalues --   -0.01739  -0.00128   0.00016   0.00697   0.01418
  Beta virt. eigenvalues --    0.02208   0.02657   0.03207   0.03673   0.04089
  Beta virt. eigenvalues --    0.04384   0.04858   0.05459   0.06383   0.06477

 Mulliken charges and spin densities:
               1          2
     1  C   -0.320859   0.000000
     2  C    0.360190  -0.000000
     3  C   -0.397171   0.000000
     4  C   -0.003054   0.000000
     5  O   -0.470840  -0.000000
     6  C    0.391431  -0.000000
     7  C   -0.406433   0.000000
     8  O   -0.750632   0.000000
     9  C    0.502592   0.000000
    10  C   -0.111348   0.000000
    11  O   -0.470011   0.000000
    12  C   -0.320111  -0.000000
    13  C   -0.434138  -0.000000
    14  C   -0.238031   0.000000
    15  C    0.247019  -0.000000
    16  C   -0.490770   0.000000
    17  O   -0.625509   0.000000
    18  C   -0.089717  -0.000000
    19  C   -0.428157  -0.000000
    20  H    0.151587  -0.000000
    21  H    0.151437  -0.000000
    22  H    0.156192   0.000000
    23  H    0.152751  -0.000000
    24  H    0.441588   0.000000
    25  H    0.439139  -0.000000
    26  H    0.158506   0.000000
    27  H    0.164965  -0.000000
    28  H    0.134532  -0.000000
    29  H    0.104851  -0.000000
 Sum of Mulliken charges =  -2.00000   0.00000

 Dipole moment (field-independent basis, Debye):
    X=             -3.3846    Y=              1.1766    Z=              0.0021  Tot=              3.5833
 Quadrupole moment (field-independent basis, Debye-Ang):
   XX=           -153.4270   YY=           -177.2230   ZZ=           -122.4293
   XY=             -2.8496   XZ=             -0.0053   YZ=             -0.0076

 Normal termination of Gaussian 16 at Tue Jan 16 06:20:29 2024.
