 Q-Chem 5.4, Q-Chem, Inc., Pleasanton, CA (2021)
 Q-Chem 5.4.0 for Intel X86 EM64T Linux

User input:
--------------------------------------------------------------
$molecule
-2 1
C                 -1.0484710000     -2.2477170000      1.2618910000
C                 -1.8151780000     -2.1123770000      0.0373080000
C                 -1.9173410000     -0.9488050000     -0.6658460000
C                 -1.2309380000      0.2759020000     -0.2988440000
C                 -0.3840690000      0.1679090000      0.8663780000
C                 -0.4165300000     -1.0309670000      1.7165940000
O                 -1.0484310000     -3.3826800000      1.8661540000
O                 -1.3677000000      1.3082260000     -1.0530850000
H                 -2.5163250000     -0.8931520000     -1.5744980000
C                  0.4149390000     -2.0991810000      3.8650880000
C                 -0.1140900000      0.2463100000      3.8726220000
C                  0.7339980000     -2.0202250000      5.2180200000
C                  0.6375530000     -0.8156160000      5.9237720000
C                  0.2019860000      0.3169240000      5.2231750000
H                 -2.3404980000     -3.0109110000     -0.2854990000
H                  0.4567800000     -3.0452790000      3.3450940000
H                 -0.4598650000      1.1392500000      3.3673790000
H                  1.0643980000     -2.9212400000      5.7333690000
H                  0.8895320000     -0.7596340000      6.9799580000
H                  0.1027050000      1.2696370000      5.7402320000
C                  0.6615540000      1.1816230000      1.0392890000
C                  0.5108090000      2.5303310000      0.6084840000
C                  1.9361030000      0.8569960000      1.5830440000
C                  1.5388380000      3.4612830000      0.7307130000
C                  2.9585040000      1.7898830000      1.6983380000
C                  2.7792220000      3.1144340000      1.2780760000
H                 -0.4268620000      2.8047240000      0.1472570000
H                  2.1155240000     -0.1606070000      1.9062760000
H                  1.3673400000      4.4813040000      0.3890690000
H                  3.9132090000      1.4786250000      2.1184860000
H                  3.5779210000      3.8461010000      1.3724260000
C                 -0.0174570000     -0.9615220000      3.1261020000
$end

$rem
BASIS  =  6-311++G(d,p)
GUI  =  2
JOB_TYPE  =  SP
METHOD  =  B3LYP
SCF_CONVERGENCE  = 8
SOLVENT_METHOD = sm12
$end

$smx
solvent dimethylformamide
charges CM5
$end

--------------------------------------------------------------

             Standard Nuclear Orientation (Angstroms)
    I     Atom           X                Y                Z
 ----------------------------------------------------------------
    1      C      -1.0484710000    -2.2477170000     1.2618910000
    2      C      -1.8151780000    -2.1123770000     0.0373080000
    3      C      -1.9173410000    -0.9488050000    -0.6658460000
    4      C      -1.2309380000     0.2759020000    -0.2988440000
    5      C      -0.3840690000     0.1679090000     0.8663780000
    6      C      -0.4165300000    -1.0309670000     1.7165940000
    7      O      -1.0484310000    -3.3826800000     1.8661540000
    8      O      -1.3677000000     1.3082260000    -1.0530850000
    9      H      -2.5163250000    -0.8931520000    -1.5744980000
   10      C       0.4149390000    -2.0991810000     3.8650880000
   11      C      -0.1140900000     0.2463100000     3.8726220000
   12      C       0.7339980000    -2.0202250000     5.2180200000
   13      C       0.6375530000    -0.8156160000     5.9237720000
   14      C       0.2019860000     0.3169240000     5.2231750000
   15      H      -2.3404980000    -3.0109110000    -0.2854990000
   16      H       0.4567800000    -3.0452790000     3.3450940000
   17      H      -0.4598650000     1.1392500000     3.3673790000
   18      H       1.0643980000    -2.9212400000     5.7333690000
   19      H       0.8895320000    -0.7596340000     6.9799580000
   20      H       0.1027050000     1.2696370000     5.7402320000
   21      C       0.6615540000     1.1816230000     1.0392890000
   22      C       0.5108090000     2.5303310000     0.6084840000
   23      C       1.9361030000     0.8569960000     1.5830440000
   24      C       1.5388380000     3.4612830000     0.7307130000
   25      C       2.9585040000     1.7898830000     1.6983380000
   26      C       2.7792220000     3.1144340000     1.2780760000
   27      H      -0.4268620000     2.8047240000     0.1472570000
   28      H       2.1155240000    -0.1606070000     1.9062760000
   29      H       1.3673400000     4.4813040000     0.3890690000
   30      H       3.9132090000     1.4786250000     2.1184860000
   31      H       3.5779210000     3.8461010000     1.3724260000
   32      C      -0.0174570000    -0.9615220000     3.1261020000
 ----------------------------------------------------------------

   17    -843.7719153434      7.22e-09  Convergence criterion met
 Total energy in the final basis set =     -844.0479846199

                    Orbital Energies (a.u.)
 --------------------------------------------------------------

 Alpha MOs
 -- Occupied --
-19.0323 -19.0323 -10.1943 -10.1943 -10.1815 -10.1815 -10.1800 -10.1800
-10.1788 -10.1787 -10.1764 -10.1763 -10.1711 -10.1711 -10.1636 -10.1636
-10.1542 -10.1535 -10.1471 -10.1468  -0.9513  -0.9485  -0.8583  -0.8522
 -0.8022  -0.7677  -0.7537  -0.7463  -0.7447  -0.6987  -0.6638  -0.6206
 -0.6083  -0.5995  -0.5994  -0.5648  -0.5456  -0.5106  -0.5037  -0.4698
 -0.4646  -0.4619  -0.4493  -0.4401  -0.4297  -0.4213  -0.4210  -0.4182
 -0.4068  -0.3788  -0.3773  -0.3725  -0.3666  -0.3614  -0.3595  -0.3418
 -0.3412  -0.3363  -0.3355  -0.3212  -0.2749  -0.2699  -0.2566  -0.2550
 -0.2419  -0.2040  -0.2036  -0.1952  -0.1342

          Ground-State Mulliken Net Atomic Charges

     Atom                 Charge (a.u.)
  ----------------------------------------
      1 C                    -1.310660
      2 C                    -0.125595
      3 C                    -0.123499
      4 C                    -1.299646
      5 C                    -1.227332
      6 C                    -1.224357
      7 O                    -0.316899
      8 O                    -0.316598
      9 H                     0.194516
     10 C                    -0.662005
     11 C                    -1.220146
     12 C                     1.620407
     13 C                     1.782623
     14 C                     1.230873
     15 H                     0.194043
     16 H                     0.186067
     17 H                     0.019425
     18 H                     0.343073
     19 H                     0.444969
     20 H                     0.366725
     21 C                    -2.340974
     22 C                    -0.651737
     23 C                    -1.223534
     24 C                     1.622528
     25 C                     1.231525
     26 C                     1.782078
     27 H                     0.186003
     28 H                     0.018391
     29 H                     0.343552
     30 H                     0.366728
     31 H                     0.445285
     32 C                    -2.335827
  ----------------------------------------
  Sum of atomic charges =    -2.000000

                    Cartesian Multipole Moments
 -----------------------------------------------------------------
    Charge (ESU x 10^10)
                -9.6064
    Dipole Moment (Debye)
         X       5.4229      Y       5.3301      Z     -10.6891
       Tot      13.1177
    Quadrupole Moments (Debye-Ang)
        XX    -146.7404     XY     -13.9651     YY    -175.3188
        XZ      -2.2658     YZ      23.7421     ZZ    -177.5184

 Total job time:  1112.11s(wall), 8725.13s(cpu)
        *  Thank you very much for using Q-Chem.  Have a nice day.  *
