 Gaussian 16, Revision A.03,
 Gaussian 16:  ES64L-G16RevA.03 25-Dec-2016

 ----------------------------------------------------------------------
 #P UB3LYP/6-311++G(d,p) nosym opt freq SCRF=(PCM,Solvent=n,n-DiMethylF
 ormamide)
 ----------------------------------------------------------------------

 --------
 Oxidized
 --------
 Symbolic Z-matrix:
 Charge =  0 Multiplicity = 1

 SCF Done:  E(UB3LYP) =  -838.074723250     A.U. after   15 cycles
 SCF Done:  E(UB3LYP) =  -838.074709744     A.U. after   13 cycles
 SCF Done:  E(UB3LYP) =  -838.074886185     A.U. after   13 cycles
 SCF Done:  E(UB3LYP) =  -838.075084713     A.U. after   12 cycles
 SCF Done:  E(UB3LYP) =  -838.075095224     A.U. after   11 cycles
 SCF Done:  E(UB3LYP) =  -838.075120553     A.U. after   12 cycles
 SCF Done:  E(UB3LYP) =  -838.075130281     A.U. after   10 cycles
 SCF Done:  E(UB3LYP) =  -838.075128660     A.U. after   12 cycles
 SCF Done:  E(UB3LYP) =  -838.075133375     A.U. after   11 cycles
 SCF Done:  E(UB3LYP) =  -838.075135074     A.U. after   10 cycles
 SCF Done:  E(UB3LYP) =  -838.075135186     A.U. after    9 cycles
 Optimization completed.
    -- Stationary point found.
 Normal termination of Gaussian 16 at Sun Feb 11 00:55:12 2024.

 ----------------------------------------------------------------------
 #P Geom=AllCheck Guess=TCheck SCRF=Check GenChk UB3LYP/6-311++G(d,p) F
 req
 ----------------------------------------------------------------------

 Structure from the checkpoint file:  "272.chk"
 --------
 Oxidized
 --------
 Charge =  0 Multiplicity = 1

                          Input orientation:
 ---------------------------------------------------------------------
 Center     Atomic      Atomic             Coordinates (Angstroms)
 Number     Number       Type             X           Y           Z
 ---------------------------------------------------------------------
      1          6           0       -0.897899    3.857131   -0.016914
      2          6           0       -2.010576    3.110650    0.364859
      3          6           0       -1.897821    1.731333    0.540528
      4          6           0        0.329486    3.223677   -0.220439
      5          6           0        0.443603    1.835891   -0.043810
      6          6           0       -0.674187    1.094193    0.334323
      7          6           0        1.512025    4.013244   -0.627328
      8          6           0        2.823777    3.305721   -0.846131
      9          6           0        2.924344    1.954357   -0.602773
     10          6           0        1.750101    1.152674   -0.259955
     11          8           0        1.463671    5.222629   -0.803076
     12          8           0        1.843728   -0.075083   -0.169231
     13          7           0        3.805766    4.100947   -1.320642
     14          1           0       -0.969959    4.927740   -0.160524
     15          1           0       -2.962364    3.602965    0.524676
     16          1           0       -2.762997    1.150667    0.838128
     17          1           0       -0.575773    0.024422    0.466715
     18          1           0        3.590806    5.090141   -1.327697
     19          1           0        4.765258    3.825316   -1.121912
     20          7           0        4.076191    1.165411   -0.800741
     21          1           0        3.842622    0.184180   -0.911296
     22          6           0        5.392336    1.451497   -0.574216
     23          6           0        6.352119    0.308208   -0.860242
     24          6           0        7.506589    0.236478    0.142392
     25          8           0        5.787119    2.556774   -0.195862
     26          1           0        6.746202    0.481015   -1.868686
     27          1           0        5.812582   -0.641404   -0.897738
     28          1           0        8.058971    1.176850    0.169454
     29          1           0        8.198075   -0.559906   -0.140518
     30          1           0        7.141134    0.025905    1.150737
 ---------------------------------------------------------------------

 SCF Done:  E(UB3LYP) =  -838.075135186     A.U. after    1 cycles

 Alpha  occ. eigenvalues --  -19.14501 -19.12900 -19.11477 -14.36935 -14.34187
 Alpha  occ. eigenvalues --  -10.29727 -10.29446 -10.28219 -10.25555 -10.23727
 Alpha  occ. eigenvalues --  -10.21212 -10.21148 -10.20194 -10.20079 -10.19943
 Alpha  occ. eigenvalues --  -10.19910 -10.18828 -10.16664  -1.07999  -1.06811
 Alpha  occ. eigenvalues --   -1.05925  -0.96372  -0.93988  -0.89293  -0.82413
 Alpha  occ. eigenvalues --   -0.79147  -0.78166  -0.76359  -0.70836  -0.67459
 Alpha  occ. eigenvalues --   -0.65243  -0.63613  -0.61333  -0.59552  -0.56861
 Alpha  occ. eigenvalues --   -0.54738  -0.54042  -0.51433  -0.51174  -0.48930
 Alpha  occ. eigenvalues --   -0.48177  -0.47290  -0.46330  -0.46179  -0.45455
 Alpha  occ. eigenvalues --   -0.45415  -0.44353  -0.43552  -0.42652  -0.41896
 Alpha  occ. eigenvalues --   -0.39200  -0.38817  -0.37888  -0.37498  -0.37283
 Alpha  occ. eigenvalues --   -0.36388  -0.35464  -0.32057  -0.30127  -0.28951
 Alpha  occ. eigenvalues --   -0.28687  -0.28507  -0.28121  -0.23005
 Alpha virt. eigenvalues --   -0.12416  -0.05876  -0.03160  -0.01262  -0.00341
 Alpha virt. eigenvalues --    0.00324   0.00764   0.01230   0.01930   0.02153
 Alpha virt. eigenvalues --    0.02630   0.03304   0.03492   0.04177   0.04338

  Beta  occ. eigenvalues --  -19.14501 -19.12900 -19.11477 -14.36935 -14.34187
  Beta  occ. eigenvalues --  -10.29727 -10.29446 -10.28219 -10.25555 -10.23727
  Beta  occ. eigenvalues --  -10.21212 -10.21148 -10.20194 -10.20079 -10.19943
  Beta  occ. eigenvalues --  -10.19910 -10.18828 -10.16664  -1.07999  -1.06811
  Beta  occ. eigenvalues --   -1.05925  -0.96372  -0.93988  -0.89293  -0.82413
  Beta  occ. eigenvalues --   -0.79147  -0.78166  -0.76359  -0.70836  -0.67459
  Beta  occ. eigenvalues --   -0.65243  -0.63613  -0.61333  -0.59552  -0.56861
  Beta  occ. eigenvalues --   -0.54738  -0.54042  -0.51433  -0.51174  -0.48930
  Beta  occ. eigenvalues --   -0.48177  -0.47290  -0.46330  -0.46179  -0.45455
  Beta  occ. eigenvalues --   -0.45415  -0.44353  -0.43552  -0.42652  -0.41896
  Beta  occ. eigenvalues --   -0.39200  -0.38817  -0.37888  -0.37498  -0.37283
  Beta  occ. eigenvalues --   -0.36388  -0.35464  -0.32057  -0.30127  -0.28951
  Beta  occ. eigenvalues --   -0.28687  -0.28507  -0.28121  -0.23005
  Beta virt. eigenvalues --   -0.12416  -0.05876  -0.03160  -0.01262  -0.00341
  Beta virt. eigenvalues --    0.00324   0.00764   0.01230   0.01930   0.02153
  Beta virt. eigenvalues --    0.02630   0.03304   0.03492   0.04177   0.04338

 Mulliken charges and spin densities:
               1          2
     1  C    0.223502   0.000000
     2  C   -0.322116   0.000000
     3  C   -0.355024   0.000000
     4  C    0.439894   0.000000
     5  C   -0.012316  -0.000000
     6  C    0.174586   0.000000
     7  C   -0.616399  -0.000000
     8  C    0.352405  -0.000000
     9  C    0.490512   0.000000
    10  C   -0.855340  -0.000000
    11  O   -0.284064   0.000000
    12  O   -0.315184   0.000000
    13  N   -0.380892   0.000000
    14  H    0.189028  -0.000000
    15  H    0.205354  -0.000000
    16  H    0.209467   0.000000
    17  H    0.187122  -0.000000
    18  H    0.314409   0.000000
    19  H    0.307979  -0.000000
    20  N   -0.024845  -0.000000
    21  H    0.363717  -0.000000
    22  C    0.128451  -0.000000
    23  C   -0.257674   0.000000
    24  C   -0.570460  -0.000000
    25  O   -0.409916  -0.000000
    26  H    0.197099  -0.000000
    27  H    0.138170  -0.000000
    28  H    0.169586   0.000000
    29  H    0.159380   0.000000
    30  H    0.153567   0.000000
 Sum of Mulliken charges =  -0.00000   0.00000

 Dipole moment (field-independent basis, Debye):
    X=             -1.9463    Y=             -1.7527    Z=             -0.6195  Tot=              2.6914
 Quadrupole moment (field-independent basis, Debye-Ang):
   XX=            -94.0142   YY=           -116.9417   ZZ=           -105.9657
   XY=            -17.2394   XZ=            -10.5197   YZ=              1.0764

  Exact polarizability: 334.552  -4.561 316.160 -33.060 -28.036 148.415
 Approx polarizability: 344.024  10.380 421.459 -35.233 -40.973 173.725

                      1                      2                      3
                      A                      A                      A
 Frequencies --     27.2490                43.5350                58.0890
 Red. masses --      2.6895                 6.8001                 3.6119
 Frc consts  --      0.0012                 0.0076                 0.0072
 IR Inten    --      0.3853                 2.0345                 5.7842

                      4                      5                      6
                      A                      A                      A
 Frequencies --     73.1647               109.5099               123.1168
 Red. masses --      6.3383                 4.3747                 5.3422
 Frc consts  --      0.0200                 0.0309                 0.0477
 IR Inten    --     12.6642                 1.4411                 1.6387

                      7                      8                      9
                      A                      A                      A
 Frequencies --    151.0725               179.0014               213.5738
 Red. masses --      4.5163                 6.0063                 1.2023
 Frc consts  --      0.0607                 0.1134                 0.0323
 IR Inten    --      4.1203                 0.3013                 0.7270

                     10                     11                     12
                      A                      A                      A
 Frequencies --    247.7394               263.1501               296.6523
 Red. masses --      5.2211                 4.4671                 4.6117
 Frc consts  --      0.1888                 0.1823                 0.2391
 IR Inten    --      0.9718                 5.8740                14.3196

                     13                     14                     15
                      A                      A                      A
 Frequencies --    308.6474               339.0609               379.8871
 Red. masses --      4.6654                 5.3184                 4.9310
 Frc consts  --      0.2619                 0.3602                 0.4193
 IR Inten    --      3.5552                 7.4535                27.6832

                     16                     17                     18
                      A                      A                      A
 Frequencies --    396.2271               411.4785               435.2983
 Red. masses --      6.2323                 7.5577                 3.9459
 Frc consts  --      0.5765                 0.7539                 0.4405
 IR Inten    --     27.6162                37.0881                 6.1305

                     19                     20                     21
                      A                      A                      A
 Frequencies --    449.8232               476.1269               522.8736
 Red. masses --      4.6184                 7.2742                 5.4034
 Frc consts  --      0.5506                 0.9716                 0.8704
 IR Inten    --      1.7626                15.9919                22.0620

                     22                     23                     24
                      A                      A                      A
 Frequencies --    549.4569               578.3666               601.3850
 Red. masses --      2.9830                 1.4204                 2.4672
 Frc consts  --      0.5306                 0.2799                 0.5257
 IR Inten    --     13.6358               247.0889               239.9748

                     25                     26                     27
                      A                      A                      A
 Frequencies --    628.5954               649.2715               673.2298
 Red. masses --      1.5216                 1.6645                 2.2290
 Frc consts  --      0.3542                 0.4134                 0.5952
 IR Inten    --    222.1150               103.9773                31.0925

                     28                     29                     30
                      A                      A                      A
 Frequencies --    678.7851               696.1501               706.6442
 Red. masses --      5.5002                 3.9226                 5.0444
 Frc consts  --      1.4931                 1.1200                 1.4841
 IR Inten    --     14.9405                 7.0850                12.6698

                     31                     32                     33
                      A                      A                      A
 Frequencies --    730.9149               738.3065               777.3526
 Red. masses --      2.7780                 3.3770                 6.8350
 Frc consts  --      0.8744                 1.0846                 2.4335
 IR Inten    --     44.3403                45.9470                 1.9762

                     34                     35                     36
                      A                      A                      A
 Frequencies --    804.5295               806.8358               849.5575
 Red. masses --      1.5068                 1.7882                 4.7458
 Frc consts  --      0.5746                 0.6859                 2.0181
 IR Inten    --      8.3559                32.1525                27.2387

                     37                     38                     39
                      A                      A                      A
 Frequencies --    911.0595               936.0039               957.7064
 Red. masses --      1.3541                 4.2074                 3.6599
 Frc consts  --      0.6622                 2.1718                 1.9778
 IR Inten    --      0.2578                46.8906                28.4697

                     40                     41                     42
                      A                      A                      A
 Frequencies --    997.0116              1021.2687              1029.9764
 Red. masses --      1.3878                 1.3306                 3.8851
 Frc consts  --      0.8128                 0.8177                 2.4283
 IR Inten    --      2.3371                 0.0562                55.7041

                     43                     44                     45
                      A                      A                      A
 Frequencies --   1034.0758              1062.7324              1089.5200
 Red. masses --      2.5820                 1.9940                 2.0302
 Frc consts  --      1.6267                 1.3268                 1.4199
 IR Inten    --     73.6658                11.5688                12.5610

                     46                     47                     48
                      A                      A                      A
 Frequencies --   1097.1980              1113.9952              1178.1544
 Red. masses --      1.6629                 1.9588                 1.2052
 Frc consts  --      1.1795                 1.4322                 0.9856
 IR Inten    --      8.9822                16.5089                10.1651

                     49                     50                     51
                      A                      A                      A
 Frequencies --   1191.6158              1212.1960              1242.2084
 Red. masses --      2.5376                 2.0712                 2.3139
 Frc consts  --      2.1230                 1.7932                 2.1037
 IR Inten    --     14.2087                24.0215                51.5196

                     52                     53                     54
                      A                      A                      A
 Frequencies --   1261.6766              1289.8865              1297.9913
 Red. masses --      2.0105                 1.3852                 2.4033
 Frc consts  --      1.8856                 1.3579                 2.3856
 IR Inten    --    341.5217               145.1122               407.3569

                     55                     56                     57
                      A                      A                      A
 Frequencies --   1328.4384              1366.5531              1372.6876
 Red. masses --      3.8869                 4.1857                 3.9022
 Frc consts  --      4.0414                 4.6054                 4.3322
 IR Inten    --    397.2305               212.8694               436.3802

                     58                     59                     60
                      A                      A                      A
 Frequencies --   1389.4331              1405.2181              1460.6387
 Red. masses --      1.8272                 1.2261                 1.0819
 Frc consts  --      2.0784                 1.4265                 1.3600
 IR Inten    --     41.9952                12.7664                17.4687

                     61                     62                     63
                      A                      A                      A
 Frequencies --   1483.4046              1486.5586              1497.2055
 Red. masses --      2.3896                 1.0394                 1.0658
 Frc consts  --      3.0981                 1.3533                 1.4076
 IR Inten    --      0.2039                15.1403                16.3171

                     64                     65                     66
                      A                      A                      A
 Frequencies --   1506.3654              1531.1932              1590.6927
 Red. masses --      2.7255                 2.1037                 1.5446
 Frc consts  --      3.6439                 2.9059                 2.3027
 IR Inten    --     60.8189               709.2983               430.6668

                     67                     68                     69
                      A                      A                      A
 Frequencies --   1600.4634              1621.3337              1642.2892
 Red. masses --      7.4128                 4.7382                 8.0995
 Frc consts  --     11.1873                 7.3385                12.8708
 IR Inten    --    901.5156                58.0143               546.5587

                     70                     71                     72
                      A                      A                      A
 Frequencies --   1662.5670              1686.1802              1706.7324
 Red. masses --      6.0993                 5.4912                 6.5313
 Frc consts  --      9.9332                 9.1987                11.2094
 IR Inten    --    157.0817               176.7629               323.2122

                     73                     74                     75
                      A                      A                      A
 Frequencies --   3027.7401              3037.4538              3072.0969
 Red. masses --      1.0648                 1.0360                 1.0972
 Frc consts  --      5.7513                 5.6314                 6.1011
 IR Inten    --     11.3475                45.0337                17.5619

                     76                     77                     78
                      A                      A                      A
 Frequencies --   3100.1983              3115.9709              3180.0272
 Red. masses --      1.1024                 1.1020                 1.0875
 Frc consts  --      6.2426                 6.3043                 6.4794
 IR Inten    --     42.4377                37.4782                 3.7316

                     79                     80                     81
                      A                      A                      A
 Frequencies --   3192.2209              3203.8697              3207.0559
 Red. masses --      1.0914                 1.0929                 1.0956
 Frc consts  --      6.5527                 6.6094                 6.6390
 IR Inten    --      9.9564                 3.5170                15.7660

                     82                     83                     84
                      A                      A                      A
 Frequencies --   3431.6637              3539.4181              3603.1977
 Red. masses --      1.0565                 1.0759                 1.0931
 Frc consts  --      7.3303                 7.9413                 8.3619
 IR Inten    --    275.0422               135.6931               216.0391

 - Thermochemistry -
 -------------------
 Temperature   298.150 Kelvin.  Pressure   1.00000 Atm.
 Atom     1 has atomic number  6 and mass  12.00000

 Molecular mass:   244.08479 amu.
 Principal axes and moments of inertia in atomic units:
                           1         2         3
     Eigenvalues --  1983.010497253.449079003.35124
           X            0.96809   0.21852   0.12266
           Y           -0.23868   0.95317   0.18572
           Z           -0.07633  -0.20907   0.97492
 This molecule is an asymmetric top.
 Rotational symmetry number  1.
 Warning -- assumption of classical behavior for rotation
           may cause significant error
 Rotational temperatures (Kelvin)      0.04368     0.01194     0.00962
 Rotational constants (GHZ):           0.91010     0.24881     0.20045
 Zero-point vibrational energy     609783.3 (Joules/Mol)
                                  145.74170 (Kcal/Mol)
 Warning -- explicit consideration of  24 degrees of freedom as
           vibrations may cause significant error
 Vibrational temperatures:     39.21    62.64    83.58   105.27   157.56
          (Kelvin)            177.14   217.36   257.54   307.29   356.44
                              378.61   426.82   444.07   487.83   546.57
                              570.08   592.03   626.30   647.20   685.04
                              752.30   790.55   832.14   865.26   904.41
                              934.16   968.63   976.62  1001.60  1016.70
                             1051.62  1062.26  1118.44  1157.54  1160.86
                             1222.32  1310.81  1346.70  1377.93  1434.48
                             1469.38  1481.91  1487.80  1529.03  1567.58
                             1578.62  1602.79  1695.10  1714.47  1744.08
                             1787.26  1815.27  1855.86  1867.52  1911.33
                             1966.17  1974.99  1999.08  2021.80  2101.53
                             2134.29  2138.83  2154.14  2167.32  2203.05
                             2288.65  2302.71  2332.74  2362.89  2392.06
                             2426.04  2455.61  4356.24  4370.22  4420.06
                             4460.49  4483.19  4575.35  4592.89  4609.65
                             4614.24  4937.40  5092.43  5184.20

 Zero-point correction=                           0.232254 (Hartree/Particle)
 Thermal correction to Energy=                    0.248053
 Thermal correction to Enthalpy=                  0.248997
 Thermal correction to Gibbs Free Energy=         0.188055
 Sum of electronic and zero-point Energies=           -837.842881
 Sum of electronic and thermal Energies=              -837.827082
 Sum of electronic and thermal Enthalpies=            -837.826138
 Sum of electronic and thermal Free Energies=         -837.887080

                     E (Thermal)             CV                S
                      KCal/Mol        Cal/Mol-Kelvin    Cal/Mol-Kelvin
 Total                  155.656             60.666            128.265
 Electronic               0.000              0.000              0.000
 Translational            0.889              2.981             42.378
 Rotational               0.889              2.981             33.226
 Vibrational            153.878             54.704             52.661
 Vibration     1          0.593              1.984              6.020
 Vibration     2          0.595              1.980              5.091
 Vibration     3          0.596              1.974              4.521
 Vibration     4          0.599              1.967              4.066
 Vibration     5          0.606              1.942              3.278
 Vibration     6          0.610              1.930              3.051
 Vibration     7          0.618              1.901              2.659
 Vibration     8          0.629              1.868              2.339
 Vibration     9          0.644              1.820              2.013
 Vibration    10          0.661              1.767              1.747
 Vibration    11          0.670              1.740              1.641
 Vibration    12          0.690              1.680              1.436
 Vibration    13          0.698              1.657              1.370
 Vibration    14          0.719              1.597              1.217
 Vibration    15          0.750              1.513              1.040
 Vibration    16          0.763              1.478              0.977
 Vibration    17          0.775              1.445              0.921
 Vibration    18          0.796              1.393              0.842
 Vibration    19          0.809              1.361              0.796
 Vibration    20          0.833              1.303              0.721
 Vibration    21          0.878              1.199              0.603
 Vibration    22          0.905              1.141              0.545
 Vibration    23          0.935              1.078              0.488
 Vibration    24          0.960              1.029              0.447

                           ! Non-Optimized Parameters !
 Normal termination of Gaussian 16 at Sun Feb 11 01:35:00 2024.
