 Gaussian 16, Revision A.03,
 Gaussian 16:  ES64L-G16RevA.03 25-Dec-2016

 ----------------------------------------------------------------------
 #P UB3LYP/genecp nosym opt freq SCRF=(PCM,Solvent=n,n-DiMethylFormamid
 e)
 ----------------------------------------------------------------------

 -------
 Radical
 -------
 Symbolic Z-matrix:
 Charge = -1 Multiplicity = 2

 SCF Done:  E(UB3LYP) =  -796.898880141     A.U. after   22 cycles
 SCF Done:  E(UB3LYP) =  -796.899132397     A.U. after   16 cycles
 SCF Done:  E(UB3LYP) =  -796.899159812     A.U. after   15 cycles
 SCF Done:  E(UB3LYP) =  -796.899167508     A.U. after   14 cycles
 SCF Done:  E(UB3LYP) =  -796.899177680     A.U. after   13 cycles
 SCF Done:  E(UB3LYP) =  -796.899177936     A.U. after   10 cycles
 SCF Done:  E(UB3LYP) =  -796.899178105     A.U. after   10 cycles
 Optimization completed.
    -- Stationary point found.
 Normal termination of Gaussian 16 at Sat Feb 10 10:26:24 2024.

 ------------------------------------------------------------------
 #P Geom=AllCheck Guess=TCheck SCRF=Check GenChk UB3LYP/GenECP Freq
 ------------------------------------------------------------------

 Structure from the checkpoint file:  "006-rad.chk"
 -------
 Radical
 -------
 Charge = -1 Multiplicity = 2

                          Input orientation:
 ---------------------------------------------------------------------
 Center     Atomic      Atomic             Coordinates (Angstroms)
 Number     Number       Type             X           Y           Z
 ---------------------------------------------------------------------
      1          6           0       -1.305157    1.968277    0.592271
      2          6           0       -2.605847    1.375304    0.257253
      3          6           0       -2.679132    0.133083   -0.315335
      4          6           0       -1.520486   -0.669807   -0.630833
      5          6           0       -0.236532   -0.093362   -0.300998
      6          6           0       -0.153331    1.144512    0.274147
      7          8           0       -1.207687    3.109399    1.121662
      8          8           0       -1.615606   -1.817602   -1.165807
      9          1           0        0.647120   -0.679232   -0.524560
     10         53           0        1.756628    1.947300    0.751435
     11          6           0       -3.836050    2.221033    0.547335
     12          6           0       -4.073813    3.234712   -0.591680
     13          6           0       -5.108120    1.407872    0.822092
     14          1           0       -3.640884   -0.305728   -0.559515
     15          1           0       -3.603327    2.799918    1.446119
     16          1           0       -4.322940    2.716066   -1.523154
     17          1           0       -3.185462    3.845213   -0.766502
     18          1           0       -4.903833    3.904076   -0.344172
     19          1           0       -5.450781    0.868789   -0.066284
     20          1           0       -5.917442    2.077464    1.127448
     21          1           0       -4.954200    0.677915    1.621639
 ---------------------------------------------------------------------

 SCF Done:  E(UB3LYP) =  -796.899178105     A.U. after    1 cycles

 Alpha  occ. eigenvalues --  -19.08298 -19.08075 -10.23011 -10.22447 -10.20916
 Alpha  occ. eigenvalues --  -10.17698 -10.17248 -10.17179 -10.16173 -10.15404
 Alpha  occ. eigenvalues --  -10.15368  -6.83590  -4.85968  -4.84919  -4.84858
 Alpha  occ. eigenvalues --   -1.90787  -1.90443  -1.90398  -1.89492  -1.89491
 Alpha  occ. eigenvalues --   -1.00647  -0.99835  -0.83756  -0.79954  -0.74353
 Alpha  occ. eigenvalues --   -0.69833  -0.68237  -0.67009  -0.61867  -0.56349
 Alpha  occ. eigenvalues --   -0.54746  -0.48837  -0.47250  -0.45055  -0.43562
 Alpha  occ. eigenvalues --   -0.42014  -0.41630  -0.40198  -0.39467  -0.38935
 Alpha  occ. eigenvalues --   -0.37847  -0.37655  -0.35751  -0.34014  -0.33472
 Alpha  occ. eigenvalues --   -0.32478  -0.30311  -0.27095  -0.26266  -0.24789
 Alpha  occ. eigenvalues --   -0.24094  -0.23918  -0.16725
 Alpha virt. eigenvalues --   -0.02788  -0.01522  -0.00249   0.01042   0.01537
 Alpha virt. eigenvalues --    0.01813   0.02605   0.03329   0.03982   0.04767
 Alpha virt. eigenvalues --    0.05164   0.05735   0.06172   0.07285   0.07743

  Beta  occ. eigenvalues --  -19.07609 -19.07362 -10.22858 -10.22324 -10.20793
  Beta  occ. eigenvalues --  -10.17603 -10.17255 -10.17028 -10.16097 -10.15402
  Beta  occ. eigenvalues --  -10.15360  -6.83590  -4.85972  -4.84914  -4.84858
  Beta  occ. eigenvalues --   -1.90790  -1.90442  -1.90402  -1.89489  -1.89488
  Beta  occ. eigenvalues --   -0.99440  -0.98578  -0.83222  -0.79750  -0.74152
  Beta  occ. eigenvalues --   -0.69295  -0.68166  -0.66449  -0.61569  -0.55941
  Beta  occ. eigenvalues --   -0.54532  -0.48604  -0.46821  -0.44905  -0.43448
  Beta  occ. eigenvalues --   -0.41098  -0.40953  -0.39806  -0.38705  -0.38541
  Beta  occ. eigenvalues --   -0.37574  -0.35799  -0.34847  -0.33888  -0.33321
  Beta  occ. eigenvalues --   -0.32349  -0.28849  -0.26178  -0.24755  -0.24127
  Beta  occ. eigenvalues --   -0.23501  -0.23371
  Beta virt. eigenvalues --   -0.09494  -0.02654  -0.00308  -0.00067   0.01078
  Beta virt. eigenvalues --    0.01666   0.02000   0.03350   0.03969   0.04400
  Beta virt. eigenvalues --    0.05017   0.05202   0.05821   0.06233   0.07352

 Mulliken charges and spin densities:
               1          2
     1  C   -2.340285   0.019749
     2  C    1.452918   0.092658
     3  C   -0.385773   0.023915
     4  C   -0.394983   0.131346
     5  C   -0.014201   0.117537
     6  C    1.365449   0.114461
     7  O   -0.389643   0.255748
     8  O   -0.493556   0.248928
     9  H    0.169901  -0.008744
    10  I   -0.161549  -0.001960
    11  C    0.193230   0.001864
    12  C   -0.694418   0.010675
    13  C   -0.568896  -0.000854
    14  H    0.178962  -0.005072
    15  H    0.195132   0.001202
    16  H    0.147694  -0.000892
    17  H    0.163404  -0.001533
    18  H    0.138143   0.001556
    19  H    0.139479  -0.000099
    20  H    0.164254  -0.000406
    21  H    0.134737  -0.000078
 Sum of Mulliken charges =  -1.00000   1.00000

 Dipole moment (field-independent basis, Debye):
    X=              3.9255    Y=             -3.1154    Z=             -0.0299  Tot=              5.0116
 Quadrupole moment (field-independent basis, Debye-Ang):
   XX=           -101.0243   YY=           -130.8460   ZZ=           -104.2657
   XY=             -4.0773   XZ=             -3.2246   YZ=            -14.5274

  Exact polarizability: 267.128  18.735 281.112  16.696  59.058 173.266
 Approx polarizability: 266.729  21.569 324.738  16.582  74.292 197.176

                      1                      2                      3
                      A                      A                      A
 Frequencies --     36.7106                71.3972               121.5558
 Red. masses --      3.0657                 5.5500                 5.9540
 Frc consts  --      0.0024                 0.0167                 0.0518
 IR Inten    --      1.9734                 6.6716                 5.3405

                      4                      5                      6
                      A                      A                      A
 Frequencies --    137.7302               157.4879               198.4955
 Red. masses --      6.6333                 5.0150                 3.6216
 Frc consts  --      0.0741                 0.0733                 0.0841
 IR Inten    --     10.5086                 1.0534                 0.1430

                      7                      8                      9
                      A                      A                      A
 Frequencies --    211.0886               244.8357               265.3340
 Red. masses --      6.9834                 1.2499                 1.2131
 Frc consts  --      0.1833                 0.0441                 0.0503
 IR Inten    --      1.7882                 0.4664                 0.7768

                     10                     11                     12
                      A                      A                      A
 Frequencies --    271.5282               306.3300               364.1277
 Red. masses --      2.4739                 3.8762                 4.8541
 Frc consts  --      0.1075                 0.2143                 0.3792
 IR Inten    --      2.5709                 6.8847                 3.2589

                     13                     14                     15
                      A                      A                      A
 Frequencies --    413.8497               437.5885               475.3837
 Red. masses --      3.3334                 4.7379                 8.3602
 Frc consts  --      0.3364                 0.5345                 1.1131
 IR Inten    --     19.0841                12.6493                 2.9079

                     16                     17                     18
                      A                      A                      A
 Frequencies --    517.9115               563.5843               631.8953
 Red. masses --      4.9602                 3.5379                 5.0983
 Frc consts  --      0.7839                 0.6621                 1.1994
 IR Inten    --      0.9467                 2.7930                 3.9022

                     19                     20                     21
                      A                      A                      A
 Frequencies --    647.3855               741.6693               768.3136
 Red. masses --      3.0687                 6.2237                 7.3172
 Frc consts  --      0.7578                 2.0171                 2.5449
 IR Inten    --      0.4993               109.6797                 9.3607

                     22                     23                     24
                      A                      A                      A
 Frequencies --    815.8694               856.3537               870.8960
 Red. masses --      6.0475                 1.4293                 2.9759
 Frc consts  --      2.3717                 0.6176                 1.3298
 IR Inten    --     75.6228                16.3670                35.5510

                     25                     26                     27
                      A                      A                      A
 Frequencies --    890.7344               928.1401               946.3576
 Red. masses --      1.5489                 1.1781                 2.7384
 Frc consts  --      0.7240                 0.5979                 1.4450
 IR Inten    --     50.3236                 5.5269                 5.6832

                     28                     29                     30
                      A                      A                      A
 Frequencies --    963.9305              1046.4210              1101.5438
 Red. masses --      1.5294                 2.7492                 1.6274
 Frc consts  --      0.8372                 1.7736                 1.1635
 IR Inten    --      2.4802               154.1468                 4.9968

                     31                     32                     33
                      A                      A                      A
 Frequencies --   1120.5960              1154.8842              1199.5456
 Red. masses --      2.3405                 3.3914                 2.0928
 Frc consts  --      1.7316                 2.6650                 1.7742
 IR Inten    --     17.2655                15.8437                15.7908

                     34                     35                     36
                      A                      A                      A
 Frequencies --   1251.5314              1295.4256              1333.3488
 Red. masses --      1.6478                 1.6542                 1.3102
 Frc consts  --      1.5207                 1.6356                 1.3724
 IR Inten    --     17.1883                 7.3020                 1.4527

                     37                     38                     39
                      A                      A                      A
 Frequencies --   1348.4144              1384.5348              1406.9042
 Red. masses --      2.1613                 1.2491                 1.2835
 Frc consts  --      2.3153                 1.4107                 1.4969
 IR Inten    --     68.8427                14.7712                 0.7060

                     40                     41                     42
                      A                      A                      A
 Frequencies --   1413.8647              1475.7119              1478.5356
 Red. masses --      2.7409                 6.7003                 1.0632
 Frc consts  --      3.2282                 8.5971                 1.3695
 IR Inten    --     60.1120               109.6072                22.6102

                     43                     44                     45
                      A                      A                      A
 Frequencies --   1482.3956              1493.3601              1495.8653
 Red. masses --      1.1042                 1.8241                 1.2895
 Frc consts  --      1.4296                 2.3967                 1.7000
 IR Inten    --     50.4289               695.4393               183.2236

                     46                     47                     48
                      A                      A                      A
 Frequencies --   1502.7742              1508.6281              1625.6712
 Red. masses --      1.3832                 7.0311                 6.9809
 Frc consts  --      1.8404                 9.4284                10.8699
 IR Inten    --    244.1079                81.0280                97.0561

                     49                     50                     51
                      A                      A                      A
 Frequencies --   3013.0711              3019.5387              3036.3018
 Red. masses --      1.0356                 1.0359                 1.0827
 Frc consts  --      5.5393                 5.5647                 5.8811
 IR Inten    --     57.6682                58.9883                 4.1181

                     52                     53                     54
                      A                      A                      A
 Frequencies --   3071.8940              3080.2228              3084.9422
 Red. masses --      1.1023                 1.1001                 1.1021
 Frc consts  --      6.1286                 6.1498                 6.1795
 IR Inten    --     17.3564               128.4279                56.4160

                     55                     56                     57
                      A                      A                      A
 Frequencies --   3097.0512              3163.9403              3182.2342
 Red. masses --      1.1002                 1.0892                 1.0911
 Frc consts  --      6.2177                 6.4242                 6.5098
 IR Inten    --     42.4678                29.9417                10.8328

 - Thermochemistry -
 -------------------
 Temperature   298.150 Kelvin.  Pressure   1.00000 Atm.
 Atom     1 has atomic number  6 and mass  12.00000

 Molecular mass:   275.96065 amu.
 Principal axes and moments of inertia in atomic units:
                           1         2         3
     Eigenvalues --  1791.483565568.385357069.71767
           X            0.98469  -0.15273  -0.08401
           Y            0.11423   0.92943  -0.35088
           Z            0.13167   0.33591   0.93265
 This molecule is an asymmetric top.
 Rotational symmetry number  1.
 Warning -- assumption of classical behavior for rotation
           may cause significant error
 Rotational temperatures (Kelvin)      0.04835     0.01555     0.01225
 Rotational constants (GHZ):           1.00740     0.32410     0.25528
 Zero-point vibrational energy     411070.6 (Joules/Mol)
                                   98.24823 (Kcal/Mol)
 Warning -- explicit consideration of  17 degrees of freedom as
           vibrations may cause significant error
 Vibrational temperatures:     52.82   102.72   174.89   198.16   226.59
          (Kelvin)            285.59   303.71   352.26   381.76   390.67
                              440.74   523.90   595.44   629.59   683.97
                              745.16   810.87   909.16   931.44  1067.10
                             1105.43  1173.85  1232.10  1253.03  1281.57
                             1335.39  1361.60  1386.88  1505.57  1584.88
                             1612.29  1661.62  1725.88  1800.67  1863.83
                             1918.39  1940.07  1992.04  2024.22  2034.24
                             2123.22  2127.28  2132.84  2148.61  2152.22
                             2162.16  2170.58  2338.98  4335.14  4344.44
                             4368.56  4419.77  4431.75  4438.54  4455.97
                             4552.20  4578.53

 Zero-point correction=                           0.156569 (Hartree/Particle)
 Thermal correction to Energy=                    0.168605
 Thermal correction to Enthalpy=                  0.169550
 Thermal correction to Gibbs Free Energy=         0.115932
 Sum of electronic and zero-point Energies=           -796.742610
 Sum of electronic and thermal Energies=              -796.730573
 Sum of electronic and thermal Enthalpies=            -796.729628
 Sum of electronic and thermal Free Energies=         -796.783246

                     E (Thermal)             CV                S
                      KCal/Mol        Cal/Mol-Kelvin    Cal/Mol-Kelvin
 Total                  105.802             43.930            112.848
 Electronic               0.000              0.000              1.377
 Translational            0.889              2.981             42.744
 Rotational               0.889              2.981             32.622
 Vibrational            104.024             37.969             36.104
 Vibration     1          0.594              1.982              5.429
 Vibration     2          0.598              1.968              4.114
 Vibration     3          0.609              1.931              3.075
 Vibration     4          0.614              1.916              2.835
 Vibration     5          0.621              1.894              2.580
 Vibration     6          0.637              1.842              2.147
 Vibration     7          0.643              1.824              2.034
 Vibration     8          0.660              1.771              1.767
 Vibration     9          0.671              1.737              1.626
 Vibration    10          0.675              1.726              1.586
 Vibration    11          0.697              1.662              1.382
 Vibration    12          0.738              1.546              1.104
 Vibration    13          0.777              1.440              0.913
 Vibration    14          0.798              1.388              0.834
 Vibration    15          0.832              1.305              0.723
 Vibration    16          0.873              1.210              0.615
 Vibration    17          0.919              1.110              0.517

                           ! Non-Optimized Parameters !
 Normal termination of Gaussian 16 at Sat Feb 10 10:52:07 2024.
