 Q-Chem 5.4, Q-Chem, Inc., Pleasanton, CA (2021)
 Q-Chem 5.4.0 for Intel X86 EM64T Linux

User input:
--------------------------------------------------------------
$molecule
0 1
C                 -3.7706340000      1.7680950000     -0.3469620000
C                 -2.5439740000      0.9175430000     -0.1366030000
C                 -1.2799030000      1.4333290000     -0.4132780000
C                 -0.1210200000      0.6751780000     -0.2306320000
C                  1.2031980000      1.2799400000     -0.5438190000
O                  1.3009480000      2.4245920000     -0.9579570000
C                  2.4124650000      0.4291660000     -0.3312070000
C                  3.6745730000      0.9607140000     -0.6132440000
C                  4.8159480000      0.1903950000     -0.4241540000
C                  4.7066060000     -1.1201550000      0.0491090000
C                  3.4561780000     -1.6570070000      0.3321030000
C                  2.3024370000     -0.8896120000      0.1450410000
C                  0.9719500000     -1.4925840000      0.4574650000
O                  0.8788860000     -2.6378660000      0.8709310000
C                 -0.2308520000     -0.6410400000      0.2441980000
C                 -1.4965210000     -1.1622680000      0.5227380000
C                 -2.6547580000     -0.4097780000      0.3418120000
C                 -4.0024310000     -1.0089090000      0.6537280000
H                 -3.5022280000      2.7584040000     -0.7166830000
H                 -4.4545570000      1.3113500000     -1.0697570000
H                 -4.3331360000      1.8955980000      0.5836840000
H                 -1.1706610000      2.4471340000     -0.7806950000
H                  3.7355010000      1.9782520000     -0.9790050000
H                  5.7921220000      0.6074830000     -0.6443720000
H                  5.5979720000     -1.7195530000      0.1959480000
H                  3.3476890000     -2.6699470000      0.6996010000
H                 -1.5568930000     -2.1808070000      0.8883310000
H                 -4.5267330000     -0.4342690000      1.4242310000
H                 -4.6497920000     -1.0180990000     -0.2292340000
H                 -3.9023800000     -2.0352830000      1.0086800000
$end
$rem
MAX_SCF_CYCLES=200
BASIS  =  6-311++G(d,p)
GUI  =  2
JOB_TYPE  =  SP
METHOD  =  B3LYP
SOLVENT_METHOD = COSMO
$end
$solvent
dielectric 37.219
opticaldielectric 1.43
$end

--------------------------------------------------------------

             Standard Nuclear Orientation (Angstroms)
    I     Atom           X                Y                Z
 ----------------------------------------------------------------
    1      C       4.3335354900    -1.4804535132     0.0010181961
    2      C       3.0392675546    -0.7076310091     0.0005103745
    3      C       1.8213911025    -1.3838238021     0.0004924705
    4      C       0.6024144139    -0.7017256214     0.0000315247
    5      C      -0.6680688985    -1.4784163011    -0.0004439555
    6      O      -0.6703556044    -2.6995992508    -0.0011657738
    7      C      -1.9449726975    -0.7032624315    -0.0001191628
    8      C      -3.1595764454    -1.3958968813    -0.0000571544
    9      C      -4.3620704498    -0.6988378106     0.0002618477
   10      C      -4.3620485676     0.6988298236     0.0004240427
   11      C      -3.1595381646     1.3958481691     0.0003060610
   12      C      -1.9449506168     0.7031847592     0.0000569849
   13      C      -0.6680888678     1.4784290517    -0.0000244389
   14      O      -0.6705499295     2.6996087279     0.0001818483
   15      C       0.6024345840     0.7018257088    -0.0002578688
   16      C       1.8214448668     1.3838778208    -0.0004131787
   17      C       3.0392967725     0.7076196997    -0.0001785170
   18      C       4.3336031045     1.4804346547    -0.0006533665
   19      H       4.1482837602    -2.5552218783     0.0024577055
   20      H       4.9409880872    -1.2433256775    -0.8785106599
   21      H       4.9418282004    -1.2409898662     0.8793146339
   22      H       1.7968001995    -2.4673941989     0.0008492521
   23      H      -3.1356915970    -2.4786278651    -0.0002635254
   24      H      -5.3010046981    -1.2408493564     0.0003461739
   25      H      -5.3009660135     1.2408694820     0.0006207550
   26      H      -3.1356089338     2.4785759627     0.0003664183
   27      H       1.7969032701     2.4674470912    -0.0006599282
   28      H       4.9410508827     1.2434172092     0.8788968124
   29      H       4.9418794147     1.2408094427    -0.8789257059
   30      H       4.1483426138     2.5551999343    -0.0023436844
 ----------------------------------------------------------------

    9    -767.6107172584      1.89e-06  Convergence criterion met
 Total energy in the final basis set =     -767.6107172584
    5    -767.6254174652      2.91e-06  Convergence criterion met
 Total energy in the final basis set =     -767.6254174652

                    Orbital Energies (a.u.)
 --------------------------------------------------------------

 Alpha MOs
 -- Occupied --
-19.1302 -19.1302 -10.2820 -10.2820 -10.2067 -10.2062 -10.2031 -10.2026
-10.2026 -10.2021 -10.1957 -10.1953 -10.1948 -10.1947 -10.1901 -10.1901
-10.1699 -10.1699  -1.0659  -1.0642  -0.8930  -0.8817  -0.8211  -0.7853
 -0.7805  -0.7762  -0.7238  -0.7054  -0.6757  -0.6452  -0.6225  -0.6125
 -0.5844  -0.5480  -0.5436  -0.5061  -0.4928  -0.4743  -0.4672  -0.4588
 -0.4561  -0.4493  -0.4479  -0.4451  -0.4391  -0.4273  -0.4194  -0.4046
 -0.3945  -0.3931  -0.3842  -0.3840  -0.3679  -0.3636  -0.3568  -0.3556
 -0.2882  -0.2848  -0.2774  -0.2746  -0.2703  -0.2618

          Ground-State Mulliken Net Atomic Charges

     Atom                 Charge (a.u.)
  ----------------------------------------
      1 C                    -0.503151
      2 C                     0.400624
      3 C                    -0.075297
      4 C                    -0.010550
      5 C                    -0.578133
      6 O                    -0.300121
      7 C                     0.206332
      8 C                     0.134933
      9 C                    -0.407175
     10 C                    -0.407118
     11 C                     0.134726
     12 C                     0.207325
     13 C                    -0.576544
     14 O                    -0.300287
     15 C                    -0.008725
     16 C                    -0.074884
     17 C                     0.400396
     18 C                    -0.502137
     19 H                     0.192640
     20 H                     0.178406
     21 H                     0.178268
     22 H                     0.155105
     23 H                     0.198006
     24 H                     0.227527
     25 H                     0.227574
     26 H                     0.197975
     27 H                     0.155196
     28 H                     0.178319
     29 H                     0.178180
     30 H                     0.192588
  ----------------------------------------
  Sum of atomic charges =     0.000000

                    Cartesian Multipole Moments
 -----------------------------------------------------------------
    Charge (ESU x 10^10)
                -0.0000
    Dipole Moment (Debye)
         X       1.6790      Y      -0.0012      Z       0.0021
       Tot       1.6790
    Quadrupole Moments (Debye-Ang)
        XX     -64.0135     XY       0.0021     YY    -119.0515
        XZ      -0.0028     YZ      -0.0115     ZZ    -106.9874

 Total job time:  79.46s(wall), 456.33s(cpu)
        *  Thank you very much for using Q-Chem.  Have a nice day.  *
