 Gaussian 16, Revision A.03,
 Gaussian 16:  ES64L-G16RevA.03 25-Dec-2016

 ----------------------------------------------------------------------
 #P UB3LYP/6-311++G(d,p) nosym opt freq SCRF=(PCM,Solvent=n,n-DiMethylF
 ormamide)
 ----------------------------------------------------------------------

 -------
 Radical
 -------
 Symbolic Z-matrix:
 Charge = -1 Multiplicity = 2

 SCF Done:  E(UB3LYP) =  -5686.10834520     A.U. after   19 cycles
 SCF Done:  E(UB3LYP) =  -5686.10852401     A.U. after   13 cycles
 SCF Done:  E(UB3LYP) =  -5686.10853466     A.U. after   13 cycles
 SCF Done:  E(UB3LYP) =  -5686.10854977     A.U. after   12 cycles
 SCF Done:  E(UB3LYP) =  -5686.10856914     A.U. after   12 cycles
 SCF Done:  E(UB3LYP) =  -5686.10857118     A.U. after   11 cycles
 Optimization completed.
    -- Stationary point found.
 Normal termination of Gaussian 16 at Sat Feb 10 10:36:13 2024.

 ----------------------------------------------------------------------
 #P Geom=AllCheck Guess=TCheck SCRF=Check GenChk UB3LYP/6-311++G(d,p) F
 req
 ----------------------------------------------------------------------

 Structure from the checkpoint file:  "019-rad.chk"
 -------
 Radical
 -------
 Charge = -1 Multiplicity = 2

                          Input orientation:
 ---------------------------------------------------------------------
 Center     Atomic      Atomic             Coordinates (Angstroms)
 Number     Number       Type             X           Y           Z
 ---------------------------------------------------------------------
      1          6           0       -2.913042    0.411703    0.525506
      2          6           0       -1.940299   -0.407654   -0.344449
      3          6           0       -2.280870   -0.326701   -1.845126
      4          6           0       -0.469080   -0.144398   -0.033339
      5          6           0        0.222307    1.026338   -0.220669
      6         35           0       -0.628015    2.615779   -0.947753
      7          6           0        1.629900    1.233513    0.086859
      8          8           0        2.216038    2.331263   -0.105439
      9          6           0        2.345278    0.083736    0.639771
     10          6           0        1.661277   -1.085532    0.831733
     11         35           0        2.588476   -2.619312    1.564616
     12          6           0        0.260209   -1.296440    0.530052
     13          8           0       -0.310321   -2.400270    0.734945
     14          6           0        3.803012    0.259383    0.966985
     15          1           0       -2.884816    1.477412    0.295088
     16          1           0       -2.684508    0.286799    1.587835
     17          1           0       -3.935871    0.058140    0.360765
     18          1           0       -2.082234   -1.449994   -0.057930
     19          1           0       -2.214230    0.689250   -2.236142
     20          1           0       -1.610335   -0.961857   -2.431077
     21          1           0       -3.303168   -0.683438   -2.006280
     22          1           0        4.421846   -0.443427    0.401303
     23          1           0        4.113380    1.274266    0.727038
     24          1           0        3.995068    0.071439    2.027462
 ---------------------------------------------------------------------

 SCF Done:  E(UB3LYP) =  -5686.10857118     A.U. after    1 cycles

 Alpha  occ. eigenvalues -- -482.82318-482.82044 -62.47599 -62.47332 -56.29617
 Alpha  occ. eigenvalues --  -56.29353 -56.29270 -56.29232 -56.29000 -56.28962
 Alpha  occ. eigenvalues --  -19.08610 -19.08575 -10.23725 -10.23646 -10.22072
 Alpha  occ. eigenvalues --  -10.21844 -10.18965 -10.18845 -10.17276 -10.16081
 Alpha  occ. eigenvalues --  -10.15265 -10.15258  -8.68565  -8.68304  -6.51646
 Alpha  occ. eigenvalues --   -6.51393  -6.50487  -6.50379  -6.50220  -6.50114
 Alpha  occ. eigenvalues --   -2.62751  -2.62497  -2.62438  -2.62357  -2.62181
 Alpha  occ. eigenvalues --   -2.62100  -2.61433  -2.61432  -2.61166  -2.61165
 Alpha  occ. eigenvalues --   -1.01373  -1.01083  -0.85634  -0.82631  -0.78484
 Alpha  occ. eigenvalues --   -0.77128  -0.74431  -0.68595  -0.68041  -0.67278
 Alpha  occ. eigenvalues --   -0.60335  -0.56487  -0.54788  -0.50723  -0.46315
 Alpha  occ. eigenvalues --   -0.44090  -0.44011  -0.43396  -0.42351  -0.41392
 Alpha  occ. eigenvalues --   -0.40007  -0.39702  -0.39333  -0.38662  -0.38609
 Alpha  occ. eigenvalues --   -0.38129  -0.36152  -0.34538  -0.34245  -0.32415
 Alpha  occ. eigenvalues --   -0.31786  -0.31284  -0.28581  -0.27884  -0.27218
 Alpha  occ. eigenvalues --   -0.25563  -0.24506  -0.24107  -0.16926
 Alpha virt. eigenvalues --   -0.01906  -0.01638  -0.01089   0.00095   0.00978
 Alpha virt. eigenvalues --    0.01926   0.02124   0.02155   0.02717   0.03392
 Alpha virt. eigenvalues --    0.03847   0.04539   0.05140   0.05183   0.05660

  Beta  occ. eigenvalues -- -482.82317-482.82044 -62.47599 -62.47332 -56.29618
  Beta  occ. eigenvalues --  -56.29354 -56.29267 -56.29232 -56.28997 -56.28962
  Beta  occ. eigenvalues --  -19.07929 -19.07885 -10.23581 -10.23502 -10.21985
  Beta  occ. eigenvalues --  -10.21760 -10.18830 -10.18708 -10.17286 -10.16091
  Beta  occ. eigenvalues --  -10.15255 -10.15249  -8.68564  -8.68304  -6.51649
  Beta  occ. eigenvalues --   -6.51397  -6.50480  -6.50379  -6.50215  -6.50114
  Beta  occ. eigenvalues --   -2.62752  -2.62499  -2.62436  -2.62359  -2.62179
  Beta  occ. eigenvalues --   -2.62102  -2.61430  -2.61429  -2.61164  -2.61162
  Beta  occ. eigenvalues --   -1.00202  -0.99873  -0.85134  -0.82491  -0.78376
  Beta  occ. eigenvalues --   -0.76949  -0.74166  -0.68414  -0.68018  -0.66432
  Beta  occ. eigenvalues --   -0.60117  -0.56052  -0.54544  -0.50505  -0.46002
  Beta  occ. eigenvalues --   -0.43842  -0.43224  -0.43055  -0.41837  -0.41049
  Beta  occ. eigenvalues --   -0.39745  -0.39550  -0.38890  -0.38423  -0.37774
  Beta  occ. eigenvalues --   -0.36086  -0.35977  -0.34406  -0.34106  -0.32356
  Beta  occ. eigenvalues --   -0.31164  -0.30180  -0.28543  -0.27834  -0.24940
  Beta  occ. eigenvalues --   -0.24932  -0.23926  -0.23517
  Beta virt. eigenvalues --   -0.09821  -0.01556  -0.01004  -0.00530   0.00130
  Beta virt. eigenvalues --    0.01002   0.02169   0.02191   0.02736   0.03411
  Beta virt. eigenvalues --    0.03660   0.04567   0.04597   0.05195   0.05261

 Mulliken charges and spin densities:
               1          2
     1  C   -0.692429   0.002290
     2  C    0.255265  -0.000770
     3  C   -0.690658   0.002235
     4  C    1.095474   0.127106
     5  C    0.164658   0.055466
     6  Br  -0.118574   0.003779
     7  C   -1.271466   0.086165
     8  O   -0.389944   0.250869
     9  C    0.883087   0.109138
    10  C    0.045849   0.028593
    11  Br  -0.178661   0.002967
    12  C   -1.008975   0.080836
    13  O   -0.379067   0.248397
    14  C   -0.341714  -0.000512
    15  H    0.147891  -0.000696
    16  H    0.149348   0.000220
    17  H    0.147905   0.000455
    18  H    0.216463  -0.003208
    19  H    0.147580  -0.000692
    20  H    0.148569   0.000238
    21  H    0.147762   0.000415
    22  H    0.168835   0.004405
    23  H    0.184185  -0.002096
    24  H    0.168619   0.004402
 Sum of Mulliken charges =  -1.00000   1.00000

 Dipole moment (field-independent basis, Debye):
    X=             -4.5391    Y=             -0.0664    Z=             -1.4342  Tot=              4.7607
 Quadrupole moment (field-independent basis, Debye-Ang):
   XX=           -122.2668   YY=           -149.8079   ZZ=           -116.0195
   XY=             -7.8581   XZ=             -0.2242   YZ=              9.7216

  Exact polarizability: 276.453   7.863 332.333  28.629 -53.209 183.197
 Approx polarizability: 287.398  29.908 377.922  19.885 -56.318 199.222

                      1                      2                      3
                      A                      A                      A
 Frequencies --     47.2889                56.0201                77.1525
 Red. masses --      6.2608                 4.0104                 3.5478
 Frc consts  --      0.0082                 0.0074                 0.0124
 IR Inten    --      0.8980                 4.4432                 7.4701

                      4                      5                      6
                      A                      A                      A
 Frequencies --     81.7213               110.6570               154.5894
 Red. masses --      1.2907                 2.8259                 8.7467
 Frc consts  --      0.0051                 0.0204                 0.1232
 IR Inten    --      1.1870                 3.1978                 3.6620

                      7                      8                      9
                      A                      A                      A
 Frequencies --    161.1942               167.1329               195.7158
 Red. masses --      3.2674                 5.9109                37.0065
 Frc consts  --      0.0500                 0.0973                 0.8352
 IR Inten    --      2.2855                 1.1103                 0.0862

                     10                     11                     12
                      A                      A                      A
 Frequencies --    204.9232               212.7580               233.4577
 Red. masses --      1.2158                 1.2605                 4.1507
 Frc consts  --      0.0301                 0.0336                 0.1333
 IR Inten    --      0.7715                 0.2104                 4.2377

                     13                     14                     15
                      A                      A                      A
 Frequencies --    242.1814               260.1654               313.5803
 Red. masses --      3.7514                 2.5961                 5.9665
 Frc consts  --      0.1296                 0.1035                 0.3457
 IR Inten    --      0.0227                 1.7517                 0.7579

                     16                     17                     18
                      A                      A                      A
 Frequencies --    343.6945               364.8910               428.6475
 Red. masses --      8.7515                 4.5302                 3.1895
 Frc consts  --      0.6091                 0.3554                 0.3453
 IR Inten    --      0.0015                 3.7671                 1.6932

                     19                     20                     21
                      A                      A                      A
 Frequencies --    436.5357               449.7158               499.7492
 Red. masses --      5.2945                 6.4525                 7.1308
 Frc consts  --      0.5944                 0.7689                 1.0493
 IR Inten    --      0.0122                36.2807                14.9804

                     22                     23                     24
                      A                      A                      A
 Frequencies --    535.0735               586.2147               691.8585
 Red. masses --      3.8514                 7.2970                 7.1537
 Frc consts  --      0.6497                 1.4774                 2.0175
 IR Inten    --      5.1526                 0.5816               183.4565

                     25                     26                     27
                      A                      A                      A
 Frequencies --    708.4618               712.8127               759.1518
 Red. masses --      8.0901                 4.6613                 9.4767
 Frc consts  --      2.3924                 1.3954                 3.2178
 IR Inten    --     17.6964                32.9834                 1.7331

                     28                     29                     30
                      A                      A                      A
 Frequencies --    805.6778               871.6251               921.6579
 Red. masses --      7.1191                 3.3244                 2.9854
 Frc consts  --      2.7227                 1.4881                 1.4941
 IR Inten    --     36.7408                78.7659                19.6533

                     31                     32                     33
                      A                      A                      A
 Frequencies --    933.1852               962.8916              1023.2364
 Red. masses --      1.1838                 1.4704                 2.0671
 Frc consts  --      0.6074                 0.8032                 1.2752
 IR Inten    --      2.0164                 0.0333               203.3410

                     34                     35                     36
                      A                      A                      A
 Frequencies --   1042.2003              1056.9614              1112.9083
 Red. masses --      1.4587                 4.1413                 1.9108
 Frc consts  --      0.9335                 2.7259                 1.3944
 IR Inten    --      0.6442                23.0413                64.8435

                     37                     38                     39
                      A                      A                      A
 Frequencies --   1119.6767              1145.5135              1177.0215
 Red. masses --      2.6264                 8.2588                 3.2782
 Frc consts  --      1.9400                 6.3851                 2.6758
 IR Inten    --      5.3851                30.4412               112.1351

                     40                     41                     42
                      A                      A                      A
 Frequencies --   1204.1126              1323.8273              1375.4246
 Red. masses --      2.2482                 3.7775                 1.2579
 Frc consts  --      1.9205                 3.9005                 1.4020
 IR Inten    --     68.0707                 3.8232                 3.5061

                     43                     44                     45
                      A                      A                      A
 Frequencies --   1384.0242              1388.1701              1392.1049
 Red. masses --      1.5440                 1.2081                 1.3761
 Frc consts  --      1.7426                 1.3716                 1.5712
 IR Inten    --     55.9127                 8.2640                10.5864

                     46                     47                     48
                      A                      A                      A
 Frequencies --   1409.1857              1468.1550              1477.8094
 Red. masses --      1.2764                 1.1270                 1.0406
 Frc consts  --      1.4934                 1.4312                 1.3390
 IR Inten    --      5.5692                47.8480                 0.3332

                     49                     50                     51
                      A                      A                      A
 Frequencies --   1482.5664              1487.7970              1490.7365
 Red. masses --      1.0450                 1.1171                 1.0493
 Frc consts  --      1.3533                 1.4570                 1.3739
 IR Inten    --     14.3645                73.0166                 1.8370

                     52                     53                     54
                      A                      A                      A
 Frequencies --   1496.8021              1499.1958              1505.2995
 Red. masses --      3.4855                 3.3402                 1.4895
 Frc consts  --      4.6009                 4.4232                 1.9885
 IR Inten    --    580.1338               291.1890               257.0504

                     55                     56                     57
                      A                      A                      A
 Frequencies --   1517.0545              1600.7751              3019.4421
 Red. masses --      7.8750                10.1295                 1.0375
 Frc consts  --     10.6784                15.2932                 5.5732
 IR Inten    --      0.5836                 0.3374                64.7841

                     58                     59                     60
                      A                      A                      A
 Frequencies --   3023.6206              3027.2424              3072.0486
 Red. masses --      1.0383                 1.0394                 1.0860
 Frc consts  --      5.5926                 5.6122                 6.0385
 IR Inten    --     83.1746                36.9830                 2.9450

                     61                     62                     63
                      A                      A                      A
 Frequencies --   3072.2995              3075.4743              3077.5008
 Red. masses --      1.1001                 1.1012                 1.0992
 Frc consts  --      6.1179                 6.1367                 6.1338
 IR Inten    --     25.1608                35.4706               103.3221

                     64                     65                     66
                      A                      A                      A
 Frequencies --   3108.2751              3114.8502              3137.2835
 Red. masses --      1.0992                 1.0965                 1.0973
 Frc consts  --      6.2568                 6.2682                 6.3631
 IR Inten    --      1.1585                60.8266                11.2248

 - Thermochemistry -
 -------------------
 Temperature   298.150 Kelvin.  Pressure   1.00000 Atm.
 Atom     1 has atomic number  6 and mass  12.00000

 Molecular mass:   319.90475 amu.
 Principal axes and moments of inertia in atomic units:
                           1         2         3
     Eigenvalues --  2641.458507653.910969884.52196
           X           -0.58882   0.77030  -0.24481
           Y            0.71217   0.63768   0.29355
           Z           -0.38223   0.00150   0.92407
 This molecule is an asymmetric top.
 Rotational symmetry number  1.
 Warning -- assumption of classical behavior for rotation
           may cause significant error
 Rotational temperatures (Kelvin)      0.03279     0.01132     0.00876
 Rotational constants (GHZ):           0.68324     0.23579     0.18258
 Zero-point vibrational energy     457206.6 (Joules/Mol)
                                  109.27500 (Kcal/Mol)
 Warning -- explicit consideration of  23 degrees of freedom as
           vibrations may cause significant error
 Vibrational temperatures:     68.04    80.60   111.01   117.58   159.21
          (Kelvin)            222.42   231.92   240.47   281.59   294.84
                              306.11   335.89   348.44   374.32   451.17
                              494.50   525.00   616.73   628.08   647.04
                              719.03   769.85   843.43   995.43  1019.32
                             1025.58  1092.25  1159.19  1254.07  1326.06
                             1342.65  1385.39  1472.21  1499.49  1520.73
                             1601.23  1610.97  1648.14  1693.47  1732.45
                             1904.69  1978.93  1991.30  1997.27  2002.93
                             2027.50  2112.35  2126.24  2133.08  2140.61
                             2144.84  2153.56  2157.01  2165.79  2182.70
                             2303.16  4344.30  4350.32  4355.53  4419.99
                             4420.35  4424.92  4427.84  4472.11  4481.57
                             4513.85

 Zero-point correction=                           0.174141 (Hartree/Particle)
 Thermal correction to Energy=                    0.189441
 Thermal correction to Enthalpy=                  0.190385
 Thermal correction to Gibbs Free Energy=         0.129357
 Sum of electronic and zero-point Energies=          -5685.934430
 Sum of electronic and thermal Energies=             -5685.919130
 Sum of electronic and thermal Enthalpies=           -5685.918186
 Sum of electronic and thermal Free Energies=        -5685.979215

                     E (Thermal)             CV                S
                      KCal/Mol        Cal/Mol-Kelvin    Cal/Mol-Kelvin
 Total                  118.876             54.037            128.446
 Electronic               0.000              0.000              1.377
 Translational            0.889              2.981             43.184
 Rotational               0.889              2.981             33.657
 Vibrational            117.099             48.075             50.227
 Vibration     1          0.595              1.979              4.928
 Vibration     2          0.596              1.975              4.593
 Vibration     3          0.599              1.964              3.962
 Vibration     4          0.600              1.962              3.849
 Vibration     5          0.606              1.941              3.257
 Vibration     6          0.620              1.898              2.615
 Vibration     7          0.622              1.890              2.536
 Vibration     8          0.624              1.883              2.467
 Vibration     9          0.636              1.846              2.173
 Vibration    10          0.640              1.833              2.088
 Vibration    11          0.644              1.821              2.020
 Vibration    12          0.654              1.790              1.852
 Vibration    13          0.658              1.776              1.787
 Vibration    14          0.668              1.746              1.661
 Vibration    15          0.701              1.648              1.343
 Vibration    16          0.722              1.588              1.195
 Vibration    17          0.738              1.545              1.101
 Vibration    18          0.790              1.408              0.863
 Vibration    19          0.797              1.391              0.838
 Vibration    20          0.809              1.362              0.797
 Vibration    21          0.855              1.251              0.659
 Vibration    22          0.890              1.172              0.576
 Vibration    23          0.943              1.061              0.474

                           ! Non-Optimized Parameters !
 Normal termination of Gaussian 16 at Sat Feb 10 11:35:25 2024.
