 Gaussian 16, Revision A.03,
 Gaussian 16:  ES64L-G16RevA.03 25-Dec-2016

 ----------------------------------------------------------------
 #P UB3LYP/6-311++G(d,p) SCRF=(PCM,Solvent=n,n-DiMethylFormamide)
 ----------------------------------------------------------------

 -------
 Reduced
 -------
 Symbolic Z-matrix:
 Charge = -2 Multiplicity = 1

                         Standard orientation:
 ---------------------------------------------------------------------
 Center     Atomic      Atomic             Coordinates (Angstroms)
 Number     Number       Type             X           Y           Z
 ---------------------------------------------------------------------
      1          6           0       -1.062205   -3.910547   -0.387551
      2          6           0       -1.605935   -2.682403    0.305454
      3          8           0       -1.681026   -2.549908    1.505173
      4          8           0       -2.306202   -1.914154   -0.590241
      5          6           0       -2.490679   -0.554970   -0.295554
      6          6           0       -3.794753   -0.126722   -0.253766
      7          6           0       -4.079755    1.251439   -0.062991
      8          6           0       -3.037079    2.136314    0.078419
      9          6           0       -1.682058    1.721057    0.030860
     10          6           0       -0.660580    2.736428    0.152769
     11          8           0       -0.939084    3.975434    0.334939
     12          6           0        0.697155    2.256281    0.025373
     13          6           0        1.738767    3.215938    0.074558
     14          6           0        3.062538    2.875529   -0.073703
     15          6           0        3.400155    1.512055   -0.284265
     16          6           0        2.410495    0.562826   -0.325164
     17          8           0        2.837897   -0.742480   -0.654036
     18          6           0        2.809649   -1.710549    0.291452
     19          6           0        2.833187   -3.066433   -0.372314
     20          8           0        2.871183   -1.519245    1.481611
     21          6           0        1.015846    0.846571   -0.173999
     22          6           0       -0.006545   -0.166437   -0.239914
     23          8           0        0.270579   -1.437438   -0.364843
     24          6           0       -1.362684    0.315349   -0.163327
     25          1           0       -0.587159   -3.625444   -1.324069
     26          1           0       -0.344715   -4.399037    0.270852
     27          1           0       -1.891360   -4.601018   -0.591536
     28          1           0       -4.584807   -0.862021   -0.370156
     29          1           0       -5.112110    1.592001   -0.026063
     30          1           0       -3.202757    3.198294    0.225298
     31          1           0        1.425981    4.243335    0.228461
     32          1           0        3.844677    3.630006   -0.034325
     33          1           0        4.429302    1.194583   -0.419946
     34          1           0        2.945272   -3.845846    0.381669
     35          1           0        1.885888   -3.174069   -0.901692
     36          1           0        3.651913   -3.118829   -1.097326
 ---------------------------------------------------------------------

 SCF Done:  E(UB3LYP) =  -1145.07976208     A.U. after   18 cycles

 The electronic state is 1-A.
 Alpha  occ. eigenvalues --  -19.15515 -19.14745 -19.10661 -19.09720 -19.02577
 Alpha  occ. eigenvalues --  -19.02451 -10.29946 -10.29603 -10.21873 -10.21709
 Alpha  occ. eigenvalues --  -10.18645 -10.18053 -10.16179 -10.15950 -10.15511
 Alpha  occ. eigenvalues --  -10.15473 -10.15458 -10.15406 -10.15268 -10.15247
 Alpha  occ. eigenvalues --  -10.14881 -10.14768 -10.14435 -10.14387  -1.09942
 Alpha  occ. eigenvalues --   -1.09052  -1.01998  -1.01190  -0.94530  -0.93881
 Alpha  occ. eigenvalues --   -0.83746  -0.82986  -0.76391  -0.75696  -0.75276
 Alpha  occ. eigenvalues --   -0.71772  -0.71603  -0.71249  -0.65198  -0.62769
 Alpha  occ. eigenvalues --   -0.61887  -0.59993  -0.58783  -0.53107  -0.52740
 Alpha  occ. eigenvalues --   -0.49955  -0.49796  -0.47998  -0.47596  -0.46843
 Alpha  occ. eigenvalues --   -0.46561  -0.46218  -0.46011  -0.44869  -0.44281
 Alpha  occ. eigenvalues --   -0.43166  -0.42298  -0.40500  -0.39858  -0.39437
 Alpha  occ. eigenvalues --   -0.39117  -0.38454  -0.38169  -0.37622  -0.37170
 Alpha  occ. eigenvalues --   -0.36636  -0.36166  -0.35913  -0.34517  -0.33803
 Alpha  occ. eigenvalues --   -0.33203  -0.32880  -0.31466  -0.30781  -0.30556
 Alpha  occ. eigenvalues --   -0.29823  -0.27748  -0.27092  -0.23283  -0.23156
 Alpha  occ. eigenvalues --   -0.22462  -0.22392  -0.20749  -0.19885  -0.11351
 Alpha virt. eigenvalues --   -0.03164  -0.00587  -0.00070   0.00592   0.00722
 Alpha virt. eigenvalues --    0.00996   0.01328   0.01896   0.02319   0.02816
 Alpha virt. eigenvalues --    0.03109   0.03399   0.03909   0.04565   0.04918

  Beta  occ. eigenvalues --  -19.15515 -19.14745 -19.10661 -19.09720 -19.02577
  Beta  occ. eigenvalues --  -19.02451 -10.29946 -10.29603 -10.21873 -10.21709
  Beta  occ. eigenvalues --  -10.18645 -10.18053 -10.16179 -10.15950 -10.15511
  Beta  occ. eigenvalues --  -10.15473 -10.15458 -10.15406 -10.15268 -10.15247
  Beta  occ. eigenvalues --  -10.14881 -10.14768 -10.14435 -10.14387  -1.09942
  Beta  occ. eigenvalues --   -1.09052  -1.01998  -1.01190  -0.94530  -0.93881
  Beta  occ. eigenvalues --   -0.83746  -0.82986  -0.76391  -0.75696  -0.75276
  Beta  occ. eigenvalues --   -0.71772  -0.71603  -0.71249  -0.65198  -0.62769
  Beta  occ. eigenvalues --   -0.61887  -0.59993  -0.58783  -0.53107  -0.52740
  Beta  occ. eigenvalues --   -0.49955  -0.49796  -0.47998  -0.47596  -0.46843
  Beta  occ. eigenvalues --   -0.46561  -0.46218  -0.46011  -0.44869  -0.44281
  Beta  occ. eigenvalues --   -0.43166  -0.42298  -0.40500  -0.39858  -0.39437
  Beta  occ. eigenvalues --   -0.39117  -0.38454  -0.38169  -0.37622  -0.37170
  Beta  occ. eigenvalues --   -0.36636  -0.36166  -0.35913  -0.34517  -0.33803
  Beta  occ. eigenvalues --   -0.33203  -0.32880  -0.31466  -0.30781  -0.30556
  Beta  occ. eigenvalues --   -0.29823  -0.27748  -0.27092  -0.23283  -0.23156
  Beta  occ. eigenvalues --   -0.22462  -0.22392  -0.20749  -0.19885  -0.11351
  Beta virt. eigenvalues --   -0.03164  -0.00587  -0.00070   0.00592   0.00722
  Beta virt. eigenvalues --    0.00996   0.01328   0.01896   0.02319   0.02816
  Beta virt. eigenvalues --    0.03109   0.03399   0.03909   0.04565   0.04918

 Mulliken charges and spin densities:
               1          2
     1  C   -0.407333  -0.000000
     2  C   -0.129019   0.000000
     3  O   -0.281085  -0.000000
     4  O   -0.013727  -0.000000
     5  C   -0.239424   0.000000
     6  C   -0.102868  -0.000000
     7  C   -0.515179  -0.000000
     8  C   -0.195898  -0.000000
     9  C    0.427092   0.000000
    10  C   -0.685524  -0.000000
    11  O   -0.626909   0.000000
    12  C    0.408097  -0.000000
    13  C   -0.231090   0.000000
    14  C   -0.503205   0.000000
    15  C    0.047145   0.000000
    16  C   -0.435246   0.000000
    17  O    0.018975  -0.000000
    18  C   -0.047330   0.000000
    19  C   -0.393487  -0.000000
    20  O   -0.286021   0.000000
    21  C    0.420138  -0.000000
    22  C   -0.290517  -0.000000
    23  O   -0.501310   0.000000
    24  C    0.482559   0.000000
    25  H    0.199818   0.000000
    26  H    0.172715  -0.000000
    27  H    0.174435  -0.000000
    28  H    0.172330  -0.000000
    29  H    0.170311   0.000000
    30  H    0.151366   0.000000
    31  H    0.152240   0.000000
    32  H    0.172175  -0.000000
    33  H    0.173108   0.000000
    34  H    0.160379   0.000000
    35  H    0.213154  -0.000000
    36  H    0.169136   0.000000
 Sum of Mulliken charges =  -2.00000   0.00000

 Dipole moment (field-independent basis, Debye):
    X=              3.1088    Y=             -9.9793    Z=             -5.2379  Tot=             11.6913
 Quadrupole moment (field-independent basis, Debye-Ang):
   XX=           -170.9628   YY=           -203.8332   ZZ=           -163.7621
   XY=              7.4451   XZ=             -2.2811   YZ=              6.7804

 Normal termination of Gaussian 16 at Sun Jan 14 01:38:02 2024.
