 Q-Chem 5.4, Q-Chem, Inc., Pleasanton, CA (2021)
 Q-Chem 5.4.0 for Intel X86 EM64T Linux

User input:
--------------------------------------------------------------
$molecule
-2 1
C                  4.9615910000     -3.5701580000     -3.0941430000
O                  4.1232950000     -2.6989240000     -2.3841640000
C                  4.5938230000     -2.1192800000     -1.2278190000
C                  5.8599980000     -2.3900960000     -0.7512440000
C                  6.3281450000     -1.7856330000      0.4498560000
C                  5.5144060000     -0.9284590000      1.1393000000
C                  4.2045570000     -0.6221920000      0.6832650000
C                  3.4160970000      0.2843950000      1.4605980000
O                  3.8798330000      0.8185160000      2.5615560000
C                  2.0968740000      0.5828920000      0.9936540000
C                  1.2715040000      1.4756020000      1.7610430000
O                  1.7686020000      2.0262210000      2.9089120000
C                 -0.0026020000      1.7714100000      1.3342070000
C                 -0.9192850000      2.6622940000      2.1339700000
C                 -1.4660820000      3.7472310000      1.2117700000
O                 -2.3768340000      4.6488730000      1.9158420000
C                 -2.2458930000      3.1296900000      0.0396460000
C                 -1.8887910000      1.6703880000     -0.3159700000
O                 -2.9720950000      0.8402000000      0.2857200000
C                 -2.9933560000     -0.4506780000     -0.2289370000
C                 -2.5925120000     -1.5025200000      0.8015520000
C                 -2.6897340000     -2.9157670000      0.1885500000
N                 -1.6552010000     -3.1996920000     -0.8247380000
C                 -4.0940790000     -3.1064050000     -0.4323880000
O                 -5.1055000000     -3.1703370000      0.5867300000
C                 -4.3971490000     -1.9569870000     -1.4071220000
C                 -5.7587110000     -2.0539380000     -2.0810780000
O                 -4.3505670000     -0.7225060000     -0.6810970000
C                 -0.5188620000      1.2328490000      0.1130170000
C                  0.2173170000      0.3156480000     -0.6530540000
O                 -0.2832280000     -0.2734970000     -1.7205250000
C                  1.5814680000     -0.0040620000     -0.2109570000
C                  2.3867320000     -0.8939780000     -0.9736380000
O                  1.8851590000     -1.4162460000     -2.1274600000
C                  3.6947230000     -1.2189150000     -0.5393450000
C                 -0.3279430000      4.6844850000      0.7294310000
O                 -0.2959570000      5.1622830000     -0.3899920000
C                  0.7348590000      5.1363720000      1.7292820000
O                  1.4858610000      6.2151790000      1.1992920000
H                  4.3863900000     -3.8944340000     -3.9638660000
H                  5.2439960000     -4.4528410000     -2.5009180000
H                  5.8824760000     -3.0746400000     -3.4361460000
H                  6.5130440000     -3.0682310000     -1.2852050000
H                  7.3295860000     -2.0140490000      0.8049700000
H                  5.8324290000     -0.4481030000      2.0568710000
H                  2.7288490000      1.6233650000      2.9634200000
H                 -0.3786000000      3.0894610000      2.9835380000
H                 -1.7777260000      2.1012560000      2.5297070000
H                 -2.0900070000      4.6750860000      2.8349850000
H                 -2.1039750000      3.7563100000     -0.8425740000
H                 -3.3042560000      3.1614090000      0.3040960000
H                 -1.9781720000      1.5340320000     -1.3961300000
H                 -2.3347760000     -0.5065820000     -1.1019500000
H                 -1.5711020000     -1.2992320000      1.1309610000
H                 -3.2493450000     -1.4008780000      1.6743090000
H                 -2.5990770000     -3.6644990000      0.9820630000
H                 -1.2995540000     -2.3428460000     -1.2547180000
H                 -0.8453740000     -3.6170220000     -0.3794640000
H                 -4.1207240000     -4.0657880000     -0.9547240000
H                 -5.2408530000     -2.2595840000      0.8806390000
H                 -3.6132370000     -1.9546060000     -2.1774010000
H                 -5.8207890000     -2.9684260000     -2.6795690000
H                 -5.9090150000     -1.1934190000     -2.7376720000
H                 -6.5605100000     -2.0728380000     -1.3396350000
H                  0.9440520000     -1.0366550000     -2.1777190000
H                  0.2521400000      5.4606860000      2.6594550000
H                  1.3789170000      4.2828310000      1.9780940000
H                  1.2347540000      6.2459930000      0.2610610000
$end
$rem
MAX_SCF_CYCLES=200
SCF_Guess=core
BASIS  =  6-311++G(d,p)
GUI  =  2
JOB_TYPE  =  SP
METHOD  =  B3LYP
THRESH = 14
SCF_CONVERGENCE = 8
SOLVENT_METHOD = COSMO
$end
$solvent
dielectric 37.219
opticaldielectric 1.43
$end

--------------------------------------------------------------

             Standard Nuclear Orientation (Angstroms)
    I     Atom           X                Y                Z
 ----------------------------------------------------------------
    1      C       5.3659775205    -3.9192065723    -1.7395395804
    2      O       4.3850634880    -2.9897305958    -1.3657199488
    3      C       4.7295458859    -1.9680671575    -0.5101188613
    4      C       6.0088070168    -1.8523953871    -0.0063578389
    5      C       6.3459154895    -0.7921391592     0.8821200453
    6      C       5.3919729330     0.1207525046     1.2411101073
    7      C       4.0635785506     0.0384352327     0.7450616914
    8      C       3.1246417676     1.0323085857     1.1674705321
    9      O       3.4708987598     1.9910955894     1.9880059762
   10      C       1.7884752867     0.9374810953     0.6643270492
   11      C       0.8154753272     1.9093667266     1.0835669052
   12      O       1.1908821390     2.9053219759     1.9409080350
   13      C      -0.4768043827     1.8333940554     0.6174352205
   14      C      -1.5406069171     2.8013132210     1.0702702201
   15      C      -2.2218562430     3.3843114683    -0.1636424563
   16      O      -3.2788417407     4.3285837305     0.1959078673
   17      C      -2.8656170168     2.2748650503    -1.0110133701
   18      C      -2.2795828192     0.8582760170    -0.8282940902
   19      O      -3.2388761493     0.1454437376     0.0641278817
   20      C      -3.0480689234    -1.2311692115     0.0493204626
   21      C      -2.5190150423    -1.7670037386     1.3767007528
   22      C      -2.3818148758    -3.3032467892     1.3165006187
   23      N      -1.2887806390    -3.7714350810     0.4426010906
   24      C      -3.7229256066    -3.9166939374     0.8483165416
   25      O      -4.7399891990    -3.7630290356     1.8521242844
   26      C      -4.1718662136    -3.2560516695    -0.4651230876
   27      C      -5.4836257974    -3.7958305041    -1.0177467119
   28      O      -4.3347774536    -1.8513744656    -0.2336767578
   29      C      -0.8709899877     0.8192113607    -0.3120423344
   30      C       0.0176222747    -0.1883582912    -0.7185563134
   31      O      -0.3574766077    -1.1913499986    -1.4869572031
   32      C       1.4020964904    -0.1151405800    -0.2323027733
   33      C       2.3546790661    -1.0858295232    -0.6475524772
   34      O       1.9706699651    -2.0585184868    -1.5205116608
   35      C       3.6846909824    -1.0288071684    -0.1650054086
   36      C      -1.2280519294     4.2470272749    -0.9849406835
   37      O      -1.2391709775     4.2886046640    -2.2017272602
   38      C      -0.2746735438     5.1851950936    -0.2471312419
   39      O       0.3163196063     6.1019225897    -1.1521482262
   40      H       4.8711619764    -4.6186247381    -2.4165927674
   41      H       5.7640278787    -4.4748763480    -0.8772259624
   42      H       6.2090352643    -3.4456874440    -2.2644839577
   43      H       6.7723464320    -2.5690616184    -0.2799406969
   44      H       7.3604800887    -0.7215976713     1.2653255660
   45      H       5.6075256821     0.9417797330     1.9143621834
   46      H       2.1996711172     2.7007937842     2.1077954103
   47      H      -1.0951028914     3.5829005352     1.6925443840
   48      H      -2.3134061345     2.2963738310     1.6670197010
   49      H      -3.0245634304     4.7274417370     1.0349761216
   50      H      -2.7974075848     2.5556015027    -2.0634581379
   51      H      -3.9231490671     2.2376763008    -0.7439645044
   52      H      -2.3175583469     0.3302203800    -1.7838267433
   53      H      -2.3651659945    -1.4963941104    -0.7645001040
   54      H      -1.5501707002    -1.3053481524     1.5799972082
   55      H      -3.2071933104    -1.4595091486     2.1737724030
   56      H      -2.1991563643    -3.6927975938     2.3231620412
   57      H      -1.0570408303    -3.0833465033    -0.2773874003
   58      H      -0.4370058606    -3.8715557518     0.9836266095
   59      H      -3.5880196444    -4.9918012399     0.7072305284
   60      H      -5.0212458825    -2.8396586798     1.8025679922
   61      H      -3.3768872763    -3.4115078803    -1.2078850189
   62      H      -5.3885255123    -4.8624483429    -1.2449377750
   63      H      -5.7460624376    -3.2632055761    -1.9351548101
   64      H      -6.2929572459    -3.6686911321    -0.2953930900
   65      H       0.9842367385    -1.8709500542    -1.6756414527
   66      H      -0.8265412299     5.7448840229     0.5181199410
   67      H       0.4855403206     4.5875592523     0.2726347044
   68      H       0.0891083193     5.7541308549    -2.0306114171
 ----------------------------------------------------------------

   36   -1929.1434899316      8.13e-09  Convergence criterion met
 Total energy in the final basis set =    -1929.1434899316
   12   -1929.3861155973      4.43e-09  Convergence criterion met
 Total energy in the final basis set =    -1929.3861155973

                    Orbital Energies (a.u.)
 --------------------------------------------------------------

 Alpha MOs
 -- Occupied --
-19.1431 -19.1398 -19.1387 -19.1292 -19.1256 -19.1240 -19.1193 -19.1009
-19.0995 -19.0572 -19.0526 -14.2873 -10.2760 -10.2517 -10.2438 -10.2277
-10.2256 -10.2179 -10.2164 -10.2127 -10.2088 -10.2074 -10.2008 -10.2004
-10.1986 -10.1952 -10.1681 -10.1680 -10.1627 -10.1587 -10.1581 -10.1565
-10.1557 -10.1552 -10.1547 -10.1542 -10.1514 -10.1505 -10.1387  -1.0799
 -1.0614  -1.0600  -1.0348  -1.0266  -1.0249  -1.0222  -1.0205  -1.0004
 -0.9659  -0.9589  -0.8822  -0.8464  -0.8364  -0.8064  -0.7743  -0.7655
 -0.7581  -0.7503  -0.7448  -0.7300  -0.7166  -0.7026  -0.6900  -0.6831
 -0.6561  -0.6543  -0.6275  -0.6219  -0.6101  -0.6012  -0.5880  -0.5662
 -0.5618  -0.5585  -0.5512  -0.5333  -0.5293  -0.5171  -0.5120  -0.5070
 -0.5009  -0.4960  -0.4933  -0.4855  -0.4829  -0.4762  -0.4703  -0.4637
 -0.4610  -0.4608  -0.4595  -0.4491  -0.4464  -0.4401  -0.4380  -0.4301
 -0.4269  -0.4161  -0.4125  -0.4107  -0.4030  -0.4009  -0.3973  -0.3952
 -0.3935  -0.3901  -0.3883  -0.3866  -0.3826  -0.3791  -0.3751  -0.3731
 -0.3683  -0.3643  -0.3586  -0.3573  -0.3569  -0.3528  -0.3490  -0.3442
 -0.3407  -0.3401  -0.3316  -0.3298  -0.3276  -0.3218  -0.3180  -0.3135
 -0.3058  -0.3050  -0.2940  -0.2889  -0.2762  -0.2727  -0.2662  -0.2534
 -0.2481  -0.2408  -0.2369  -0.2269  -0.2211  -0.2194  -0.1824  -0.1289

          Ground-State Mulliken Net Atomic Charges

     Atom                 Charge (a.u.)
  ----------------------------------------
      1 C                    -0.279087
      2 O                    -0.198596
      3 C                    -0.030263
      4 C                    -0.014339
      5 C                    -0.473950
      6 C                    -0.256421
      7 C                     0.258445
      8 C                    -0.592290
      9 O                    -0.643273
     10 C                     0.231206
     11 C                    -0.280653
     12 O                    -0.504567
     13 C                     0.467739
     14 C                    -0.446626
     15 C                    -0.214910
     16 O                    -0.229264
     17 C                    -0.660232
     18 C                    -0.262527
     19 O                    -0.043250
     20 C                    -0.220022
     21 C                    -0.526379
     22 C                    -0.137281
     23 N                    -0.497042
     24 C                    -0.232976
     25 O                    -0.263349
     26 C                    -0.304969
     27 C                    -0.480293
     28 O                    -0.104696
     29 C                     0.282469
     30 C                    -0.308373
     31 O                    -0.569966
     32 C                     0.417350
     33 C                    -0.462189
     34 O                    -0.497469
     35 C                     0.166380
     36 C                    -0.134787
     37 O                    -0.300370
     38 C                    -0.408405
     39 O                    -0.332799
     40 H                     0.195685
     41 H                     0.161118
     42 H                     0.162246
     43 H                     0.188062
     44 H                     0.201381
     45 H                     0.168918
     46 H                     0.427326
     47 H                     0.219262
     48 H                     0.248237
     49 H                     0.319664
     50 H                     0.220702
     51 H                     0.217544
     52 H                     0.227870
     53 H                     0.423011
     54 H                     0.151864
     55 H                     0.189282
     56 H                     0.265702
     57 H                     0.254988
     58 H                     0.299564
     59 H                     0.245145
     60 H                     0.298075
     61 H                     0.168558
     62 H                     0.171061
     63 H                     0.161764
     64 H                     0.164909
     65 H                     0.493709
     66 H                     0.224706
     67 H                     0.322724
     68 H                     0.294947
  ----------------------------------------
  Sum of atomic charges =    -2.000000

                    Cartesian Multipole Moments
 -----------------------------------------------------------------
    Charge (ESU x 10^10)
                -9.6064
    Dipole Moment (Debye)
         X      -6.9129      Y      -6.0358      Z       0.3471
       Tot       9.1836
    Quadrupole Moments (Debye-Ang)
        XX    -325.0455     XY     -32.9055     YY    -310.6770
        XZ     -17.2786     YZ       6.1629     ZZ    -264.3153

 Total job time:  3547.30s(wall), 27778.62s(cpu)
        *  Thank you very much for using Q-Chem.  Have a nice day.  *
