 Q-Chem 5.4, Q-Chem, Inc., Pleasanton, CA (2021)
 Q-Chem 5.4.0 for Intel X86 EM64T Linux

User input:
--------------------------------------------------------------
$molecule
-1 2
C                  6.8815660000     -1.6257410000     -0.2432460000
C                  7.4607990000     -0.6700820000     -1.0570140000
C                  6.6341060000      0.3453480000     -1.6264570000
C                  5.2803890000      0.3407000000     -1.3463640000
C                  4.6776120000     -0.6294540000     -0.5173020000
C                  5.5011590000     -1.6407810000      0.0501480000
C                  4.9615120000     -2.6856430000      0.9207930000
C                  3.5211320000     -2.6244500000      1.1708280000
C                  2.6975860000     -1.6131150000      0.6033990000
C                  3.2372420000     -0.5682570000     -0.2672650000
C                  2.9183500000     -3.5946110000      1.9998700000
C                  1.5646310000     -3.5992550000      2.2799800000
C                  0.7379540000     -2.5837970000      1.7105920000
C                  1.3171920000     -1.6281310000      0.8968230000
O                  5.6900270000     -3.5802300000      1.4227240000
O                  2.5087200000      0.3263300000     -0.7691840000
C                  0.9725060000     -4.6633970000      3.1745640000
C                 -0.7464790000     -2.5512260000      1.9910700000
C                  8.9452530000     -0.7025080000     -1.3373770000
C                  7.2262740000      1.4094730000     -2.5210280000
H                  7.4854090000     -2.4091780000      0.2030580000
H                  4.6280950000      1.1000240000     -1.7653240000
H                  3.5706300000     -4.3539620000      2.4188040000
H                  0.7133430000     -0.8446890000      0.4505370000
H                  1.7476090000     -5.3521350000      3.5180080000
H                  0.2055260000     -5.2540240000      2.6580580000
H                  0.4907420000     -4.2330950000      4.0614570000
H                 -0.9598810000     -2.4492000000      3.0624760000
H                 -1.2476190000     -3.4689670000      1.6587360000
H                 -1.2167600000     -1.7102560000      1.4765770000
H                  9.4155340000     -1.5435660000     -0.8230400000
H                  9.4462850000      0.2152020000     -1.0047680000
H                  9.1587590000     -0.8041860000     -2.4087980000
H                  7.7084460000      0.9791130000     -3.4076680000
H                  7.9929330000      2.0003830000     -2.0043630000
H                  6.4511180000      2.0979520000     -2.8648720000
$end

$rem
BASIS  =  6-311++G(d,p)
GUI  =  2
JOB_TYPE  =  SP
METHOD  =  B3LYP
SCF_CONVERGENCE  = 8
SOLVENT_METHOD = sm12
$end

$smx
solvent dimethylformamide
charges CM5
$end

--------------------------------------------------------------

             Standard Nuclear Orientation (Angstroms)
    I     Atom           X                Y                Z
 ----------------------------------------------------------------
    1      C       6.8815660000    -1.6257410000    -0.2432460000
    2      C       7.4607990000    -0.6700820000    -1.0570140000
    3      C       6.6341060000     0.3453480000    -1.6264570000
    4      C       5.2803890000     0.3407000000    -1.3463640000
    5      C       4.6776120000    -0.6294540000    -0.5173020000
    6      C       5.5011590000    -1.6407810000     0.0501480000
    7      C       4.9615120000    -2.6856430000     0.9207930000
    8      C       3.5211320000    -2.6244500000     1.1708280000
    9      C       2.6975860000    -1.6131150000     0.6033990000
   10      C       3.2372420000    -0.5682570000    -0.2672650000
   11      C       2.9183500000    -3.5946110000     1.9998700000
   12      C       1.5646310000    -3.5992550000     2.2799800000
   13      C       0.7379540000    -2.5837970000     1.7105920000
   14      C       1.3171920000    -1.6281310000     0.8968230000
   15      O       5.6900270000    -3.5802300000     1.4227240000
   16      O       2.5087200000     0.3263300000    -0.7691840000
   17      C       0.9725060000    -4.6633970000     3.1745640000
   18      C      -0.7464790000    -2.5512260000     1.9910700000
   19      C       8.9452530000    -0.7025080000    -1.3373770000
   20      C       7.2262740000     1.4094730000    -2.5210280000
   21      H       7.4854090000    -2.4091780000     0.2030580000
   22      H       4.6280950000     1.1000240000    -1.7653240000
   23      H       3.5706300000    -4.3539620000     2.4188040000
   24      H       0.7133430000    -0.8446890000     0.4505370000
   25      H       1.7476090000    -5.3521350000     3.5180080000
   26      H       0.2055260000    -5.2540240000     2.6580580000
   27      H       0.4907420000    -4.2330950000     4.0614570000
   28      H      -0.9598810000    -2.4492000000     3.0624760000
   29      H      -1.2476190000    -3.4689670000     1.6587360000
   30      H      -1.2167600000    -1.7102560000     1.4765770000
   31      H       9.4155340000    -1.5435660000    -0.8230400000
   32      H       9.4462850000     0.2152020000    -1.0047680000
   33      H       9.1587590000    -0.8041860000    -2.4087980000
   34      H       7.7084460000     0.9791130000    -3.4076680000
   35      H       7.9929330000     2.0003830000    -2.0043630000
   36      H       6.4511180000     2.0979520000    -2.8648720000
 ----------------------------------------------------------------

   15    -846.3167838649      4.25e-09  Convergence criterion met
 Total energy in the final basis set =     -846.4112548495

                    Orbital Energies (a.u.)
 --------------------------------------------------------------

 Alpha MOs
 -- Occupied --
-19.0730 -19.0729 -10.2217 -10.2216 -10.1843 -10.1842 -10.1838 -10.1838
-10.1727 -10.1726 -10.1722 -10.1722 -10.1706 -10.1706 -10.1706 -10.1706
-10.1703 -10.1703 -10.1703 -10.1703  -0.9989  -0.9968  -0.8670  -0.8616
 -0.8076  -0.7752  -0.7694  -0.7694  -0.7139  -0.7080  -0.7043  -0.6712
 -0.6441  -0.6140  -0.5924  -0.5897  -0.5584  -0.5113  -0.5111  -0.4860
 -0.4612  -0.4506  -0.4474  -0.4401  -0.4368  -0.4286  -0.4229  -0.4155
 -0.4147  -0.4065  -0.4064  -0.4019  -0.4016  -0.3887  -0.3882  -0.3806
 -0.3766  -0.3766  -0.3628  -0.3521  -0.3424  -0.3411  -0.3315  -0.3247
 -0.2588  -0.2572  -0.2534  -0.2429  -0.2392  -0.2337  -0.1397

 Beta MOs
 -- Occupied --
-19.0672 -19.0671 -10.2201 -10.2201 -10.1838 -10.1838 -10.1834 -10.1834
-10.1719 -10.1718 -10.1714 -10.1714 -10.1707 -10.1707 -10.1707 -10.1707
-10.1703 -10.1703 -10.1703 -10.1703  -0.9889  -0.9865  -0.8648  -0.8605
 -0.8041  -0.7741  -0.7683  -0.7678  -0.7105  -0.7063  -0.7036  -0.6701
 -0.6385  -0.6134  -0.5920  -0.5873  -0.5556  -0.5101  -0.5089  -0.4845
 -0.4606  -0.4481  -0.4461  -0.4377  -0.4358  -0.4282  -0.4221  -0.4145
 -0.4047  -0.4027  -0.4012  -0.4011  -0.4003  -0.3885  -0.3881  -0.3801
 -0.3752  -0.3619  -0.3532  -0.3493  -0.3421  -0.3399  -0.3300  -0.3118
 -0.2536  -0.2435  -0.2389  -0.2376  -0.2344  -0.2283

          Ground-State Mulliken Net Atomic Charges

     Atom                 Charge (a.u.)    Spin (a.u.)
  --------------------------------------------------------
      1 C                    -0.932796       0.024963
      2 C                     0.896647       0.035470
      3 C                     0.900323       0.035446
      4 C                    -0.933278       0.025098
      5 C                    -1.273859       0.045694
      6 C                    -1.277402       0.045690
      7 C                    -1.541336       0.072251
      8 C                    -1.273859       0.045678
      9 C                    -1.277415       0.045679
     10 C                    -1.541299       0.072248
     11 C                    -0.933715       0.025095
     12 C                     0.900731       0.035442
     13 C                     0.897042       0.035469
     14 C                    -0.933237       0.024956
     15 O                    -0.313651       0.218694
     16 O                    -0.313649       0.218692
     17 C                     1.146408      -0.003817
     18 C                     1.147996      -0.003772
     19 C                     1.148036      -0.003772
     20 C                     1.146514      -0.003817
     21 H                     0.031199      -0.001928
     22 H                     0.031441      -0.001941
     23 H                     0.031431      -0.001941
     24 H                     0.031190      -0.001928
     25 H                     0.308129       0.000156
     26 H                     0.250470       0.001971
     27 H                     0.250471       0.001957
     28 H                     0.250362       0.001966
     29 H                     0.250721       0.001972
     30 H                     0.308118       0.000154
     31 H                     0.308102       0.000154
     32 H                     0.250739       0.001973
     33 H                     0.250356       0.001965
     34 H                     0.250465       0.001957
     35 H                     0.250486       0.001972
     36 H                     0.308119       0.000156
  --------------------------------------------------------
  Sum of atomic charges =    -1.000000

                    Cartesian Multipole Moments
 -----------------------------------------------------------------
    Charge (ESU x 10^10)
                -4.8032
    Dipole Moment (Debye)
         X     -19.6901      Y       7.8147      Z      -1.5695
       Tot      21.2422
    Quadrupole Moments (Debye-Ang)
        XX    -208.7666     XY      47.5952     YY    -151.1774
        XZ     -17.2488     YZ       8.7423     ZZ    -128.3970

 Total job time:  1185.65s(wall), 9010.54s(cpu)
        *  Thank you very much for using Q-Chem.  Have a nice day.  *
