 Gaussian 16, Revision A.03,
 Gaussian 16:  ES64L-G16RevA.03 25-Dec-2016

 --------------------------------------
 #P UB3LYP/6-311++G(d,p) nosym opt freq
 --------------------------------------

 --------
 Oxidized
 --------
 Symbolic Z-matrix:
 Charge =  0 Multiplicity = 1

 SCF Done:  E(UB3LYP) =  -990.111082614     A.U. after   16 cycles
 SCF Done:  E(UB3LYP) =  -990.142259100     A.U. after   14 cycles
 SCF Done:  E(UB3LYP) =  -990.158240446     A.U. after   15 cycles
 SCF Done:  E(UB3LYP) =  -990.159823407     A.U. after   13 cycles
 SCF Done:  E(UB3LYP) =  -990.160271220     A.U. after   13 cycles
 SCF Done:  E(UB3LYP) =  -990.160372949     A.U. after   13 cycles
 SCF Done:  E(UB3LYP) =  -990.160363208     A.U. after   13 cycles
 SCF Done:  E(UB3LYP) =  -990.160522220     A.U. after   12 cycles
 SCF Done:  E(UB3LYP) =  -990.160528232     A.U. after   11 cycles
 SCF Done:  E(UB3LYP) =  -990.160537044     A.U. after   11 cycles
 SCF Done:  E(UB3LYP) =  -990.160537587     A.U. after   10 cycles
 SCF Done:  E(UB3LYP) =  -990.160537693     A.U. after   10 cycles
 Optimization completed.
    -- Stationary point found.
 Normal termination of Gaussian 16 at Thu Dec 28 20:30:43 2023.

 ----------------------------------------------------------------------
 #P Geom=AllCheck Guess=TCheck SCRF=Check GenChk UB3LYP/6-311++G(d,p) F
 req
 ----------------------------------------------------------------------

 Structure from the checkpoint file:  "312.chk"
 --------
 Oxidized
 --------
 Charge =  0 Multiplicity = 1

                          Input orientation:
 ---------------------------------------------------------------------
 Center     Atomic      Atomic             Coordinates (Angstroms)
 Number     Number       Type             X           Y           Z
 ---------------------------------------------------------------------
      1          6           0        3.741569    0.028832   -0.236567
      2          6           0        2.802141    0.129678    0.980863
      3          6           0        1.353520    0.302275    0.600497
      4          6           0        0.580273   -0.945433    0.343597
      5          8           0        1.140357   -2.026364    0.465119
      6          6           0       -0.846119   -0.824306   -0.051686
      7          6           0       -1.642873   -1.944480   -0.303458
      8          8           0       -1.178198   -3.206864   -0.207831
      9          6           0       -2.997156   -1.764945   -0.675892
     10          8           0       -3.718931   -2.896944   -0.907769
     11          6           0       -3.551980   -0.508572   -0.796190
     12          8           0       -4.861455   -0.413222   -1.158048
     13          6           0       -2.766921    0.627069   -0.546777
     14          6           0       -1.423834    0.472590   -0.177752
     15          6           0       -0.645466    1.680091    0.071931
     16          6           0        0.776724    1.520329    0.459842
     17          8           0        1.400901    2.703252    0.650122
     18          8           0       -1.138003    2.812537   -0.032605
     19          8           0       -3.390173    1.812501   -0.686761
     20          1           0        3.473038   -0.833003   -0.849911
     21          1           0        3.689439    0.922642   -0.864829
     22          1           0        4.777237   -0.097117    0.089608
     23          1           0        2.887922   -0.785585    1.568857
     24          1           0        3.127619    0.947500    1.637310
     25          1           0       -1.900942   -3.813040   -0.423599
     26          1           0        2.313029    2.547778    0.922045
     27          1           0       -2.712513    2.510132   -0.477771
     28          1           0       -4.623503   -2.660132   -1.152352
     29          1           0       -5.101533    0.523658   -1.199120
 ---------------------------------------------------------------------

 SCF Done:  E(UB3LYP) =  -990.160537693     A.U. after    1 cycles

 Alpha  occ. eigenvalues --  -19.19767 -19.19328 -19.18249 -19.17398 -19.17296
 Alpha  occ. eigenvalues --  -19.13964 -19.11222 -10.28910 -10.27225 -10.27177
 Alpha  occ. eigenvalues --  -10.27159 -10.27010 -10.26817 -10.26768 -10.21093
 Alpha  occ. eigenvalues --  -10.20812 -10.20545 -10.19352 -10.17401  -1.12530
 Alpha  occ. eigenvalues --   -1.10839  -1.10226  -1.08867  -1.08053  -1.05792
 Alpha  occ. eigenvalues --   -1.04686  -0.89077  -0.84331  -0.80036  -0.77466
 Alpha  occ. eigenvalues --   -0.76042  -0.70871  -0.68410  -0.67907  -0.64505
 Alpha  occ. eigenvalues --   -0.61763  -0.61320  -0.58693  -0.57752  -0.55425
 Alpha  occ. eigenvalues --   -0.54271  -0.51772  -0.50551  -0.49820  -0.49100
 Alpha  occ. eigenvalues --   -0.47122  -0.46572  -0.45089  -0.44583  -0.43958
 Alpha  occ. eigenvalues --   -0.43592  -0.43112  -0.41906  -0.41620  -0.41332
 Alpha  occ. eigenvalues --   -0.41129  -0.39737  -0.39480  -0.39301  -0.38957
 Alpha  occ. eigenvalues --   -0.38291  -0.37107  -0.36033  -0.32725  -0.29322
 Alpha  occ. eigenvalues --   -0.26960  -0.26244  -0.25015  -0.23506
 Alpha virt. eigenvalues --   -0.11746  -0.03721  -0.03166  -0.02293  -0.01604
 Alpha virt. eigenvalues --   -0.00117   0.01012   0.01326   0.01846   0.02908
 Alpha virt. eigenvalues --    0.03802   0.03919   0.04251   0.04704   0.05322

  Beta  occ. eigenvalues --  -19.19767 -19.19328 -19.18249 -19.17398 -19.17296
  Beta  occ. eigenvalues --  -19.13964 -19.11222 -10.28910 -10.27225 -10.27177
  Beta  occ. eigenvalues --  -10.27159 -10.27010 -10.26817 -10.26768 -10.21093
  Beta  occ. eigenvalues --  -10.20812 -10.20545 -10.19352 -10.17401  -1.12530
  Beta  occ. eigenvalues --   -1.10839  -1.10226  -1.08867  -1.08053  -1.05792
  Beta  occ. eigenvalues --   -1.04686  -0.89077  -0.84331  -0.80036  -0.77466
  Beta  occ. eigenvalues --   -0.76042  -0.70871  -0.68410  -0.67907  -0.64505
  Beta  occ. eigenvalues --   -0.61763  -0.61320  -0.58693  -0.57752  -0.55425
  Beta  occ. eigenvalues --   -0.54271  -0.51772  -0.50551  -0.49820  -0.49100
  Beta  occ. eigenvalues --   -0.47122  -0.46572  -0.45089  -0.44583  -0.43958
  Beta  occ. eigenvalues --   -0.43592  -0.43112  -0.41906  -0.41620  -0.41332
  Beta  occ. eigenvalues --   -0.41129  -0.39737  -0.39480  -0.39301  -0.38957
  Beta  occ. eigenvalues --   -0.38291  -0.37107  -0.36033  -0.32725  -0.29322
  Beta  occ. eigenvalues --   -0.26960  -0.26244  -0.25015  -0.23506
  Beta virt. eigenvalues --   -0.11746  -0.03721  -0.03166  -0.02293  -0.01604
  Beta virt. eigenvalues --   -0.00117   0.01012   0.01326   0.01846   0.02908
  Beta virt. eigenvalues --    0.03802   0.03919   0.04251   0.04704   0.05322

 Mulliken charges and spin densities:
               1          2
     1  C   -0.582384  -0.000000
     2  C   -0.106323   0.000000
     3  C    1.359308  -0.000000
     4  C   -0.483992  -0.000000
     5  O   -0.230832   0.000000
     6  C    0.599609   0.000000
     7  C   -0.240572   0.000000
     8  O   -0.186977   0.000000
     9  C   -0.220804  -0.000000
    10  O   -0.293253  -0.000000
    11  C   -0.243584  -0.000000
    12  O   -0.300452   0.000000
    13  C    0.042474   0.000000
    14  C    0.877548  -0.000000
    15  C   -0.643580  -0.000000
    16  C   -0.807069  -0.000000
    17  O   -0.177465   0.000000
    18  O   -0.298965   0.000000
    19  O   -0.393635  -0.000000
    20  H    0.183471  -0.000000
    21  H    0.143783  -0.000000
    22  H    0.144462   0.000000
    23  H    0.225419  -0.000000
    24  H    0.103419   0.000000
    25  H    0.288010   0.000000
    26  H    0.268757  -0.000000
    27  H    0.363792   0.000000
    28  H    0.302903   0.000000
    29  H    0.306930   0.000000
 Sum of Mulliken charges =  -0.00000   0.00000

 Dipole moment (field-independent basis, Debye):
    X=             -1.2131    Y=             -0.1263    Z=             -0.4403  Tot=              1.2967
 Quadrupole moment (field-independent basis, Debye-Ang):
   XX=            -86.2564   YY=           -120.6409   ZZ=           -107.9808
   XY=             13.0966   XZ=              6.3458   YZ=              3.5037

  Exact polarizability: 234.790   7.899 207.059  33.999   6.253  98.977
 Approx polarizability: 351.873 -15.202 404.510  56.745   3.712 156.285

                      1                      2                      3
                      A                      A                      A
 Frequencies --     40.5135                52.5073                65.6433
 Red. masses --      5.1321                 3.7478                 4.9905
 Frc consts  --      0.0050                 0.0061                 0.0127
 IR Inten    --      4.2171                 0.6559                 0.5121

                      4                      5                      6
                      A                      A                      A
 Frequencies --     95.4836               121.6660               154.7828
 Red. masses --      7.4012                11.0371                 6.2728
 Frc consts  --      0.0398                 0.0963                 0.0885
 IR Inten    --      0.0916                 0.3686                 0.0593

                      7                      8                      9
                      A                      A                      A
 Frequencies --    167.4364               185.7519               197.3103
 Red. masses --      8.9487                 5.2413                 1.9985
 Frc consts  --      0.1478                 0.1066                 0.0458
 IR Inten    --      1.1376                 4.5887                 1.6182

                     10                     11                     12
                      A                      A                      A
 Frequencies --    226.6123               284.3411               307.1239
 Red. masses --      1.6657                 5.0142                 4.1459
 Frc consts  --      0.0504                 0.2389                 0.2304
 IR Inten    --      1.1779                 5.6688                17.0603

                     13                     14                     15
                      A                      A                      A
 Frequencies --    315.0462               327.0814               341.3535
 Red. masses --      6.4502                 3.6244                 1.6570
 Frc consts  --      0.3772                 0.2285                 0.1138
 IR Inten    --      5.3193                28.1697               156.9745

                     16                     17                     18
                      A                      A                      A
 Frequencies --    347.7210               353.7216               375.9152
 Red. masses --      3.4100                 3.3676                 5.4578
 Frc consts  --      0.2429                 0.2483                 0.4544
 IR Inten    --     30.8332                18.0310                17.5038

                     19                     20                     21
                      A                      A                      A
 Frequencies --    382.1153               387.7982               405.6469
 Red. masses --      5.4622                 3.2446                 5.6461
 Frc consts  --      0.4699                 0.2875                 0.5474
 IR Inten    --     12.0685                32.0847                 3.5404

                     22                     23                     24
                      A                      A                      A
 Frequencies --    415.6203               426.6543               447.2895
 Red. masses --      1.1754                 2.1016                 3.7566
 Frc consts  --      0.1196                 0.2254                 0.4428
 IR Inten    --     10.2651                58.4267                48.5596

                     25                     26                     27
                      A                      A                      A
 Frequencies --    465.2603               470.8501               521.3943
 Red. masses --      1.1258                10.3128                 7.3618
 Frc consts  --      0.1436                 1.3471                 1.1791
 IR Inten    --     33.5666                 3.4423                 8.7537

                     28                     29                     30
                      A                      A                      A
 Frequencies --    534.1916               548.5203               561.0217
 Red. masses --      9.4913                 7.0614                10.0668
 Frc consts  --      1.5958                 1.2518                 1.8668
 IR Inten    --      3.1970                 2.8121                 0.1207

                     31                     32                     33
                      A                      A                      A
 Frequencies --    615.2539               656.9457               667.5722
 Red. masses --      7.2115                10.6896                10.3666
 Frc consts  --      1.6084                 2.7181                 2.7220
 IR Inten    --      6.6357                 0.1476                 0.5829

                     34                     35                     36
                      A                      A                      A
 Frequencies --    720.5377               752.9180               765.5418
 Red. masses --      2.7379                 7.6612                 2.4235
 Frc consts  --      0.8375                 2.5588                 0.8368
 IR Inten    --      2.8505                10.5451                68.0974

                     37                     38                     39
                      A                      A                      A
 Frequencies --    773.8923               782.0204               820.6791
 Red. masses --      7.4632                 6.0986                 1.1119
 Frc consts  --      2.6335                 2.1974                 0.4412
 IR Inten    --      1.9698                47.8301                91.9064

                     40                     41                     42
                      A                      A                      A
 Frequencies --    830.7517               922.3184               967.0339
 Red. masses --      2.4086                 2.9989                 4.3811
 Frc consts  --      0.9794                 1.5030                 2.4139
 IR Inten    --     12.1760                 0.6109                20.7049

                     43                     44                     45
                      A                      A                      A
 Frequencies --   1006.7961              1024.8211              1079.0208
 Red. masses --      3.4452                 3.5520                 1.8545
 Frc consts  --      2.0575                 2.1979                 1.2722
 IR Inten    --     80.3724               121.3893                 6.9651

                     46                     47                     48
                      A                      A                      A
 Frequencies --   1112.1272              1137.2162              1178.9294
 Red. masses --      2.1706                 3.3748                 3.2842
 Frc consts  --      1.5818                 2.5715                 2.6894
 IR Inten    --     64.9768                63.1791               184.0442

                     49                     50                     51
                      A                      A                      A
 Frequencies --   1213.3911              1243.0463              1266.0606
 Red. masses --      1.9515                 1.8933                 3.3246
 Frc consts  --      1.6928                 1.7236                 3.1397
 IR Inten    --      9.7781               293.7142                67.2985

                     52                     53                     54
                      A                      A                      A
 Frequencies --   1293.1140              1299.0831              1325.8401
 Red. masses --      1.4583                 1.6391                 2.4504
 Frc consts  --      1.4367                 1.6298                 2.5379
 IR Inten    --    246.7547               356.0714               285.5004

                     55                     56                     57
                      A                      A                      A
 Frequencies --   1347.2163              1355.3784              1359.9730
 Red. masses --      1.7599                 3.0347                 1.9874
 Frc consts  --      1.8819                 3.2847                 2.1657
 IR Inten    --     23.5406               114.6010                13.8391

                     58                     59                     60
                      A                      A                      A
 Frequencies --   1372.1858              1405.3630              1420.8465
 Red. masses --      2.5902                 1.4467                 2.5918
 Frc consts  --      2.8734                 1.6835                 3.0828
 IR Inten    --    329.3900                 9.1648                 6.1147

                     61                     62                     63
                      A                      A                      A
 Frequencies --   1478.6111              1490.9297              1501.0914
 Red. masses --      4.4340                 1.0826                 1.1135
 Frc consts  --      5.7115                 1.4179                 1.4783
 IR Inten    --    443.9367                12.4419                21.9308

                     64                     65                     66
                      A                      A                      A
 Frequencies --   1506.8281              1508.6426              1513.8478
 Red. masses --      3.7742                 1.3352                 2.7172
 Frc consts  --      5.0489                 1.7904                 3.6689
 IR Inten    --     51.8070                28.7349               129.9909

                     67                     68                     69
                      A                      A                      A
 Frequencies --   1626.4282              1650.5301              1658.5349
 Red. masses --      5.7950                 7.6469                 6.1710
 Frc consts  --      9.0317                12.2740                10.0013
 IR Inten    --     76.7288               367.8931                38.6051

                     70                     71                     72
                      A                      A                      A
 Frequencies --   1684.9013              1700.9457              2995.3854
 Red. masses --      9.8376                10.7699                 1.0728
 Frc consts  --     16.4547                18.3587                 5.6709
 IR Inten    --    147.9629               116.2733                41.2520

                     73                     74                     75
                      A                      A                      A
 Frequencies --   3028.6393              3081.6486              3097.6663
 Red. masses --      1.0359                 1.0948                 1.0952
 Frc consts  --      5.5986                 6.1256                 6.1919
 IR Inten    --     35.6501                 7.9696                27.9606

                     76                     77                     78
                      A                      A                      A
 Frequencies --   3111.9575              3213.8791              3761.7057
 Red. masses --      1.1017                 1.0689                 1.0655
 Frc consts  --      6.2864                 6.5049                 8.8831
 IR Inten    --     15.3609               210.1981               165.6666

                     79                     80                     81
                      A                      A                      A
 Frequencies --   3766.8510              3791.2567              3810.4955
 Red. masses --      1.0657                 1.0660                 1.0653
 Frc consts  --      8.9091                 9.0279                 9.1131
 IR Inten    --    145.5508               161.6419                68.4914

 - Thermochemistry -
 -------------------
 Temperature   298.150 Kelvin.  Pressure   1.00000 Atm.
 Atom     1 has atomic number  6 and mass  12.00000

 Molecular mass:   266.04265 amu.
 Principal axes and moments of inertia in atomic units:
                           1         2         3
     Eigenvalues --  2941.235966026.933948775.15104
           X            0.93193  -0.29907  -0.20512
           Y            0.29714   0.95396  -0.04088
           Z            0.20790  -0.02285   0.97788
 This molecule is an asymmetric top.
 Rotational symmetry number  1.
 Warning -- assumption of classical behavior for rotation
           may cause significant error
 Rotational temperatures (Kelvin)      0.02945     0.01437     0.00987
 Rotational constants (GHZ):           0.61360     0.29945     0.20566
 Zero-point vibrational energy     551616.2 (Joules/Mol)
                                  131.83943 (Kcal/Mol)
 Warning -- explicit consideration of  31 degrees of freedom as
           vibrations may cause significant error
 Vibrational temperatures:     58.29    75.55    94.45   137.38   175.05
          (Kelvin)            222.70   240.90   267.26   283.89   326.04
                              409.10   441.88   453.28   470.60   491.13
                              500.29   508.93   540.86   549.78   557.96
                              583.64   597.98   613.86   643.55   669.41
                              677.45   750.17   768.58   789.20   807.19
                              885.21   945.20   960.49  1036.69  1083.28
                             1101.44  1113.46  1125.15  1180.77  1195.27
                             1327.01  1391.35  1448.55  1474.49  1552.47
                             1600.10  1636.20  1696.22  1745.80  1788.47
                             1821.58  1860.50  1869.09  1907.59  1938.34
                             1950.09  1956.70  1974.27  2022.00  2044.28
                             2127.39  2145.12  2159.74  2167.99  2170.60
                             2178.09  2340.07  2374.74  2386.26  2424.20
                             2447.28  4309.69  4357.54  4433.80  4456.85
                             4477.41  4624.06  5412.26  5419.66  5454.77
                             5482.45

 Zero-point correction=                           0.210100 (Hartree/Particle)
 Thermal correction to Energy=                    0.227344
 Thermal correction to Enthalpy=                  0.228288
 Thermal correction to Gibbs Free Energy=         0.165827
 Sum of electronic and zero-point Energies=           -989.950438
 Sum of electronic and thermal Energies=              -989.933194
 Sum of electronic and thermal Enthalpies=            -989.932250
 Sum of electronic and thermal Free Energies=         -989.994711

                     E (Thermal)             CV                S
                      KCal/Mol        Cal/Mol-Kelvin    Cal/Mol-Kelvin
 Total                  142.660             66.502            131.460
 Electronic               0.000              0.000              0.000
 Translational            0.889              2.981             42.635
 Rotational               0.889              2.981             33.408
 Vibrational            140.883             60.541             55.417
 Vibration     1          0.594              1.981              5.234
 Vibration     2          0.596              1.977              4.721
 Vibration     3          0.597              1.971              4.280
 Vibration     4          0.603              1.952              3.544
 Vibration     5          0.609              1.931              3.074
 Vibration     6          0.620              1.897              2.613
 Vibration     7          0.624              1.883              2.464
 Vibration     8          0.632              1.859              2.270
 Vibration     9          0.637              1.844              2.158
 Vibration    10          0.650              1.800              1.906
 Vibration    11          0.683              1.703              1.507
 Vibration    12          0.697              1.660              1.378
 Vibration    13          0.702              1.645              1.336
 Vibration    14          0.711              1.621              1.274
 Vibration    15          0.721              1.593              1.206
 Vibration    16          0.725              1.580              1.176
 Vibration    17          0.730              1.568              1.150
 Vibration    18          0.747              1.521              1.056
 Vibration    19          0.752              1.508              1.031
 Vibration    20          0.756              1.496              1.009
 Vibration    21          0.771              1.458              0.942
 Vibration    22          0.779              1.436              0.907
 Vibration    23          0.788              1.412              0.870
 Vibration    24          0.806              1.367              0.804
 Vibration    25          0.823              1.327              0.751
 Vibration    26          0.828              1.315              0.735
 Vibration    27          0.876              1.203              0.607
 Vibration    28          0.889              1.174              0.578
 Vibration    29          0.904              1.143              0.547
 Vibration    30          0.917              1.116              0.522
 Vibration    31          0.975              1.000              0.424

 Optimization completed.
    -- Stationary point found.
 Normal termination of Gaussian 16 at Thu Dec 28 21:09:07 2023.
