 Q-Chem 5.4, Q-Chem, Inc., Pleasanton, CA (2021)
 Q-Chem 5.4.0 for Intel X86 EM64T Linux

User input:
--------------------------------------------------------------
$molecule
-1 2
C                  2.5476690000     -0.8948720000     -0.1357460000
C                  1.2523190000     -0.1420010000      0.0041050000
C                  1.1947500000      1.1902920000      0.3192760000
Cl                 2.7015500000      2.0915060000      0.5791010000
C                 -0.0237870000      1.9739580000      0.4689160000
O                 -0.0384510000      3.1876990000      0.7572660000
C                 -1.2232920000      1.1791010000      0.2435500000
C                 -1.2487430000     -0.1535410000     -0.0743290000
C                 -2.5258170000     -0.9181930000     -0.2950120000
C                  0.0106520000     -0.8825090000     -0.2095910000
O                  0.0254870000     -2.1113490000     -0.5014140000
Cl                -2.7516750000      2.0662370000      0.4085080000
H                  3.1274730000     -0.8646030000      0.7929350000
H                  2.3287750000     -1.9316970000     -0.3894330000
H                  3.1797010000     -0.4574280000     -0.9159330000
H                 -3.1628140000     -0.8939240000      0.5956030000
H                 -3.1118510000     -0.4859150000     -1.1130730000
H                 -2.2819470000     -1.9527600000     -0.5347290000
$end
$rem
MAX_SCF_CYCLES=200
BASIS  =  6-311++G(d,p)
GUI  =  2
JOB_TYPE  =  SP
METHOD  =  B3LYP
SOLVENT_METHOD = COSMO
$end
$solvent
dielectric 37.219
opticaldielectric 1.43
$end

--------------------------------------------------------------

             Standard Nuclear Orientation (Angstroms)
    I     Atom           X                Y                Z
 ----------------------------------------------------------------
    1      C       2.5380023673     1.7306406917    -0.0001362836
    2      C       1.2511566385     0.9506838172    -0.0000295668
    3      C       1.2096367940    -0.4189612784     0.0000112809
    4      Cl      2.7279787500    -1.3380802247     0.0001200202
    5      C       0.0000142853    -1.2302382563    -0.0000195583
    6      O      -0.0000092720    -2.4778471566    -0.0000622376
    7      C      -1.2096165575    -0.4189473386    -0.0000016102
    8      C      -1.2511615231     0.9506889354     0.0000703263
    9      C      -2.5380364008     1.7306021925     0.0002424271
   10      C       0.0000012790     1.7059091371    -0.0000257768
   11      O       0.0000172858     2.9690118571    -0.0000938454
   12      Cl     -2.7279724363    -1.3380618228    -0.0000970966
   13      H       3.1467283964     1.4933880799    -0.8791704753
   14      H       2.3064871941     2.7953840049     0.0002631610
   15      H       3.1473144410     1.4927772679     0.8783130579
   16      H      -3.1467213746     1.4937056952    -0.8789230253
   17      H      -3.1473898336     1.4922243041     0.8785295638
   18      H      -2.3065715632     2.7953504471     0.0011792477
 ----------------------------------------------------------------

    9   -1379.5539469011      9.17e-06  Convergence criterion met
 Total energy in the final basis set =    -1379.5539469011
    4   -1379.6331204648      9.96e-06  Convergence criterion met
 Total energy in the final basis set =    -1379.6331204648

                    Orbital Energies (a.u.)
 --------------------------------------------------------------

 Alpha MOs
 -- Occupied --
********-101.5500 -19.0923 -19.0894 -10.2447 -10.2345 -10.2263 -10.2262
-10.1884 -10.1883 -10.1587 -10.1587  -9.4645  -9.4645  -7.2287  -7.2287
 -7.2199  -7.2199  -7.2189  -7.2189  -1.0238  -1.0133  -0.8801  -0.8674
 -0.8070  -0.7709  -0.7279  -0.6688  -0.6622  -0.5699  -0.5693  -0.5172
 -0.4705  -0.4477  -0.4401  -0.4201  -0.4185  -0.4145  -0.4119  -0.4058
 -0.3914  -0.3772  -0.3690  -0.3590  -0.3520  -0.3367  -0.3179  -0.3095
 -0.2801  -0.2641  -0.2524  -0.2436  -0.1725

 Beta MOs
 -- Occupied --
********-101.5500 -19.0860 -19.0822 -10.2432 -10.2329 -10.2254 -10.2253
-10.1871 -10.1871 -10.1588 -10.1588  -9.4645  -9.4645  -7.2287  -7.2287
 -7.2198  -7.2198  -7.2189  -7.2189  -1.0131  -1.0007  -0.8767  -0.8665
 -0.8034  -0.7691  -0.7234  -0.6675  -0.6545  -0.5664  -0.5650  -0.5151
 -0.4668  -0.4367  -0.4348  -0.4178  -0.4171  -0.4127  -0.4084  -0.3910
 -0.3906  -0.3668  -0.3576  -0.3548  -0.3502  -0.3257  -0.3175  -0.3091
 -0.2580  -0.2541  -0.2461  -0.2371

          Ground-State Mulliken Net Atomic Charges

     Atom                 Charge (a.u.)    Spin (a.u.)
  --------------------------------------------------------
      1 C                    -0.649001       0.002061
      2 C                     0.592578       0.091309
      3 C                     0.185107       0.045942
      4 Cl                    0.365381       0.004200
      5 C                    -1.040481       0.106128
      6 O                    -0.414116       0.224001
      7 C                     0.184610       0.045903
      8 C                     0.592587       0.091278
      9 C                    -0.648870       0.002064
     10 C                    -1.121841       0.109953
     11 O                    -0.469399       0.259541
     12 Cl                    0.365459       0.004196
     13 H                     0.175154       0.004357
     14 H                     0.178821      -0.001997
     15 H                     0.175079       0.004352
     16 H                     0.175223       0.004359
     17 H                     0.174999       0.004349
     18 H                     0.178710      -0.001997
  --------------------------------------------------------
  Sum of atomic charges =    -1.000000

                    Cartesian Multipole Moments
 -----------------------------------------------------------------
    Charge (ESU x 10^10)
                -4.8032
    Dipole Moment (Debye)
         X       0.0003      Y       2.4203      Z       0.0009
       Tot       2.4203
    Quadrupole Moments (Debye-Ang)
        XX     -92.3492     XY      -0.0019     YY    -126.6315
        XZ       0.0003     YZ       0.0011     ZZ     -86.4707

 Total job time:  45.15s(wall), 233.52s(cpu)
        *  Thank you very much for using Q-Chem.  Have a nice day.  *
