 Q-Chem 5.4, Q-Chem, Inc., Pleasanton, CA (2021)
 Q-Chem 5.4.0 for Intel X86 EM64T Linux

User input:
--------------------------------------------------------------
$molecule
0 1
I                 -3.3692520000     -1.0643850000     -0.1527130000
C                 -1.4119390000     -0.3340070000     -0.0622530000
C                 -1.0789590000      0.9714770000     -0.0284220000
I                 -2.4466600000      2.5529750000     -0.0588390000
C                  0.3589140000      1.4069810000      0.0364080000
O                  0.6574130000      2.5784800000      0.0667690000
C                  1.4119360000      0.3340230000      0.0622210000
C                  1.0789850000     -0.9714940000      0.0283950000
I                  2.4466410000     -2.5529900000      0.0589170000
C                 -0.3589220000     -1.4069850000     -0.0365230000
O                 -0.6574500000     -2.5784870000     -0.0667360000
I                  3.3692910000      1.0644130000      0.1527750000
$end
$rem
MAX_SCF_CYCLES=200
BASIS  =  6-311++G(d,p)
GUI  =  2
JOB_TYPE  =  SP
METHOD  =  B3LYP
SOLVENT_METHOD = PCM
$end
$pcm
theory = CPCM
$end
$solvent
dielectric 37.219
opticaldielectric 1.43
$end

--------------------------------------------------------------

             Standard Nuclear Orientation (Angstroms)
    I     Atom           X                Y                Z
 ----------------------------------------------------------------
    1      I      -3.3692520000    -1.0643850000    -0.1527130000
    2      C      -1.4119390000    -0.3340070000    -0.0622530000
    3      C      -1.0789590000     0.9714770000    -0.0284220000
    4      I      -2.4466600000     2.5529750000    -0.0588390000
    5      C       0.3589140000     1.4069810000     0.0364080000
    6      O       0.6574130000     2.5784800000     0.0667690000
    7      C       1.4119360000     0.3340230000     0.0622210000
    8      C       1.0789850000    -0.9714940000     0.0283950000
    9      I       2.4466410000    -2.5529900000     0.0589170000
   10      C      -0.3589220000    -1.4069850000    -0.0365230000
   11      O      -0.6574500000    -2.5784870000    -0.0667360000
   12      I       3.3692910000     1.0644130000     0.1527750000
 ----------------------------------------------------------------

    7  -28057.2087992692      9.02e-06  Convergence criterion met
 Total energy in the final basis set =   -28057.2087992692

                    Orbital Energies (a.u.)
 --------------------------------------------------------------

 Alpha MOs
 -- Occupied --
***********************************-176.3208-176.3208-176.3206-176.3206
********-165.7246-165.7244-165.7244-165.7225-165.7225-165.7223-165.7223
********-165.7222-165.7221-165.7221 -35.8173 -35.8173 -35.8171 -35.8171
-31.3106 -31.3106 -31.3104 -31.3104 -31.3047 -31.3047 -31.3045 -31.3045
-31.3039 -31.3039 -31.3038 -31.3038 -22.9611 -22.9611 -22.9609 -22.9609
-22.9598 -22.9598 -22.9596 -22.9596 -22.9593 -22.9593 -22.9591 -22.9591
-22.9551 -22.9551 -22.9551 -22.9551 -22.9550 -22.9550 -22.9550 -22.9550
-19.1633 -19.1633 -10.3201 -10.3201 -10.2714 -10.2714 -10.2706 -10.2706
 -6.3666  -6.3666  -6.3665  -6.3665  -4.7793  -4.7793  -4.7792  -4.7792
 -4.7648  -4.7648  -4.7647  -4.7647  -4.7633  -4.7633  -4.7631  -4.7631
 -2.0454  -2.0454  -2.0453  -2.0453  -2.0407  -2.0407  -2.0406  -2.0406
 -2.0395  -2.0395  -2.0394  -2.0394  -2.0272  -2.0272  -2.0271  -2.0271
 -2.0270  -2.0270  -2.0269  -2.0269  -1.1030  -1.1013  -0.8950  -0.8384
 -0.7483  -0.7210  -0.6979  -0.6566  -0.6548  -0.6070  -0.5876  -0.5628
 -0.5006  -0.4911  -0.4806  -0.4481  -0.4279  -0.4210  -0.4137  -0.3934
 -0.3732  -0.3579  -0.3204  -0.3099  -0.3069  -0.2979  -0.2969  -0.2936
 -0.2766  -0.2692  -0.2602  -0.2573

          Ground-State Mulliken Net Atomic Charges

     Atom                 Charge (a.u.)
  ----------------------------------------
      1 I                     0.112549
      2 C                     0.726882
      3 C                     0.709312
      4 I                     0.115792
      5 C                    -1.527666
      6 O                    -0.137055
      7 C                     0.727235
      8 C                     0.709026
      9 I                     0.115812
     10 C                    -1.527374
     11 O                    -0.137050
     12 I                     0.112537
  ----------------------------------------
  Sum of atomic charges =     0.000000

                    Cartesian Multipole Moments
 -----------------------------------------------------------------
    Charge (ESU x 10^10)
                 0.0000
    Dipole Moment (Debye)
         X       0.0000      Y      -0.0003      Z      -0.0002
       Tot       0.0004
    Quadrupole Moments (Debye-Ang)
        XX    -143.1725     XY      -7.0012     YY    -168.6475
        XZ       0.4445     YZ      -0.4584     ZZ    -156.7934

 Total job time:  57.16s(wall), 131.59s(cpu)
        *  Thank you very much for using Q-Chem.  Have a nice day.  *
