 Gaussian 16, Revision A.03,
 Gaussian 16:  ES64L-G16RevA.03 25-Dec-2016

 --------------------------------------
 #P UB3LYP/6-311++G(d,p) nosym opt freq
 --------------------------------------

 -------
 Radical
 -------
 Symbolic Z-matrix:
 Charge = -1 Multiplicity = 2

 SCF Done:  E(UB3LYP) =  -991.161445545     A.U. after   24 cycles
 SCF Done:  E(UB3LYP) =  -991.199527133     A.U. after   18 cycles
 SCF Done:  E(UB3LYP) =  -991.213669744     A.U. after   19 cycles
 SCF Done:  E(UB3LYP) =  -991.216761961     A.U. after   17 cycles
 SCF Done:  E(UB3LYP) =  -991.217487265     A.U. after   15 cycles
 SCF Done:  E(UB3LYP) =  -991.216058527     A.U. after   16 cycles
 SCF Done:  E(UB3LYP) =  -991.217841680     A.U. after   17 cycles
 SCF Done:  E(UB3LYP) =  -991.218016346     A.U. after   15 cycles
 SCF Done:  E(UB3LYP) =  -991.218041043     A.U. after   16 cycles
 SCF Done:  E(UB3LYP) =  -991.218342071     A.U. after   16 cycles
 SCF Done:  E(UB3LYP) =  -991.219701005     A.U. after   14 cycles
 SCF Done:  E(UB3LYP) =  -991.219727200     A.U. after   13 cycles
 SCF Done:  E(UB3LYP) =  -991.219738517     A.U. after   12 cycles
 SCF Done:  E(UB3LYP) =  -991.219745565     A.U. after   12 cycles
 SCF Done:  E(UB3LYP) =  -991.219754064     A.U. after   12 cycles
 SCF Done:  E(UB3LYP) =  -991.219757191     A.U. after   12 cycles
 SCF Done:  E(UB3LYP) =  -991.219757816     A.U. after   12 cycles
 SCF Done:  E(UB3LYP) =  -991.219757941     A.U. after   11 cycles
 SCF Done:  E(UB3LYP) =  -991.219757945     A.U. after    7 cycles
 Optimization completed.
    -- Stationary point found.
 Normal termination of Gaussian 16 at Tue Dec 26 23:12:50 2023.

 ----------------------------------------------------------------------
 #P Geom=AllCheck Guess=TCheck SCRF=Check GenChk UB3LYP/6-311++G(d,p) F
 req
 ----------------------------------------------------------------------

 Structure from the checkpoint file:  "264-rad.chk"
 -------
 Radical
 -------
 Charge = -1 Multiplicity = 2

                          Input orientation:
 ---------------------------------------------------------------------
 Center     Atomic      Atomic             Coordinates (Angstroms)
 Number     Number       Type             X           Y           Z
 ---------------------------------------------------------------------
      1          6           0        4.894317   -1.091013    0.037546
      2          6           0        3.531833   -1.092741   -0.600220
      3          8           0        3.299266   -0.916598   -1.767280
      4          8           0        2.579947   -1.380244    0.333834
      5          6           0        1.240853   -1.094632    0.048013
      6          6           0        0.427222   -2.180516   -0.188372
      7          6           0       -0.942118   -1.986242   -0.390935
      8          6           0       -1.464193   -0.712914   -0.335456
      9          8           0       -2.823536   -0.591714   -0.641980
     10          6           0       -3.706329   -0.317705    0.361412
     11          6           0       -5.008760    0.164319   -0.216874
     12          8           0       -3.473512   -0.488664    1.529194
     13          6           0       -0.666034    0.428641   -0.082363
     14          6           0       -1.254288    1.785344   -0.008009
     15          8           0       -2.489574    2.009466   -0.128822
     16          6           0       -0.331071    2.858571    0.227356
     17          6           0        1.014519    2.671787    0.393060
     18          6           0        1.645965    1.384293    0.336678
     19          8           0        2.894763    1.269818    0.471371
     20          6           0        0.747579    0.231341    0.100421
     21          1           0        5.662751   -1.145466   -0.732528
     22          1           0        4.980275   -0.153055    0.590357
     23          1           0        4.995133   -1.918111    0.743307
     24          1           0        0.865167   -3.171014   -0.212591
     25          1           0       -1.605327   -2.818730   -0.592398
     26          1           0       -5.284131   -0.420151   -1.097176
     27          1           0       -4.850178    1.199784   -0.525760
     28          1           0       -5.790493    0.113059    0.539913
     29          1           0       -0.769139    3.850922    0.277194
     30          1           0        1.679093    3.512166    0.569847
 ---------------------------------------------------------------------

 SCF Done:  E(UB3LYP) =  -991.219757945     A.U. after    2 cycles

 Alpha  occ. eigenvalues --  -19.05672 -19.05671 -19.00243 -19.00242 -18.95343
 Alpha  occ. eigenvalues --  -18.95342 -10.19791 -10.19791 -10.12664 -10.12663
 Alpha  occ. eigenvalues --  -10.10530 -10.10529 -10.07437 -10.07436 -10.07289
 Alpha  occ. eigenvalues --  -10.07249 -10.07040 -10.06987 -10.04536 -10.04471
 Alpha  occ. eigenvalues --   -1.00047  -1.00015  -0.91905  -0.91853  -0.87889
 Alpha  occ. eigenvalues --   -0.87648  -0.75415  -0.69217  -0.67643  -0.65202
 Alpha  occ. eigenvalues --   -0.63637  -0.62143  -0.56528  -0.54543  -0.51476
 Alpha  occ. eigenvalues --   -0.49012  -0.48727  -0.41032  -0.39964  -0.39679
 Alpha  occ. eigenvalues --   -0.38592  -0.38457  -0.37287  -0.37115  -0.35969
 Alpha  occ. eigenvalues --   -0.35867  -0.34324  -0.33264  -0.31380  -0.31299
 Alpha  occ. eigenvalues --   -0.30890  -0.30589  -0.29983  -0.28954  -0.27899
 Alpha  occ. eigenvalues --   -0.27816  -0.27106  -0.27014  -0.25647  -0.24852
 Alpha  occ. eigenvalues --   -0.24819  -0.23528  -0.20847  -0.20556  -0.17468
 Alpha  occ. eigenvalues --   -0.17339  -0.15772  -0.14362  -0.13628  -0.11947
 Alpha  occ. eigenvalues --   -0.11399  -0.03349
 Alpha virt. eigenvalues --    0.07801   0.07827   0.08026   0.08938   0.09074
 Alpha virt. eigenvalues --    0.09945   0.10653   0.11053   0.11244   0.11549
 Alpha virt. eigenvalues --    0.11872   0.12538   0.13215   0.13947   0.14542

  Beta  occ. eigenvalues --  -19.05669 -19.05669 -19.00241 -19.00241 -18.94664
  Beta  occ. eigenvalues --  -18.94663 -10.19790 -10.19789 -10.12668 -10.12666
  Beta  occ. eigenvalues --  -10.10414 -10.10413 -10.07438 -10.07437 -10.07218
  Beta  occ. eigenvalues --  -10.07178 -10.06988 -10.06934 -10.04402 -10.04336
  Beta  occ. eigenvalues --   -1.00040  -1.00009  -0.91896  -0.91845  -0.86735
  Beta  occ. eigenvalues --   -0.86458  -0.75242  -0.68681  -0.67588  -0.65195
  Beta  occ. eigenvalues --   -0.63397  -0.62052  -0.55691  -0.54510  -0.51078
  Beta  occ. eigenvalues --   -0.48776  -0.48662  -0.40880  -0.39733  -0.39597
  Beta  occ. eigenvalues --   -0.38563  -0.38362  -0.37187  -0.37070  -0.35935
  Beta  occ. eigenvalues --   -0.35683  -0.34187  -0.33193  -0.31299  -0.31192
  Beta  occ. eigenvalues --   -0.30807  -0.30423  -0.29621  -0.28373  -0.27789
  Beta  occ. eigenvalues --   -0.26939  -0.26935  -0.26816  -0.24891  -0.24619
  Beta  occ. eigenvalues --   -0.22797  -0.22784  -0.20762  -0.20290  -0.17453
  Beta  occ. eigenvalues --   -0.17329  -0.13791  -0.13006  -0.12608  -0.11323
  Beta  occ. eigenvalues --   -0.10781
  Beta virt. eigenvalues --    0.03303   0.07829   0.08002   0.08504   0.09040
  Beta virt. eigenvalues --    0.09910   0.10147   0.10714   0.11217   0.11262
  Beta virt. eigenvalues --    0.11558   0.11888   0.12558   0.13223   0.13973

 Mulliken charges and spin densities:
               1          2
     1  C   -0.478328   0.004248
     2  C   -0.026594  -0.003240
     3  O   -0.215756  -0.000125
     4  O    0.002184  -0.002101
     5  C   -0.517575   0.034244
     6  C    0.142433   0.034644
     7  C    0.142441   0.034636
     8  C   -0.517795   0.034250
     9  O    0.002203  -0.002100
    10  C   -0.026414  -0.003250
    11  C   -0.478314   0.004253
    12  O   -0.215742  -0.000128
    13  C    0.544416   0.042438
    14  C   -0.337942   0.060729
    15  O   -0.378838   0.250493
    16  C   -0.022239   0.092214
    17  C   -0.021429   0.092244
    18  C   -0.337984   0.060713
    19  O   -0.378871   0.250484
    20  C    0.544095   0.042425
    21  H    0.133631  -0.000322
    22  H    0.210373  -0.000881
    23  H    0.138112   0.000393
    24  H    0.155360  -0.003485
    25  H    0.155350  -0.003486
    26  H    0.138096   0.000392
    27  H    0.210394  -0.000880
    28  H    0.133637  -0.000322
    29  H    0.150546  -0.009240
    30  H    0.150551  -0.009240
 Sum of Mulliken charges =  -1.00000   1.00000

 Dipole moment (field-independent basis, Debye):
    X=             -0.5012    Y=             -4.0653    Z=             -0.3510  Tot=              4.1111
 Quadrupole moment (field-independent basis, Debye-Ang):
   XX=           -148.6542   YY=           -125.8076   ZZ=           -132.5969
   XY=              1.4116   XZ=             11.4894   YZ=             -0.4300

  Exact polarizability: 279.617  -8.295 219.647   7.436  10.617 126.664
 Approx polarizability: 416.939 -11.206 353.203  27.230  13.775 214.900

                      1                      2                      3
                      A                      A                      A
 Frequencies --     38.4616                48.2864                60.9723
 Red. masses --      9.4101                 5.2772                 5.9350
 Frc consts  --      0.0082                 0.0072                 0.0130
 IR Inten    --      0.4520                 2.4116                 1.1335

                      4                      5                      6
                      A                      A                      A
 Frequencies --     79.1550               103.6543               103.8052
 Red. masses --      6.6227                 3.9420                 3.2507
 Frc consts  --      0.0244                 0.0250                 0.0206
 IR Inten    --      2.3481                 8.0966                 8.4339

                      7                      8                      9
                      A                      A                      A
 Frequencies --    115.4002               118.1696               121.1056
 Red. masses --      1.7381                 1.2604                 1.7683
 Frc consts  --      0.0136                 0.0104                 0.0153
 IR Inten    --      2.9445                 0.2984                 1.7239

                     10                     11                     12
                      A                      A                      A
 Frequencies --    126.1461               167.0964               240.5248
 Red. masses --      6.2557                 6.1396                 8.6914
 Frc consts  --      0.0587                 0.1010                 0.2963
 IR Inten    --      0.3399                 1.5183                 3.7347

                     13                     14                     15
                      A                      A                      A
 Frequencies --    272.3024               283.5072               323.7673
 Red. masses --      3.7724                10.5545                 4.6909
 Frc consts  --      0.1648                 0.4998                 0.2897
 IR Inten    --      0.2428                 0.4186                 5.4244

                     16                     17                     18
                      A                      A                      A
 Frequencies --    324.1261               357.2112               384.0002
 Red. masses --      5.1853                 9.8711                 6.1570
 Frc consts  --      0.3210                 0.7421                 0.5349
 IR Inten    --      0.0662                 0.5346                 1.3559

                     19                     20                     21
                      A                      A                      A
 Frequencies --    398.4590               413.7519               463.6053
 Red. masses --     10.4985                 4.7935                10.7925
 Frc consts  --      0.9821                 0.4835                 1.3667
 IR Inten    --     11.3576                 5.3607                 0.1474

                     22                     23                     24
                      A                      A                      A
 Frequencies --    484.8125               491.8791               509.7880
 Red. masses --      4.4669                 5.4120                 5.0023
 Frc consts  --      0.6186                 0.7715                 0.7660
 IR Inten    --      0.0111                 2.6560                 1.1233

                     25                     26                     27
                      A                      A                      A
 Frequencies --    538.0496               559.0359               563.2712
 Red. masses --      3.5563                 3.0561                 3.1019
 Frc consts  --      0.6066                 0.5627                 0.5799
 IR Inten    --      6.4805                 0.6906                13.7864

                     28                     29                     30
                      A                      A                      A
 Frequencies --    610.3708               622.0185               655.2786
 Red. masses --      6.8876                 4.2082                 4.0572
 Frc consts  --      1.5118                 0.9593                 1.0264
 IR Inten    --      0.0181                20.2748                 6.9158

                     31                     32                     33
                      A                      A                      A
 Frequencies --    658.0134               678.3687               721.5470
 Red. masses --      5.9455                 3.2818                 5.6411
 Frc consts  --      1.5167                 0.8898                 1.7304
 IR Inten    --      0.4572                26.0099                 0.0257

                     34                     35                     36
                      A                      A                      A
 Frequencies --    755.8434               760.1503               795.8691
 Red. masses --      2.7536                 6.6804                 8.5402
 Frc consts  --      0.9269                 2.2743                 3.1871
 IR Inten    --      3.0158                23.5230                 0.1827

                     37                     38                     39
                      A                      A                      A
 Frequencies --    822.8582               836.6078               880.6907
 Red. masses --      2.0434                 2.1968                 3.3543
 Frc consts  --      0.8152                 0.9059                 1.5329
 IR Inten    --      0.2571                30.9128                 2.4299

                     40                     41                     42
                      A                      A                      A
 Frequencies --    889.3553               924.8216               944.5702
 Red. masses --      5.0288                 1.6988                 1.2819
 Frc consts  --      2.3435                 0.8561                 0.6738
 IR Inten    --     46.9472                 1.8047                 0.0133

                     43                     44                     45
                      A                      A                      A
 Frequencies --    949.3952               966.7789              1022.0204
 Red. masses --      6.3710                 4.8452                 1.9014
 Frc consts  --      3.3834                 2.6682                 1.1701
 IR Inten    --     52.4474                16.3086                 0.9482

                     46                     47                     48
                      A                      A                      A
 Frequencies --   1026.0523              1054.6747              1055.7975
 Red. masses --      1.8822                 1.7542                 1.7588
 Frc consts  --      1.1675                 1.1497                 1.1551
 IR Inten    --    179.0132                26.0512                23.3225

                     49                     50                     51
                      A                      A                      A
 Frequencies --   1091.6449              1132.7267              1155.7343
 Red. masses --      1.7077                 3.2259                 1.2940
 Frc consts  --      1.1990                 2.4387                 1.0184
 IR Inten    --      0.7096               174.4680                13.4494

                     52                     53                     54
                      A                      A                      A
 Frequencies --   1207.4830              1220.0425              1224.4996
 Red. masses --      3.2698                 5.6065                 3.0284
 Frc consts  --      2.8089                 4.9169                 2.6754
 IR Inten    --    823.9137                17.3148                 8.8126

                     55                     56                     57
                      A                      A                      A
 Frequencies --   1230.1958              1238.8845              1303.3994
 Red. masses --      3.7803                 2.5370                 2.1586
 Frc consts  --      3.3707                 2.2942                 2.1606
 IR Inten    --      0.5475               179.2178                 0.4457

                     58                     59                     60
                      A                      A                      A
 Frequencies --   1315.9122              1379.0400              1379.8339
 Red. masses --     11.2902                 1.3523                 1.4215
 Frc consts  --     11.5187                 1.5152                 1.5945
 IR Inten    --     13.8405               260.5640                 0.6959

                     61                     62                     63
                      A                      A                      A
 Frequencies --   1386.7691              1417.8152              1433.3270
 Red. masses --      4.3508                 3.2251                 3.8710
 Frc consts  --      4.9297                 3.8197                 4.6856
 IR Inten    --      5.8658                71.7416               108.4892

                     64                     65                     66
                      A                      A                      A
 Frequencies --   1470.4042              1470.9323              1480.8843
 Red. masses --      1.0662                 1.0685                 1.0532
 Frc consts  --      1.3582                 1.3621                 1.3608
 IR Inten    --      9.8386                 7.3083                 3.6034

                     67                     68                     69
                      A                      A                      A
 Frequencies --   1481.0778              1506.7044              1553.9175
 Red. masses --      1.0509                 9.9129                 6.0422
 Frc consts  --      1.3582                13.2588                 8.5961
 IR Inten    --     18.8878                 0.5743               730.2553

                     70                     71                     72
                      A                      A                      A
 Frequencies --   1559.8688              1624.8383              1635.4946
 Red. masses --      5.8547                 7.2738                 7.6298
 Frc consts  --      8.3933                11.3144                12.0243
 IR Inten    --     67.8725                 1.8651                 3.1643

                     73                     74                     75
                      A                      A                      A
 Frequencies --   1804.5132              1804.7708              3045.9267
 Red. masses --     11.6426                11.5847                 1.0338
 Frc consts  --     22.3367                22.2320                 5.6512
 IR Inten    --    519.1590                 2.6474                38.2749

                     76                     77                     78
                      A                      A                      A
 Frequencies --   3045.9975              3116.5380              3116.5774
 Red. masses --      1.0338                 1.1003                 1.1003
 Frc consts  --      5.6515                 6.2969                 6.2969
 IR Inten    --      7.4163                 6.5761                 6.9088

                     79                     80                     81
                      A                      A                      A
 Frequencies --   3139.9904              3140.0640              3143.8852
 Red. masses --      1.1043                 1.1043                 1.0852
 Frc consts  --      6.4148                 6.4151                 6.3199
 IR Inten    --     23.3194                11.1068                19.0506

                     82                     83                     84
                      A                      A                      A
 Frequencies --   3164.8177              3176.7091              3192.9615
 Red. masses --      1.0945                 1.0875                 1.0952
 Frc consts  --      6.4588                 6.4661                 6.5783
 IR Inten    --     33.8644                14.1500                13.6280

 - Thermochemistry -
 -------------------
 Temperature   298.150 Kelvin.  Pressure   1.00000 Atm.
 Atom     1 has atomic number  6 and mass  12.00000

 Molecular mass:   274.04774 amu.
 Principal axes and moments of inertia in atomic units:
                           1         2         3
     Eigenvalues --  2465.901517769.783079492.35435
           X            0.99170   0.12168   0.04161
           Y           -0.11550   0.98505  -0.12777
           Z           -0.05653   0.12191   0.99093
 This molecule is an asymmetric top.
 Rotational symmetry number  1.
 Warning -- assumption of classical behavior for rotation
           may cause significant error
 Rotational temperatures (Kelvin)      0.03512     0.01115     0.00912
 Rotational constants (GHZ):           0.73188     0.23228     0.19013
 Zero-point vibrational energy     556955.0 (Joules/Mol)
                                  133.11545 (Kcal/Mol)
 Warning -- explicit consideration of  28 degrees of freedom as
           vibrations may cause significant error
 Vibrational temperatures:     55.34    69.47    87.73   113.89   149.14
          (Kelvin)            149.35   166.04   170.02   174.24   181.50
                              240.41   346.06   391.78   407.90   465.83
                              466.35   513.95   552.49   573.29   595.30
                              667.02   697.54   707.70   733.47   774.13
                              804.33   810.42   878.19   894.95   942.80
                              946.73   976.02  1038.15  1087.49  1093.69
                             1145.08  1183.91  1203.69  1267.12  1279.58
                             1330.61  1359.03  1365.97  1390.98  1470.46
                             1476.26  1517.44  1519.06  1570.63  1629.74
                             1662.84  1737.30  1755.37  1761.78  1769.98
                             1782.48  1875.30  1893.30  1984.13  1985.27
                             1995.25  2039.92  2062.24  2115.58  2116.34
                             2130.66  2130.94  2167.81  2235.74  2244.30
                             2337.78  2353.11  2596.29  2596.66  4382.41
                             4382.51  4484.00  4484.06  4517.75  4517.85
                             4523.35  4553.47  4570.58  4593.96

 Zero-point correction=                           0.212133 (Hartree/Particle)
 Thermal correction to Energy=                    0.229931
 Thermal correction to Enthalpy=                  0.230875
 Thermal correction to Gibbs Free Energy=         0.164986
 Sum of electronic and zero-point Energies=           -991.007625
 Sum of electronic and thermal Energies=              -990.989827
 Sum of electronic and thermal Enthalpies=            -990.988883
 Sum of electronic and thermal Free Energies=         -991.054772

                     E (Thermal)             CV                S
                      KCal/Mol        Cal/Mol-Kelvin    Cal/Mol-Kelvin
 Total                  144.284             66.459            138.675
 Electronic               0.000              0.000              1.377
 Translational            0.889              2.981             42.723
 Rotational               0.889              2.981             33.564
 Vibrational            142.507             60.497             61.011
 Vibration     1          0.594              1.982              5.337
 Vibration     2          0.595              1.978              4.886
 Vibration     3          0.597              1.973              4.425
 Vibration     4          0.600              1.963              3.912
 Vibration     5          0.605              1.946              3.384
 Vibration     6          0.605              1.946              3.382
 Vibration     7          0.608              1.937              3.176
 Vibration     8          0.608              1.934              3.130
 Vibration     9          0.609              1.932              3.083
 Vibration    10          0.611              1.927              3.004
 Vibration    11          0.624              1.883              2.468
 Vibration    12          0.658              1.778              1.799
 Vibration    13          0.675              1.724              1.582
 Vibration    14          0.682              1.704              1.512
 Vibration    15          0.708              1.628              1.291
 Vibration    16          0.709              1.627              1.289
 Vibration    17          0.732              1.560              1.134
 Vibration    18          0.753              1.504              1.023
 Vibration    19          0.765              1.473              0.968
 Vibration    20          0.777              1.440              0.913
 Vibration    21          0.821              1.331              0.756
 Vibration    22          0.841              1.284              0.697
 Vibration    23          0.848              1.268              0.679
 Vibration    24          0.865              1.228              0.634
 Vibration    25          0.893              1.166              0.569
 Vibration    26          0.915              1.120              0.526
 Vibration    27          0.919              1.111              0.517
 Vibration    28          0.969              1.010              0.432

 Optimization completed.
    -- Stationary point found.
 Normal termination of Gaussian 16 at Wed Dec 27 00:36:42 2023.
