 Gaussian 16, Revision A.03,
 Gaussian 16:  ES64L-G16RevA.03 25-Dec-2016

 ----------------------------------------------------------------------
 #P UB3LYP/6-311++G(d,p) nosym opt freq SCRF=(PCM,Solvent=n,n-DiMethylF
 ormamide)
 ----------------------------------------------------------------------

 -------
 Radical
 -------
 Symbolic Z-matrix:
 Charge = -1 Multiplicity = 2

 SCF Done:  E(UB3LYP) =  -767.749070672     A.U. after   17 cycles
 SCF Done:  E(UB3LYP) =  -767.749340908     A.U. after   13 cycles
 SCF Done:  E(UB3LYP) =  -767.749371340     A.U. after   12 cycles
 SCF Done:  E(UB3LYP) =  -767.749370827     A.U. after   10 cycles
 SCF Done:  E(UB3LYP) =  -767.749372781     A.U. after   10 cycles
 Optimization completed.
    -- Stationary point found.
 Normal termination of Gaussian 16 at Sat Feb 10 16:19:28 2024.

 ----------------------------------------------------------------------
 #P Geom=AllCheck Guess=TCheck SCRF=Check GenChk UB3LYP/6-311++G(d,p) F
 req
 ----------------------------------------------------------------------

 Structure from the checkpoint file:  "129-rad.chk"
 -------
 Radical
 -------
 Charge = -1 Multiplicity = 2

                          Input orientation:
 ---------------------------------------------------------------------
 Center     Atomic      Atomic             Coordinates (Angstroms)
 Number     Number       Type             X           Y           Z
 ---------------------------------------------------------------------
      1          6           0       -3.763142    1.769383   -0.349177
      2          6           0       -2.531653    0.922559   -0.139540
      3          6           0       -1.274687    1.431093   -0.412987
      4          6           0       -0.090637    0.681023   -0.234889
      5          6           0        1.203384    1.280810   -0.546635
      6          8           0        1.302548    2.465977   -0.978738
      7          6           0        2.380101    0.442038   -0.333733
      8          6           0        3.666700    0.959208   -0.612532
      9          6           0        4.803361    0.198122   -0.426321
     10          6           0        4.692722   -1.126329    0.051142
     11          6           0        3.448432   -1.654588    0.331517
     12          6           0        2.268413   -0.896030    0.151099
     13          6           0        0.972072   -1.492875    0.462268
     14          8           0        0.873505   -2.677358    0.896370
     15          6           0       -0.201879   -0.651805    0.248222
     16          6           0       -1.491034   -1.160323    0.523707
     17          6           0       -2.643504   -0.416844    0.343733
     18          6           0       -3.995425   -1.011776    0.653595
     19          1           0       -3.496097    2.760851   -0.718963
     20          1           0       -4.447997    1.312880   -1.071906
     21          1           0       -4.328194    1.896748    0.580451
     22          1           0       -1.173954    2.446442   -0.779671
     23          1           0        3.736215    1.976519   -0.978841
     24          1           0        5.780526    0.614676   -0.646200
     25          1           0        5.584961   -1.725879    0.196619
     26          1           0        3.348231   -2.669302    0.697621
     27          1           0       -1.560083   -2.178389    0.890502
     28          1           0       -4.521594   -0.437714    1.423908
     29          1           0       -4.644202   -1.019903   -0.228857
     30          1           0       -3.897090   -2.039216    1.008239
 ---------------------------------------------------------------------

 SCF Done:  E(UB3LYP) =  -767.749372781     A.U. after    1 cycles

 Alpha  occ. eigenvalues --  -19.07262 -19.07261 -10.22103 -10.22102 -10.17876
 Alpha  occ. eigenvalues --  -10.17833 -10.17136 -10.17132 -10.17093 -10.17085
 Alpha  occ. eigenvalues --  -10.16879 -10.16878 -10.16860 -10.16816 -10.16379
 Alpha  occ. eigenvalues --  -10.16378 -10.16278 -10.16278  -0.99642  -0.99374
 Alpha  occ. eigenvalues --   -0.86172  -0.85177  -0.79582  -0.76325  -0.75255
 Alpha  occ. eigenvalues --   -0.74874  -0.70439  -0.68497  -0.65419  -0.62029
 Alpha  occ. eigenvalues --   -0.59823  -0.58551  -0.55423  -0.51874  -0.51468
 Alpha  occ. eigenvalues --   -0.47589  -0.46369  -0.44895  -0.43960  -0.43427
 Alpha  occ. eigenvalues --   -0.42203  -0.42093  -0.41702  -0.41563  -0.40787
 Alpha  occ. eigenvalues --   -0.39804  -0.39494  -0.38480  -0.37601  -0.37499
 Alpha  occ. eigenvalues --   -0.36570  -0.35804  -0.34033  -0.33874  -0.32716
 Alpha  occ. eigenvalues --   -0.32692  -0.26245  -0.25617  -0.24909  -0.24352
 Alpha  occ. eigenvalues --   -0.23804  -0.23492  -0.13993
 Alpha virt. eigenvalues --   -0.05123  -0.01762  -0.00517  -0.00169   0.00170
 Alpha virt. eigenvalues --    0.01147   0.01814   0.02083   0.03407   0.03810
 Alpha virt. eigenvalues --    0.03973   0.04078   0.04744   0.04787   0.05606

  Beta  occ. eigenvalues --  -19.06709 -19.06708 -10.21918 -10.21917 -10.17837
  Beta  occ. eigenvalues --  -10.17794 -10.17085 -10.17050 -10.17039 -10.17007
  Beta  occ. eigenvalues --  -10.16876 -10.16874 -10.16797 -10.16751 -10.16368
  Beta  occ. eigenvalues --  -10.16367 -10.16281 -10.16281  -0.98672  -0.98378
  Beta  occ. eigenvalues --   -0.85947  -0.85039  -0.79260  -0.76184  -0.75061
  Beta  occ. eigenvalues --   -0.74661  -0.70206  -0.68351  -0.64782  -0.61914
  Beta  occ. eigenvalues --   -0.59561  -0.58503  -0.55168  -0.51638  -0.51319
  Beta  occ. eigenvalues --   -0.47452  -0.46138  -0.44733  -0.43888  -0.43246
  Beta  occ. eigenvalues --   -0.42164  -0.42028  -0.41529  -0.40319  -0.40201
  Beta  occ. eigenvalues --   -0.39744  -0.39293  -0.38467  -0.37423  -0.36462
  Beta  occ. eigenvalues --   -0.35417  -0.35238  -0.33987  -0.33748  -0.32579
  Beta  occ. eigenvalues --   -0.31528  -0.25131  -0.24348  -0.24021  -0.23842
  Beta  occ. eigenvalues --   -0.23198  -0.22981
  Beta virt. eigenvalues --   -0.08095  -0.04175  -0.00761  -0.00507   0.00062
  Beta virt. eigenvalues --    0.00174   0.01154   0.01830   0.02079   0.03460
  Beta virt. eigenvalues --    0.03816   0.03983   0.04081   0.04957   0.05037

 Mulliken charges and spin densities:
               1          2
     1  C   -0.493165  -0.002332
     2  C    0.355692   0.035885
     3  C   -0.152406   0.025375
     4  C    0.014831   0.023003
     5  C   -0.555574   0.102183
     6  O   -0.470923   0.205433
     7  C    0.237862   0.042547
     8  C    0.029452   0.030836
     9  C   -0.422596   0.040269
    10  C   -0.422800   0.040281
    11  C    0.029532   0.030808
    12  C    0.238068   0.042531
    13  C   -0.555349   0.102192
    14  O   -0.470909   0.205429
    15  C    0.014806   0.023017
    16  C   -0.152728   0.025387
    17  C    0.355526   0.035879
    18  C   -0.493016  -0.002331
    19  H    0.172036   0.000154
    20  H    0.157989   0.001712
    21  H    0.157830   0.001717
    22  H    0.125739  -0.002192
    23  H    0.162264  -0.001300
    24  H    0.180906  -0.003286
    25  H    0.180890  -0.003287
    26  H    0.162126  -0.001297
    27  H    0.126050  -0.002194
    28  H    0.158047   0.001717
    29  H    0.157765   0.001712
    30  H    0.172054   0.000154
 Sum of Mulliken charges =  -1.00000   1.00000

 Dipole moment (field-independent basis, Debye):
    X=             -6.7244    Y=              0.6530    Z=              0.2548  Tot=              6.7608
 Quadrupole moment (field-independent basis, Debye-Ang):
   XX=           -105.4886   YY=           -139.3706   ZZ=           -116.0813
   XY=             -2.9542   XZ=              0.5292   YZ=              9.9073

  Exact polarizability: 504.746 -18.382 346.760 -19.745 -68.591 176.634
 Approx polarizability: 505.979 -12.855 410.003 -20.109 -83.351 204.983

                      1                      2                      3
                      A                      A                      A
 Frequencies --     47.8865                75.4956               131.3044
 Red. masses --      5.7265                 3.5710                 3.9181
 Frc consts  --      0.0077                 0.0120                 0.0398
 IR Inten    --     14.3284                 0.0043                 0.0851

                      4                      5                      6
                      A                      A                      A
 Frequencies --    132.7506               143.3428               173.2638
 Red. masses --      4.4079                 1.0899                 4.3247
 Frc consts  --      0.0458                 0.0132                 0.0765
 IR Inten    --      2.8831                 0.0021                 8.9423

                      7                      8                      9
                      A                      A                      A
 Frequencies --    180.7609               203.3681               236.2425
 Red. masses --      1.4523                 2.5052                 3.5474
 Frc consts  --      0.0280                 0.0610                 0.1166
 IR Inten    --      3.1446                 0.7184                 0.0012

                     10                     11                     12
                      A                      A                      A
 Frequencies --    276.6362               291.1023               332.5733
 Red. masses --      5.9466                 2.8302                 4.1773
 Frc consts  --      0.2681                 0.1413                 0.2722
 IR Inten    --      3.6688                 3.8586                 8.3048

                     13                     14                     15
                      A                      A                      A
 Frequencies --    337.8803               364.4691               377.0557
 Red. masses --      5.0147                 5.4220                10.8116
 Frc consts  --      0.3373                 0.4244                 0.9056
 IR Inten    --      1.3886                 4.1805                21.8715

                     16                     17                     18
                      A                      A                      A
 Frequencies --    429.4154               441.8267               467.0806
 Red. masses --      3.1101                 5.6797                 3.0868
 Frc consts  --      0.3379                 0.6532                 0.3968
 IR Inten    --     10.3750                 0.0040                 0.1820

                     19                     20                     21
                      A                      A                      A
 Frequencies --    471.1166               488.8370               558.3706
 Red. masses --      4.2826                12.6147                 4.6284
 Frc consts  --      0.5600                 1.7761                 0.8502
 IR Inten    --      2.4256                 0.0393                 0.0019

                     22                     23                     24
                      A                      A                      A
 Frequencies --    561.7347               619.6720               664.3977
 Red. masses --      4.4295                 6.7221                 4.0920
 Frc consts  --      0.8235                 1.5208                 1.0642
 IR Inten    --     14.9709                13.0561                 0.0081

                     25                     26                     27
                      A                      A                      A
 Frequencies --    665.6294               701.7531               708.0942
 Red. masses --      5.9113                 6.1379                 2.4421
 Frc consts  --      1.5431                 1.7809                 0.7214
 IR Inten    --     19.8710                 0.1572               109.6947

                     28                     29                     30
                      A                      A                      A
 Frequencies --    731.4882               741.8932               752.3573
 Red. masses --      4.1247                 6.6678                 4.4105
 Frc consts  --      1.3003                 2.1623                 1.4709
 IR Inten    --      0.0215                 5.8792                12.3796

                     31                     32                     33
                      A                      A                      A
 Frequencies --    788.1019               801.5095               878.4078
 Red. masses --      1.7860                 4.4046                 6.0685
 Frc consts  --      0.6536                 1.6672                 2.7588
 IR Inten    --     34.0691                 0.0049                 0.6617

                     34                     35                     36
                      A                      A                      A
 Frequencies --    882.7778               916.6407               917.5653
 Red. masses --      1.4697                 1.3837                 1.3823
 Frc consts  --      0.6748                 0.6850                 0.6857
 IR Inten    --      0.0154                 9.9174                18.4255

                     37                     38                     39
                      A                      A                      A
 Frequencies --    952.4501               987.6571               999.7248
 Red. masses --      3.5420                 1.3656                 1.2889
 Frc consts  --      1.8931                 0.7848                 0.7590
 IR Inten    --     51.3486                 2.9068                 0.0113

                     40                     41                     42
                      A                      A                      A
 Frequencies --   1015.4585              1030.1914              1037.2638
 Red. masses --      1.5476                 1.5384                 1.8799
 Frc consts  --      0.9402                 0.9620                 1.1917
 IR Inten    --      2.4232                 0.9284                36.3589

                     43                     44                     45
                      A                      A                      A
 Frequencies --   1046.4221              1065.8331              1089.9639
 Red. masses --      1.4495                 1.6067                 5.7146
 Frc consts  --      0.9352                 1.0754                 4.0000
 IR Inten    --     12.3727                 0.0023                 1.0259

                     46                     47                     48
                      A                      A                      A
 Frequencies --   1119.5990              1150.6502              1164.7186
 Red. masses --      2.0080                 1.3071                 1.8132
 Frc consts  --      1.4830                 1.0196                 1.4492
 IR Inten    --     42.7807                12.5633                 1.2829

                     49                     50                     51
                      A                      A                      A
 Frequencies --   1197.1606              1216.5186              1224.8126
 Red. masses --      3.9252                 1.8283                 2.9927
 Frc consts  --      3.3145                 1.5942                 2.6452
 IR Inten    --     94.1982                 5.6837                 9.4043

                     52                     53                     54
                      A                      A                      A
 Frequencies --   1252.4316              1254.7916              1312.6719
 Red. masses --      5.0792                 1.4920                 2.7536
 Frc consts  --      4.6941                 1.3840                 2.7956
 IR Inten    --      3.0239               186.0817               210.3121

                     55                     56                     57
                      A                      A                      A
 Frequencies --   1357.1104              1363.2049              1398.8637
 Red. masses --     10.3295                 6.9483                 1.6700
 Frc consts  --     11.2089                 7.6076                 1.9254
 IR Inten    --     14.6040                 0.2428               575.6225

                     58                     59                     60
                      A                      A                      A
 Frequencies --   1412.4131              1412.8003              1460.5905
 Red. masses --      1.2657                 1.8565                 2.2540
 Frc consts  --      1.4876                 2.1833                 2.8331
 IR Inten    --     43.9947               540.0568               380.4190

                     61                     62                     63
                      A                      A                      A
 Frequencies --   1466.6986              1468.6117              1481.3005
 Red. masses --      2.5986                 1.0446                 1.2064
 Frc consts  --      3.2937                 1.3274                 1.5597
 IR Inten    --    122.2604                 0.0048                19.7848

                     64                     65                     66
                      A                      A                      A
 Frequencies --   1481.5380              1491.8030              1492.7997
 Red. masses --      1.1416                 1.8090                 3.7436
 Frc consts  --      1.4763                 2.3720                 4.9152
 IR Inten    --     21.7519                11.3112                54.0456

                     67                     68                     69
                      A                      A                      A
 Frequencies --   1499.2198              1517.0770              1548.0954
 Red. masses --      3.2603                 3.3983                 5.1619
 Frc consts  --      4.3176                 4.6081                 7.2888
 IR Inten    --    985.8068                 0.0025                77.4895

                     70                     71                     72
                      A                      A                      A
 Frequencies --   1603.1838              1622.4439              1642.7101
 Red. masses --      8.4707                 5.6648                 6.6320
 Frc consts  --     12.8274                 8.7857                10.5443
 IR Inten    --      5.3704                 4.6491                 1.3878

                     73                     74                     75
                      A                      A                      A
 Frequencies --   3013.7160              3014.7045              3055.8055
 Red. masses --      1.0388                 1.0380                 1.0996
 Frc consts  --      5.5586                 5.5584                 6.0496
 IR Inten    --      9.6134               161.0855                62.2189

                     76                     77                     78
                      A                      A                      A
 Frequencies --   3056.3353              3100.7187              3101.9276
 Red. masses --      1.0997                 1.0995                 1.0992
 Frc consts  --      6.0524                 6.2283                 6.2314
 IR Inten    --      0.4933                66.6690                 3.2826

                     79                     80                     81
                      A                      A                      A
 Frequencies --   3157.4551              3171.3883              3172.5351
 Red. masses --      1.0858                 1.0900                 1.0890
 Frc consts  --      6.3781                 6.4591                 6.4578
 IR Inten    --     13.2449                20.1191                17.9108

                     82                     83                     84
                      A                      A                      A
 Frequencies --   3174.5343              3187.1265              3190.6803
 Red. masses --      1.0893                 1.0918                 1.0946
 Frc consts  --      6.4679                 6.5339                 6.5657
 IR Inten    --     23.8306                19.7880                49.3530

 - Thermochemistry -
 -------------------
 Temperature   298.150 Kelvin.  Pressure   1.00000 Atm.
 Atom     1 has atomic number  6 and mass  12.00000

 Molecular mass:   236.08373 amu.
 Principal axes and moments of inertia in atomic units:
                           1         2         3
     Eigenvalues --  1920.708376352.710098251.19859
           X            0.99450   0.07814   0.06978
           Y           -0.09715   0.93713   0.33518
           Z           -0.03920  -0.34011   0.93957
 This molecule is an asymmetric top.
 Rotational symmetry number  1.
 Warning -- assumption of classical behavior for rotation
           may cause significant error
 Rotational temperatures (Kelvin)      0.04509     0.01363     0.01050
 Rotational constants (GHZ):           0.93962     0.28409     0.21872
 Zero-point vibrational energy     608471.6 (Joules/Mol)
                                  145.42821 (Kcal/Mol)
 Warning -- explicit consideration of  23 degrees of freedom as
           vibrations may cause significant error
 Vibrational temperatures:     68.90   108.62   188.92   191.00   206.24
          (Kelvin)            249.29   260.07   292.60   339.90   398.02
                              418.83   478.50   486.13   524.39   542.50
                              617.83   635.69   672.02   677.83   703.33
                              803.37   808.21   891.57   955.92   957.69
                             1009.67  1018.79  1052.45  1067.42  1082.47
                             1133.90  1153.19  1263.83  1270.12  1318.84
                             1320.17  1370.36  1421.02  1438.38  1461.02
                             1482.22  1492.39  1505.57  1533.50  1568.21
                             1610.85  1655.53  1675.77  1722.45  1750.30
                             1762.23  1801.97  1805.37  1888.64  1952.58
                             1961.35  2012.65  2032.15  2032.70  2101.46
                             2110.25  2113.00  2131.26  2131.60  2146.37
                             2147.81  2157.04  2182.74  2227.36  2306.62
                             2334.33  2363.49  4336.07  4337.49  4396.62
                             4397.38  4461.24  4462.98  4542.87  4562.92
                             4564.57  4567.45  4585.56  4590.68

 Zero-point correction=                           0.231755 (Hartree/Particle)
 Thermal correction to Energy=                    0.246280
 Thermal correction to Enthalpy=                  0.247225
 Thermal correction to Gibbs Free Energy=         0.190120
 Sum of electronic and zero-point Energies=           -767.517618
 Sum of electronic and thermal Energies=              -767.503092
 Sum of electronic and thermal Enthalpies=            -767.502148
 Sum of electronic and thermal Free Energies=         -767.559253

                     E (Thermal)             CV                S
                      KCal/Mol        Cal/Mol-Kelvin    Cal/Mol-Kelvin
 Total                  154.543             58.097            120.186
 Electronic               0.000              0.000              1.377
 Translational            0.889              2.981             42.279
 Rotational               0.889              2.981             32.976
 Vibrational            152.766             52.135             43.554
 Vibration     1          0.595              1.978              4.903
 Vibration     2          0.599              1.965              4.005
 Vibration     3          0.612              1.922              2.927
 Vibration     4          0.613              1.921              2.906
 Vibration     5          0.616              1.910              2.759
 Vibration     6          0.627              1.875              2.400
 Vibration     7          0.630              1.866              2.321
 Vibration     8          0.639              1.835              2.102
 Vibration     9          0.655              1.785              1.831
 Vibration    10          0.678              1.717              1.554
 Vibration    11          0.687              1.690              1.468
 Vibration    12          0.715              1.610              1.248
 Vibration    13          0.718              1.600              1.222
 Vibration    14          0.738              1.545              1.103
 Vibration    15          0.748              1.519              1.051
 Vibration    16          0.791              1.406              0.861
 Vibration    17          0.802              1.379              0.821
 Vibration    18          0.824              1.323              0.746
 Vibration    19          0.828              1.314              0.734
 Vibration    20          0.845              1.275              0.687
 Vibration    21          0.914              1.121              0.527
 Vibration    22          0.917              1.114              0.520
 Vibration    23          0.980              0.990              0.417

 Optimization completed.
    -- Stationary point found.
 Normal termination of Gaussian 16 at Sat Feb 10 17:34:04 2024.
