 Gaussian 16, Revision A.03,
 Gaussian 16:  ES64L-G16RevA.03 25-Dec-2016

 --------------------------------------
 #P UB3LYP/6-311++G(d,p) nosym opt freq
 --------------------------------------

 -------
 Reduced
 -------
 Symbolic Z-matrix:
 Charge = -2 Multiplicity = 1

 SCF Done:  E(UB3LYP) =  -973.723022273     A.U. after   47 cycles
 SCF Done:  E(UB3LYP) =  -973.723515755     A.U. after   35 cycles
 SCF Done:  E(UB3LYP) =  -973.723598312     A.U. after   30 cycles
 SCF Done:  E(UB3LYP) =  -973.724111422     A.U. after   42 cycles
 SCF Done:  E(UB3LYP) =  -973.723663291     A.U. after   30 cycles
 SCF Done:  E(UB3LYP) =  -973.724136825     A.U. after   33 cycles
 SCF Done:  E(UB3LYP) =  -973.723688960     A.U. after   33 cycles
 SCF Done:  E(UB3LYP) =  -973.724141168     A.U. after   36 cycles
 Optimization completed.
    -- Stationary point found.
 Normal termination of Gaussian 16 at Tue Jan  9 21:30:30 2024.

 ----------------------------------------------------------------------
 #P Geom=AllCheck Guess=TCheck SCRF=Check GenChk UB3LYP/6-311++G(d,p) F
 req
 ----------------------------------------------------------------------

 Structure from the checkpoint file:  "337-an.chk"
 -------
 Reduced
 -------
 Charge = -2 Multiplicity = 1

                          Input orientation:
 ---------------------------------------------------------------------
 Center     Atomic      Atomic             Coordinates (Angstroms)
 Number     Number       Type             X           Y           Z
 ---------------------------------------------------------------------
      1          8           0       -0.180251   -2.556618   -0.067710
      2          6           0       -0.102938   -1.287736   -0.169580
      3          6           0       -1.300919   -0.465531   -0.017648
      4          6           0       -2.515435   -1.089080    0.394098
      5          6           0       -3.685988   -0.368569    0.583229
      6          6           0       -3.707786    1.022324    0.420447
      7          6           0       -2.513525    1.672015    0.062854
      8          6           0       -1.351057    0.946796   -0.173890
      9         16           0        0.049709    1.830240   -0.835835
     10          6           0        1.413784    0.758383   -0.422109
     11          6           0        2.686628    1.317732   -0.403875
     12          6           0        3.826899    0.509019   -0.255643
     13          6           0        3.647358   -0.868114   -0.074495
     14          6           0        2.375692   -1.422251   -0.044378
     15          6           0        1.202582   -0.636125   -0.242308
     16          1           0       -2.480293   -2.162319    0.539382
     17          1           0       -4.600247   -0.888711    0.865503
     18          1           0       -4.623856    1.590680    0.561660
     19          1           0       -2.501857    2.752144   -0.061822
     20          1           0        2.798457    2.391036   -0.537592
     21          1           0        4.821497    0.947194   -0.285941
     22          1           0        4.518761   -1.509868    0.047601
     23          1           0        2.222782   -2.482641    0.118054
 ---------------------------------------------------------------------

 SCF Done:  E(UB3LYP) =  -973.724141168     A.U. after   24 cycles

 Alpha  occ. eigenvalues --  -88.63958 -18.81925  -9.98518  -9.98518  -9.97798
 Alpha  occ. eigenvalues --   -9.95624  -9.95624  -9.95279  -9.95278  -9.94905
 Alpha  occ. eigenvalues --   -9.94905  -9.94837  -9.94837  -9.94027  -9.94027
 Alpha  occ. eigenvalues --   -7.72592  -5.68952  -5.68593  -5.68035  -0.73933
 Alpha  occ. eigenvalues --   -0.64766  -0.62931  -0.57678  -0.53344  -0.52754
 Alpha  occ. eigenvalues --   -0.51812  -0.47606  -0.42002  -0.38953  -0.37120
 Alpha  occ. eigenvalues --   -0.35622  -0.31975  -0.30191  -0.25805  -0.23995
 Alpha  occ. eigenvalues --   -0.23862  -0.23334  -0.20846  -0.20135  -0.18735
 Alpha  occ. eigenvalues --   -0.18080  -0.16799  -0.16160  -0.14509  -0.13756
 Alpha  occ. eigenvalues --   -0.13141  -0.11179  -0.11017  -0.10017  -0.08149
 Alpha  occ. eigenvalues --   -0.03929  -0.02563  -0.01940   0.00655   0.00928
 Alpha  occ. eigenvalues --    0.12823
 Alpha virt. eigenvalues --    0.14294   0.14713   0.15982   0.16222   0.17424
 Alpha virt. eigenvalues --    0.18448   0.19601   0.19747   0.20135   0.20737
 Alpha virt. eigenvalues --    0.21496   0.22884   0.23459   0.23537   0.24351

  Beta  occ. eigenvalues --  -88.63958 -18.81925  -9.98518  -9.98518  -9.97798
  Beta  occ. eigenvalues --   -9.95624  -9.95624  -9.95279  -9.95278  -9.94905
  Beta  occ. eigenvalues --   -9.94905  -9.94837  -9.94837  -9.94027  -9.94027
  Beta  occ. eigenvalues --   -7.72592  -5.68952  -5.68593  -5.68035  -0.73933
  Beta  occ. eigenvalues --   -0.64766  -0.62931  -0.57678  -0.53344  -0.52754
  Beta  occ. eigenvalues --   -0.51812  -0.47606  -0.42002  -0.38953  -0.37120
  Beta  occ. eigenvalues --   -0.35622  -0.31975  -0.30191  -0.25805  -0.23995
  Beta  occ. eigenvalues --   -0.23862  -0.23334  -0.20846  -0.20135  -0.18735
  Beta  occ. eigenvalues --   -0.18080  -0.16799  -0.16160  -0.14509  -0.13756
  Beta  occ. eigenvalues --   -0.13141  -0.11179  -0.11017  -0.10017  -0.08149
  Beta  occ. eigenvalues --   -0.03929  -0.02563  -0.01940   0.00655   0.00928
  Beta  occ. eigenvalues --    0.12823
  Beta virt. eigenvalues --    0.14294   0.14713   0.15982   0.16222   0.17424
  Beta virt. eigenvalues --    0.18448   0.19601   0.19747   0.20135   0.20737
  Beta virt. eigenvalues --    0.21496   0.22884   0.23459   0.23537   0.24351

 Mulliken charges and spin densities:
               1          2
     1  O   -0.425600  -0.000000
     2  C    2.894162   0.000003
     3  C   -0.451363  -0.000002
     4  C   -0.180238   0.000000
     5  C    0.353361   0.000000
     6  C    1.840055   0.000001
     7  C   -0.615033   0.000000
     8  C   -0.916091  -0.000001
     9  S   -0.689815  -0.000000
    10  C   -0.921150   0.000000
    11  C   -0.617405  -0.000000
    12  C    1.838115  -0.000001
    13  C    0.353471  -0.000000
    14  C   -0.179683  -0.000000
    15  C   -0.445725  -0.000000
    16  H    0.178769   0.000000
    17  H   -0.529212  -0.000000
    18  H   -1.418008  -0.000000
    19  H   -0.149508  -0.000000
    20  H   -0.149268   0.000000
    21  H   -1.418595   0.000001
    22  H   -0.529692   0.000000
    23  H    0.178454  -0.000000
 Sum of Mulliken charges =  -2.00000  -0.00000

 Dipole moment (field-independent basis, Debye):
    X=              0.0425    Y=             -0.2124    Z=              0.6705  Tot=              0.7046
 Quadrupole moment (field-independent basis, Debye-Ang):
   XX=           -275.1206   YY=           -150.4374   ZZ=           -125.3918
   XY=              8.7832   XZ=             13.7181   YZ=              1.7728

  Exact polarizability:5334.816-252.6342226.438-472.395-347.616 359.811
 Approx polarizability:********-970.9552065.415******** -37.249 485.123

                      1                      2                      3
                      A                      A                      A
 Frequencies --     45.5653               104.9622               141.6170
 Red. masses --      7.4445                 3.8407                 5.3490
 Frc consts  --      0.0091                 0.0249                 0.0632
 IR Inten    --      8.5357                14.8915                14.6993

                      4                      5                      6
                      A                      A                      A
 Frequencies --    188.0398               229.9121               239.1721
 Red. masses --      6.5869                 5.2689                 5.6516
 Frc consts  --      0.1372                 0.1641                 0.1905
 IR Inten    --     18.1063                 0.9249                 5.8999

                      7                      8                      9
                      A                      A                      A
 Frequencies --    311.6403               328.8179               382.0002
 Red. masses --      6.7967                 6.6285                 4.3070
 Frc consts  --      0.3889                 0.4223                 0.3703
 IR Inten    --      3.3709                 9.3618                51.3465

                     10                     11                     12
                      A                      A                      A
 Frequencies --    406.8701               429.8796               440.6922
 Red. masses --      8.0886                 9.5184                 3.3465
 Frc consts  --      0.7889                 1.0363                 0.3829
 IR Inten    --      0.0995                51.3284                93.4625

                     13                     14                     15
                      A                      A                      A
 Frequencies --    462.9127               499.3311               502.4383
 Red. masses --     10.2536                 4.8430                 5.3817
 Frc consts  --      1.2946                 0.7114                 0.8005
 IR Inten    --     12.7716                 4.9848                16.1630

                     16                     17                     18
                      A                      A                      A
 Frequencies --    573.1311               623.6762               628.5021
 Red. masses --      6.4181                 4.9985                 6.9278
 Frc consts  --      1.2421                 1.1455                 1.6123
 IR Inten    --     19.6156                33.5517                 1.3881

                     19                     20                     21
                      A                      A                      A
 Frequencies --    671.4289               693.1848               722.3419
 Red. masses --      6.3634                 4.7472                 6.8014
 Frc consts  --      1.6902                 1.3440                 2.0909
 IR Inten    --      6.1471                19.8258                 2.1382

                     22                     23                     24
                      A                      A                      A
 Frequencies --    722.5012               773.6931               782.6479
 Red. masses --      3.5450                 6.2156                 1.2521
 Frc consts  --      1.0903                 2.1922                 0.4519
 IR Inten    --     43.1837                42.9878                 4.6581

                     25                     26                     27
                      A                      A                      A
 Frequencies --    805.7667               831.0789               836.4622
 Red. masses --      1.4780                 1.3442                 1.3485
 Frc consts  --      0.5654                 0.5470                 0.5559
 IR Inten    --    254.8641                 3.1920               302.2447

                     28                     29                     30
                      A                      A                      A
 Frequencies --    894.2515               896.2361               924.7710
 Red. masses --      1.3035                 1.3078                 6.4693
 Frc consts  --      0.6142                 0.6189                 3.2597
 IR Inten    --     10.3318               408.6066                 1.0272

                     31                     32                     33
                      A                      A                      A
 Frequencies --    961.5876               962.0575              1018.5282
 Red. masses --      1.2744                 1.2712                 4.4102
 Frc consts  --      0.6943                 0.6932                 2.6956
 IR Inten    --     28.0343                70.1554               716.0698

                     34                     35                     36
                      A                      A                      A
 Frequencies --   1024.4162              1052.3762              1065.6402
 Red. masses --      3.0295                 2.4233                 3.9404
 Frc consts  --      1.8732                 1.5813                 2.6364
 IR Inten    --     18.2617                14.1845                54.7817

                     37                     38                     39
                      A                      A                      A
 Frequencies --   1094.7660              1111.8033              1147.3803
 Red. masses --      1.6437                 1.6432                 1.1673
 Frc consts  --      1.1607                 1.1968                 0.9054
 IR Inten    --    228.3390               146.6990               122.5739

                     40                     41                     42
                      A                      A                      A
 Frequencies --   1154.7369              1176.3711              1233.9470
 Red. masses --      1.1255                 3.1397                 1.7803
 Frc consts  --      0.8842                 2.5599                 1.5971
 IR Inten    --    270.8820                51.7280                65.5726

                     43                     44                     45
                      A                      A                      A
 Frequencies --   1251.1774              1281.7566              1333.2658
 Red. masses --      1.7629                 4.2027                 5.8661
 Frc consts  --      1.6260                 4.0681                 6.1437
 IR Inten    --    382.9007                64.9630                12.8484

                     46                     47                     48
                      A                      A                      A
 Frequencies --   1343.3413              1406.2053              1426.2583
 Red. masses --      5.3849                 4.1100                 2.1388
 Frc consts  --      5.7254                 4.7883                 2.5634
 IR Inten    --     15.9077               583.5119               383.6019

                     49                     50                     51
                      A                      A                      A
 Frequencies --   1446.0819              1456.7671              1478.1272
 Red. masses --      2.6844                 2.5665                 3.0621
 Frc consts  --      3.3074                 3.2090                 3.9417
 IR Inten    --    103.6984                 5.4863                89.5754

                     52                     53                     54
                      A                      A                      A
 Frequencies --   1521.3599              1540.6258              1554.1718
 Red. masses --      3.8532                 5.1728                 4.4807
 Frc consts  --      5.2546                 7.2338                 6.3767
 IR Inten    --    116.8650               246.9846               129.9757

                     55                     56                     57
                      A                      A                      A
 Frequencies --   1583.2667              3101.4451              3102.4857
 Red. masses --      5.3995                 1.0862                 1.0863
 Frc consts  --      7.9747                 6.1559                 6.1607
 IR Inten    --    130.2626                51.9878               741.5071

                     58                     59                     60
                      A                      A                      A
 Frequencies --   3122.2146              3122.5343              3137.7707
 Red. masses --      1.0871                 1.0871                 1.0941
 Frc consts  --      6.2436                 6.2451                 6.3467
 IR Inten    --    122.8029               102.8497              1013.8557

                     61                     62                     63
                      A                      A                      A
 Frequencies --   3138.2964              3181.1276              3181.5253
 Red. masses --      1.0942                 1.0893                 1.0896
 Frc consts  --      6.3496                 6.4950                 6.4982
 IR Inten    --    172.1779                10.4879                 6.3020

 - Thermochemistry -
 -------------------
 Temperature   298.150 Kelvin.  Pressure   1.00000 Atm.
 Atom     1 has atomic number  8 and mass  15.99491

 Molecular mass:   212.02959 amu.
 Principal axes and moments of inertia in atomic units:
                           1         2         3
     Eigenvalues --  1520.294594265.004975679.41637
           X            0.99372   0.05278   0.09871
           Y           -0.06769   0.98569   0.15439
           Z           -0.08915  -0.16010   0.98307
 This molecule is an asymmetric top.
 Rotational symmetry number  1.
 Warning -- assumption of classical behavior for rotation
           may cause significant error
 Rotational temperatures (Kelvin)      0.05697     0.02031     0.01525
 Rotational constants (GHZ):           1.18710     0.42315     0.31777
 Zero-point vibrational energy     435482.2 (Joules/Mol)
                                  104.08275 (Kcal/Mol)
 Warning -- explicit consideration of  16 degrees of freedom as
           vibrations may cause significant error
 Vibrational temperatures:     65.56   151.02   203.76   270.55   330.79
          (Kelvin)            344.12   448.38   473.10   549.61   585.40
                              618.50   634.06   666.03   718.43   722.90
                              824.61   897.33   904.27   966.04   997.34
                             1039.29  1039.52  1113.17  1126.06  1159.32
                             1195.74  1203.48  1286.63  1289.48  1330.54
                             1383.51  1384.19  1465.43  1473.91  1514.13
                             1533.22  1575.12  1599.64  1650.82  1661.41
                             1692.54  1775.37  1800.17  1844.16  1918.27
                             1932.77  2023.22  2052.07  2080.59  2095.96
                             2126.70  2188.90  2216.62  2236.11  2277.97
                             4462.29  4463.78  4492.17  4492.63  4514.55
                             4515.31  4576.93  4577.51

 Zero-point correction=                           0.165866 (Hartree/Particle)
 Thermal correction to Energy=                    0.177084
 Thermal correction to Enthalpy=                  0.178029
 Thermal correction to Gibbs Free Energy=         0.128435
 Sum of electronic and zero-point Energies=           -973.558275
 Sum of electronic and thermal Energies=              -973.547057
 Sum of electronic and thermal Enthalpies=            -973.546112
 Sum of electronic and thermal Free Energies=         -973.595706

                     E (Thermal)             CV                S
                      KCal/Mol        Cal/Mol-Kelvin    Cal/Mol-Kelvin
 Total                  111.122             46.037            104.379
 Electronic               0.000              0.000              0.000
 Translational            0.889              2.981             41.958
 Rotational               0.889              2.981             31.977
 Vibrational            109.345             40.076             30.444
 Vibration     1          0.595              1.979              5.001
 Vibration     2          0.605              1.945              3.360
 Vibration     3          0.615              1.912              2.782
 Vibration     4          0.633              1.856              2.247
 Vibration     5          0.652              1.795              1.880
 Vibration     6          0.657              1.781              1.809
 Vibration     7          0.700              1.652              1.354
 Vibration     8          0.712              1.618              1.266
 Vibration     9          0.751              1.509              1.031
 Vibration    10          0.772              1.455              0.938
 Vibration    11          0.791              1.405              0.859
 Vibration    12          0.801              1.381              0.824
 Vibration    13          0.821              1.332              0.758
 Vibration    14          0.855              1.251              0.660
 Vibration    15          0.858              1.245              0.652
 Vibration    16          0.929              1.089              0.498

                           ! Non-Optimized Parameters !
 Normal termination of Gaussian 16 at Tue Jan  9 22:04:54 2024.
