 Q-Chem 5.4, Q-Chem, Inc., Pleasanton, CA (2021)
 Q-Chem 5.4.0 for Intel X86 EM64T Linux

User input:
--------------------------------------------------------------
$molecule
-2 1
O                 -0.1802510000     -2.5566180000     -0.0677100000
C                 -0.1029380000     -1.2877360000     -0.1695800000
C                 -1.3009190000     -0.4655310000     -0.0176480000
C                 -2.5154350000     -1.0890800000      0.3940980000
C                 -3.6859880000     -0.3685690000      0.5832290000
C                 -3.7077860000      1.0223240000      0.4204470000
C                 -2.5135250000      1.6720150000      0.0628540000
C                 -1.3510570000      0.9467960000     -0.1738900000
S                  0.0497090000      1.8302400000     -0.8358350000
C                  1.4137840000      0.7583830000     -0.4221090000
C                  2.6866280000      1.3177320000     -0.4038750000
C                  3.8268990000      0.5090190000     -0.2556430000
C                  3.6473580000     -0.8681140000     -0.0744950000
C                  2.3756920000     -1.4222510000     -0.0443780000
C                  1.2025820000     -0.6361250000     -0.2423080000
H                 -2.4802930000     -2.1623190000      0.5393820000
H                 -4.6002470000     -0.8887110000      0.8655030000
H                 -4.6238560000      1.5906800000      0.5616600000
H                 -2.5018570000      2.7521440000     -0.0618220000
H                  2.7984570000      2.3910360000     -0.5375920000
H                  4.8214970000      0.9471940000     -0.2859410000
H                  4.5187610000     -1.5098680000      0.0476010000
H                  2.2227820000     -2.4826410000      0.1180540000
$end

$rem
BASIS  =  6-311++G(d,p)
GUI  =  2
JOB_TYPE  =  SP
METHOD  =  B3LYP
THRESH = 14
SCF_CONVERGENCE  = 5
SOLVENT_METHOD = sm12
$end

$smx
solvent dimethylformamide
charges CM5
$end

--------------------------------------------------------------

             Standard Nuclear Orientation (Angstroms)
    I     Atom           X                Y                Z
 ----------------------------------------------------------------
    1      O      -0.1802510000    -2.5566180000    -0.0677100000
    2      C      -0.1029380000    -1.2877360000    -0.1695800000
    3      C      -1.3009190000    -0.4655310000    -0.0176480000
    4      C      -2.5154350000    -1.0890800000     0.3940980000
    5      C      -3.6859880000    -0.3685690000     0.5832290000
    6      C      -3.7077860000     1.0223240000     0.4204470000
    7      C      -2.5135250000     1.6720150000     0.0628540000
    8      C      -1.3510570000     0.9467960000    -0.1738900000
    9      S       0.0497090000     1.8302400000    -0.8358350000
   10      C       1.4137840000     0.7583830000    -0.4221090000
   11      C       2.6866280000     1.3177320000    -0.4038750000
   12      C       3.8268990000     0.5090190000    -0.2556430000
   13      C       3.6473580000    -0.8681140000    -0.0744950000
   14      C       2.3756920000    -1.4222510000    -0.0443780000
   15      C       1.2025820000    -0.6361250000    -0.2423080000
   16      H      -2.4802930000    -2.1623190000     0.5393820000
   17      H      -4.6002470000    -0.8887110000     0.8655030000
   18      H      -4.6238560000     1.5906800000     0.5616600000
   19      H      -2.5018570000     2.7521440000    -0.0618220000
   20      H       2.7984570000     2.3910360000    -0.5375920000
   21      H       4.8214970000     0.9471940000    -0.2859410000
   22      H       4.5187610000    -1.5098680000     0.0476010000
   23      H       2.2227820000    -2.4826410000     0.1180540000
 ----------------------------------------------------------------

   46    -973.7007363486      5.19e-06  Convergence criterion met
 Total energy in the final basis set =     -973.9996019477

                    Orbital Energies (a.u.)
 --------------------------------------------------------------

 Alpha MOs
 -- Occupied --
-88.9019 -19.0834 -10.2475 -10.2474 -10.2426 -10.2186 -10.2186 -10.2180
-10.2179 -10.2159 -10.2158 -10.2136 -10.2135 -10.2066 -10.2066  -7.9865
 -5.9500  -5.9466  -5.9408  -1.0027  -0.9121  -0.8940  -0.8413  -0.7980
 -0.7915  -0.7834  -0.7397  -0.6853  -0.6541  -0.6357  -0.6206  -0.5840
 -0.5658  -0.5216  -0.5053  -0.5024  -0.4969  -0.4716  -0.4646  -0.4518
 -0.4455  -0.4314  -0.4251  -0.4107  -0.3991  -0.3959  -0.3757  -0.3737
 -0.3628  -0.3435  -0.3049  -0.2926  -0.2844  -0.2566  -0.2506  -0.1388

          Ground-State Mulliken Net Atomic Charges

     Atom                 Charge (a.u.)
  ----------------------------------------
      1 O                    -0.459680
      2 C                     2.537148
      3 C                    -2.583913
      4 C                    -1.391509
      5 C                     0.708360
      6 C                     2.317963
      7 C                     1.115171
      8 C                    -0.819130
      9 S                     0.694635
     10 C                    -0.851134
     11 C                     1.135021
     12 C                     2.333100
     13 C                     0.697021
     14 C                    -1.317912
     15 C                    -2.671435
     16 H                    -1.493324
     17 H                    -1.214170
     18 H                     0.624735
     19 H                     0.366097
     20 H                     0.365704
     21 H                     0.624836
     22 H                    -1.202332
     23 H                    -1.515254
  ----------------------------------------
  Sum of atomic charges =    -2.000000

                    Cartesian Multipole Moments
 -----------------------------------------------------------------
    Charge (ESU x 10^10)
                -9.6064
    Dipole Moment (Debye)
         X       0.9661      Y      17.3755      Z      -2.7244
       Tot      17.6143
    Quadrupole Moments (Debye-Ang)
        XX    -211.8306     XY       3.8058     YY    -172.4840
        XZ       8.2757     YZ      11.2870     ZZ    -129.4971

 Total job time:  1220.07s(wall), 9602.39s(cpu)
        *  Thank you very much for using Q-Chem.  Have a nice day.  *
