 Q-Chem 5.4, Q-Chem, Inc., Pleasanton, CA (2021)
 Q-Chem 5.4.0 for Intel X86 EM64T Linux

User input:
--------------------------------------------------------------
$molecule
-1 2
O                 -0.0584500000     -1.1909850000      1.2563240000
C                 -0.4632240000     -0.3854230000      0.3703310000
C                 -1.9535960000     -0.2429600000      0.2061840000
C                 -2.7545620000     -1.0279340000      1.0629020000
C                 -4.1424680000     -0.9851150000      1.0084690000
C                 -4.7880980000     -0.1517730000      0.0909750000
C                 -4.0136480000      0.6320860000     -0.7646330000
C                 -2.6202950000      0.5927680000     -0.7140900000
C                  0.4634470000      0.3851760000     -0.4702420000
O                  0.0587240000      1.1909250000     -1.3561760000
C                  1.9536220000      0.2428820000     -0.3064190000
C                  2.7543060000      1.0282360000     -1.1630160000
C                  4.1421840000      0.9855480000     -1.1089110000
C                  4.7880180000      0.1518880000     -0.1918240000
C                  4.0138850000     -0.6324490000      0.6637500000
C                  2.6205150000     -0.5931600000      0.6134470000
H                 -2.2426080000     -1.6696370000      1.7694550000
H                 -4.7269180000     -1.6039500000      1.6840610000
H                 -5.8725320000     -0.1154630000      0.0453470000
H                 -4.4982000000      1.2861370000     -1.4845820000
H                 -2.0254490000      1.2012160000     -1.3783640000
H                  2.2420500000      1.6701280000     -1.8692440000
H                  4.7264330000      1.6046950000     -1.7843990000
H                  5.8724410000      0.1156940000     -0.1464740000
H                  4.4986000000     -1.2867130000      1.3833290000
H                  2.0258230000     -1.2018180000      1.2775870000
$end
$rem
MAX_SCF_CYCLES=200
BASIS  =  6-311++G(d,p)
GUI  =  2
JOB_TYPE  =  SP
METHOD  =  B3LYP
SOLVENT_METHOD = PCM
$end
$pcm
theory = CPCM
$end
$solvent
dielectric 37.219
opticaldielectric 1.43
$end

--------------------------------------------------------------

             Standard Nuclear Orientation (Angstroms)
    I     Atom           X                Y                Z
 ----------------------------------------------------------------
    1      O      -0.0584500000    -1.1909850000     1.2563240000
    2      C      -0.4632240000    -0.3854230000     0.3703310000
    3      C      -1.9535960000    -0.2429600000     0.2061840000
    4      C      -2.7545620000    -1.0279340000     1.0629020000
    5      C      -4.1424680000    -0.9851150000     1.0084690000
    6      C      -4.7880980000    -0.1517730000     0.0909750000
    7      C      -4.0136480000     0.6320860000    -0.7646330000
    8      C      -2.6202950000     0.5927680000    -0.7140900000
    9      C       0.4634470000     0.3851760000    -0.4702420000
   10      O       0.0587240000     1.1909250000    -1.3561760000
   11      C       1.9536220000     0.2428820000    -0.3064190000
   12      C       2.7543060000     1.0282360000    -1.1630160000
   13      C       4.1421840000     0.9855480000    -1.1089110000
   14      C       4.7880180000     0.1518880000    -0.1918240000
   15      C       4.0138850000    -0.6324490000     0.6637500000
   16      C       2.6205150000    -0.5931600000     0.6134470000
   17      H      -2.2426080000    -1.6696370000     1.7694550000
   18      H      -4.7269180000    -1.6039500000     1.6840610000
   19      H      -5.8725320000    -0.1154630000     0.0453470000
   20      H      -4.4982000000     1.2861370000    -1.4845820000
   21      H      -2.0254490000     1.2012160000    -1.3783640000
   22      H       2.2420500000     1.6701280000    -1.8692440000
   23      H       4.7264330000     1.6046950000    -1.7843990000
   24      H       5.8724410000     0.1156940000    -0.1464740000
   25      H       4.4986000000    -1.2867130000     1.3833290000
   26      H       2.0258230000    -1.2018180000     1.2775870000
 ----------------------------------------------------------------

    8    -690.2709922037      5.22e-06  Convergence criterion met
 Total energy in the final basis set =     -690.2709922037

                    Orbital Energies (a.u.)
 --------------------------------------------------------------

 Alpha MOs
 -- Occupied --
-19.0726 -19.0725 -10.2183 -10.2180 -10.1721 -10.1721 -10.1693 -10.1693
-10.1681 -10.1681 -10.1673 -10.1673 -10.1634 -10.1633 -10.1621 -10.1621
 -1.0068  -0.9897  -0.8495  -0.8477  -0.7500  -0.7495  -0.7395  -0.7384
 -0.6685  -0.6167  -0.6021  -0.5937  -0.5761  -0.5370  -0.5090  -0.4782
 -0.4695  -0.4480  -0.4375  -0.4369  -0.4271  -0.4152  -0.4146  -0.4079
 -0.4066  -0.3928  -0.3732  -0.3549  -0.3535  -0.3433  -0.3405  -0.3331
 -0.3307  -0.2637  -0.2569  -0.2528  -0.2512  -0.2502  -0.2167  -0.1472

 Beta MOs
 -- Occupied --
-19.0660 -19.0659 -10.2156 -10.2153 -10.1726 -10.1726 -10.1688 -10.1687
-10.1682 -10.1682 -10.1675 -10.1675 -10.1627 -10.1627 -10.1615 -10.1615
 -0.9948  -0.9774  -0.8488  -0.8468  -0.7489  -0.7465  -0.7389  -0.7377
 -0.6567  -0.6140  -0.6016  -0.5933  -0.5734  -0.5355  -0.5082  -0.4754
 -0.4678  -0.4456  -0.4365  -0.4362  -0.4239  -0.4142  -0.4066  -0.4055
 -0.3940  -0.3876  -0.3688  -0.3525  -0.3453  -0.3411  -0.3328  -0.3301
 -0.3107  -0.2577  -0.2524  -0.2509  -0.2461  -0.2406  -0.2106

          Ground-State Mulliken Net Atomic Charges

     Atom                 Charge (a.u.)    Spin (a.u.)
  --------------------------------------------------------
      1 O                    -0.437201       0.252693
      2 C                    -0.350242       0.200452
      3 C                     1.572703      -0.072187
      4 C                     0.396796       0.079972
      5 C                    -0.331700      -0.023391
      6 C                    -0.510036       0.058322
      7 C                    -0.436043      -0.030261
      8 C                    -1.348333       0.047304
      9 C                    -0.350051       0.200520
     10 O                    -0.437236       0.252753
     11 C                     1.569658      -0.072162
     12 C                     0.396900       0.080040
     13 C                    -0.332963      -0.023410
     14 C                    -0.508900       0.058368
     15 C                    -0.435291      -0.030295
     16 C                    -1.346718       0.047371
     17 H                     0.181654      -0.005934
     18 H                     0.202097       0.001247
     19 H                     0.179430      -0.003829
     20 H                     0.213232       0.001057
     21 H                     0.167917      -0.005581
     22 H                     0.181678      -0.005939
     23 H                     0.202067       0.001249
     24 H                     0.179450      -0.003833
     25 H                     0.213150       0.001057
     26 H                     0.167982      -0.005583
  --------------------------------------------------------
  Sum of atomic charges =    -1.000000

                    Cartesian Multipole Moments
 -----------------------------------------------------------------
    Charge (ESU x 10^10)
                -4.8032
    Dipole Moment (Debye)
         X      -0.0012      Y      -0.0001      Z       0.2400
       Tot       0.2400
    Quadrupole Moments (Debye-Ang)
        XX     -95.4604     XY      -0.3426     YY    -104.2713
        XZ       0.4141     YZ       1.6747     ZZ    -104.6027

 Total job time:  55.11s(wall), 308.75s(cpu)
        *  Thank you very much for using Q-Chem.  Have a nice day.  *
