 Q-Chem 5.4, Q-Chem, Inc., Pleasanton, CA (2021)
 Q-Chem 5.4.0 for Intel X86 EM64T Linux

User input:
--------------------------------------------------------------
$molecule
-2 1
C                  4.6170820000      1.3055920000     -0.5064440000
C                  3.3046060000      0.6141260000     -0.2277920000
C                  3.3039920000     -0.6636420000      0.3908020000
C                  2.1134000000     -1.3280020000      0.6674470000
O                  2.2008350000     -2.5480220000      1.3138870000
C                  0.8437420000     -0.7925010000      0.3125530000
C                 -0.4079710000     -1.5249570000      0.5449210000
O                 -0.4359640000     -2.7183730000      0.9381260000
C                 -1.6369680000     -0.7642230000      0.2576330000
C                 -2.9307670000     -1.2758440000      0.5451670000
O                 -3.0769810000     -2.5013160000      1.1665370000
C                 -4.1001470000     -0.5792590000      0.2377060000
C                 -4.0103560000      0.6882720000     -0.3693660000
O                 -5.2194100000      1.3387620000     -0.6547540000
C                 -2.7952500000      1.2405530000     -0.6583980000
C                 -1.5872290000      0.5478970000     -0.3528380000
C                 -0.3521440000      1.2165960000     -0.6742190000
O                 -0.3402260000      2.3770280000     -1.2366820000
C                  0.8551410000      0.5221390000     -0.3004950000
C                  2.0936500000      1.1798850000     -0.5468070000
H                  5.2136390000      1.4461920000      0.4116760000
H                  4.4582940000      2.2909050000     -0.9551310000
H                  5.2464520000      0.7257700000     -1.1922380000
H                  4.2487880000     -1.1474490000      0.6406810000
H                  3.1165970000     -2.6171200000      1.6094840000
H                 -4.0135070000     -2.5749040000      1.3823240000
H                 -5.0749890000     -1.0098300000      0.4539230000
H                 -4.9776990000      2.1713330000     -1.0732720000
H                 -2.6868990000      2.2189040000     -1.1204030000
H                  2.0302880000      2.1614910000     -1.0040260000
$end
$rem
MAX_SCF_CYCLES=200
BASIS  =  6-311++G(d,p)
GUI  =  2
JOB_TYPE  =  SP
METHOD  =  B3LYP
SOLVENT_METHOD = PCM
$end
$pcm
theory = CPCM
$end
$solvent
dielectric 37.219
opticaldielectric 1.43
$end

--------------------------------------------------------------

             Standard Nuclear Orientation (Angstroms)
    I     Atom           X                Y                Z
 ----------------------------------------------------------------
    1      C       4.6170820000     1.3055920000    -0.5064440000
    2      C       3.3046060000     0.6141260000    -0.2277920000
    3      C       3.3039920000    -0.6636420000     0.3908020000
    4      C       2.1134000000    -1.3280020000     0.6674470000
    5      O       2.2008350000    -2.5480220000     1.3138870000
    6      C       0.8437420000    -0.7925010000     0.3125530000
    7      C      -0.4079710000    -1.5249570000     0.5449210000
    8      O      -0.4359640000    -2.7183730000     0.9381260000
    9      C      -1.6369680000    -0.7642230000     0.2576330000
   10      C      -2.9307670000    -1.2758440000     0.5451670000
   11      O      -3.0769810000    -2.5013160000     1.1665370000
   12      C      -4.1001470000    -0.5792590000     0.2377060000
   13      C      -4.0103560000     0.6882720000    -0.3693660000
   14      O      -5.2194100000     1.3387620000    -0.6547540000
   15      C      -2.7952500000     1.2405530000    -0.6583980000
   16      C      -1.5872290000     0.5478970000    -0.3528380000
   17      C      -0.3521440000     1.2165960000    -0.6742190000
   18      O      -0.3402260000     2.3770280000    -1.2366820000
   19      C       0.8551410000     0.5221390000    -0.3004950000
   20      C       2.0936500000     1.1798850000    -0.5468070000
   21      H       5.2136390000     1.4461920000     0.4116760000
   22      H       4.4582940000     2.2909050000    -0.9551310000
   23      H       5.2464520000     0.7257700000    -1.1922380000
   24      H       4.2487880000    -1.1474490000     0.6406810000
   25      H       3.1165970000    -2.6171200000     1.6094840000
   26      H      -4.0135070000    -2.5749040000     1.3823240000
   27      H      -5.0749890000    -1.0098300000     0.4539230000
   28      H      -4.9776990000     2.1713330000    -1.0732720000
   29      H      -2.6868990000     2.2189040000    -1.1204030000
   30      H       2.0302880000     2.1614910000    -1.0040260000
 ----------------------------------------------------------------

    9    -954.2591209696      6.32e-06  Convergence criterion met
 Total energy in the final basis set =     -954.2591209696

                    Orbital Energies (a.u.)
 --------------------------------------------------------------

 Alpha MOs
 -- Occupied --
-19.1393 -19.1357 -19.1322 -19.0238 -19.0136 -10.2222 -10.2151 -10.2125
-10.1916 -10.1632 -10.1573 -10.1519 -10.1441 -10.1415 -10.1394 -10.1391
-10.1377 -10.1354 -10.1331 -10.1308  -1.0460  -1.0417  -1.0406  -0.9558
 -0.9325  -0.8268  -0.8201  -0.7613  -0.7292  -0.7176  -0.7103  -0.6747
 -0.6355  -0.6159  -0.5931  -0.5766  -0.5519  -0.5338  -0.5169  -0.4789
 -0.4749  -0.4717  -0.4456  -0.4356  -0.4259  -0.4111  -0.4076  -0.4044
 -0.3942  -0.3890  -0.3864  -0.3827  -0.3761  -0.3675  -0.3560  -0.3532
 -0.3513  -0.3481  -0.3331  -0.3243  -0.3188  -0.3141  -0.2989  -0.2760
 -0.2215  -0.2138  -0.2061  -0.2042  -0.1990  -0.1912  -0.1011

          Ground-State Mulliken Net Atomic Charges

     Atom                 Charge (a.u.)
  ----------------------------------------
      1 C                    -0.369393
      2 C                     0.314067
      3 C                    -0.243217
      4 C                    -0.111524
      5 O                    -0.273884
      6 C                     0.004878
      7 C                    -0.219310
      8 O                    -0.612111
      9 C                    -0.097222
     10 C                    -0.111585
     11 O                    -0.264620
     12 C                    -0.058703
     13 C                    -0.723283
     14 O                    -0.343404
     15 C                     0.074133
     16 C                     0.606049
     17 C                    -0.484686
     18 O                    -0.709417
     19 C                     0.130894
     20 C                    -0.485457
     21 H                     0.156155
     22 H                     0.161873
     23 H                     0.162113
     24 H                     0.148996
     25 H                     0.300143
     26 H                     0.305167
     27 H                     0.184139
     28 H                     0.312531
     29 H                     0.139013
     30 H                     0.107663
  ----------------------------------------
  Sum of atomic charges =    -2.000000

                    Cartesian Multipole Moments
 -----------------------------------------------------------------
    Charge (ESU x 10^10)
                -9.6064
    Dipole Moment (Debye)
         X       5.2715      Y       1.6300      Z       1.4633
       Tot       5.7085
    Quadrupole Moments (Debye-Ang)
        XX    -134.6630     XY      -3.3049     YY    -171.0241
        XZ       1.2951     YZ      15.8812     ZZ    -133.8022

 Total job time:  112.15s(wall), 441.84s(cpu)
        *  Thank you very much for using Q-Chem.  Have a nice day.  *
