 Gaussian 16, Revision A.03,
 Gaussian 16:  ES64L-G16RevA.03 25-Dec-2016

 ----------------------------------------------------------------
 #P UB3LYP/6-311++G(d,p) SCRF=(PCM,Solvent=n,n-DiMethylFormamide)
 ----------------------------------------------------------------

 -------
 Reduced
 -------
 Symbolic Z-matrix:
 Charge = -2 Multiplicity = 1

                         Standard orientation:
 ---------------------------------------------------------------------
 Center     Atomic      Atomic             Coordinates (Angstroms)
 Number     Number       Type             X           Y           Z
 ---------------------------------------------------------------------
      1          6           0       -4.969687   -1.642472    0.051615
      2          6           0       -3.664625   -0.884338    0.031266
      3          6           0       -3.679169    0.535073    0.051529
      4          6           0       -2.495849    1.266519    0.039010
      5          8           0       -2.598740    2.644447    0.107611
      6          6           0       -1.218336    0.644517   -0.037257
      7          6           0        0.026670    1.419596   -0.117778
      8          8           0        0.043806    2.667583   -0.265667
      9          6           0        1.263037    0.621636   -0.038161
     10          6           0        2.549840    1.220350    0.025300
     11          8           0        2.680990    2.595067    0.072356
     12          6           0        3.726756    0.471372    0.058628
     13          6           0        3.651898   -0.934826    0.043150
     14          8           0        4.867940   -1.632287    0.077580
     15          6           0        2.443932   -1.570197   -0.003306
     16          6           0        1.228428   -0.825986   -0.037271
     17          6           0        0.001437   -1.580740   -0.064114
     18          8           0        0.003298   -2.870211   -0.083296
     19          6           0       -1.214558   -0.806077   -0.037065
     20          6           0       -2.446351   -1.519209   -0.000570
     21          1           0       -5.582135   -1.388046    0.934093
     22          1           0       -4.799744   -2.723370    0.064022
     23          1           0       -5.588525   -1.413495   -0.824297
     24          1           0       -4.629828    1.069240    0.059332
     25          1           0       -3.519864    2.822428    0.332612
     26          1           0        3.613262    2.762765    0.250697
     27          1           0        4.696191    0.963155    0.086994
     28          1           0        4.636422   -2.566207    0.046785
     29          1           0        2.346996   -2.653211   -0.009884
     30          1           0       -2.371678   -2.601353    0.001119
 ---------------------------------------------------------------------

 SCF Done:  E(UB3LYP) =  -954.245597886     A.U. after   19 cycles

 The electronic state is 1-A.
 Alpha  occ. eigenvalues --  -19.14032 -19.13613 -19.13248 -19.01928 -19.00786
 Alpha  occ. eigenvalues --  -10.22119 -10.21385 -10.21156 -10.18802 -10.15924
 Alpha  occ. eigenvalues --  -10.15594 -10.15375 -10.14407 -10.13908 -10.13716
 Alpha  occ. eigenvalues --  -10.13675 -10.13628 -10.13239 -10.13188 -10.12901
 Alpha  occ. eigenvalues --   -1.04633  -1.04179  -1.04163  -0.95092  -0.92667
 Alpha  occ. eigenvalues --   -0.82486  -0.81865  -0.75970  -0.72817  -0.71611
 Alpha  occ. eigenvalues --   -0.70862  -0.67433  -0.63366  -0.61500  -0.59211
 Alpha  occ. eigenvalues --   -0.57616  -0.55154  -0.53242  -0.51602  -0.47871
 Alpha  occ. eigenvalues --   -0.47393  -0.47081  -0.44307  -0.43404  -0.42508
 Alpha  occ. eigenvalues --   -0.41020  -0.40642  -0.40452  -0.39377  -0.38738
 Alpha  occ. eigenvalues --   -0.38517  -0.38235  -0.37568  -0.36336  -0.35405
 Alpha  occ. eigenvalues --   -0.35131  -0.34994  -0.34615  -0.33166  -0.31988
 Alpha  occ. eigenvalues --   -0.31681  -0.31072  -0.29736  -0.27359  -0.21790
 Alpha  occ. eigenvalues --   -0.21216  -0.20375  -0.20238  -0.19306  -0.18604
 Alpha  occ. eigenvalues --   -0.09725
 Alpha virt. eigenvalues --   -0.01237  -0.00247   0.00211   0.00481   0.00963
 Alpha virt. eigenvalues --    0.01556   0.02342   0.03205   0.03717   0.04065
 Alpha virt. eigenvalues --    0.04212   0.04404   0.05397   0.05674   0.06319

  Beta  occ. eigenvalues --  -19.14032 -19.13613 -19.13248 -19.01928 -19.00786
  Beta  occ. eigenvalues --  -10.22119 -10.21385 -10.21156 -10.18802 -10.15924
  Beta  occ. eigenvalues --  -10.15594 -10.15375 -10.14407 -10.13908 -10.13716
  Beta  occ. eigenvalues --  -10.13675 -10.13628 -10.13239 -10.13188 -10.12901
  Beta  occ. eigenvalues --   -1.04633  -1.04179  -1.04163  -0.95092  -0.92667
  Beta  occ. eigenvalues --   -0.82486  -0.81865  -0.75970  -0.72817  -0.71611
  Beta  occ. eigenvalues --   -0.70862  -0.67433  -0.63366  -0.61500  -0.59211
  Beta  occ. eigenvalues --   -0.57616  -0.55154  -0.53242  -0.51602  -0.47871
  Beta  occ. eigenvalues --   -0.47393  -0.47081  -0.44307  -0.43404  -0.42508
  Beta  occ. eigenvalues --   -0.41020  -0.40642  -0.40452  -0.39377  -0.38738
  Beta  occ. eigenvalues --   -0.38517  -0.38235  -0.37568  -0.36336  -0.35405
  Beta  occ. eigenvalues --   -0.35131  -0.34994  -0.34615  -0.33166  -0.31988
  Beta  occ. eigenvalues --   -0.31681  -0.31072  -0.29736  -0.27359  -0.21790
  Beta  occ. eigenvalues --   -0.21216  -0.20375  -0.20238  -0.19306  -0.18604
  Beta  occ. eigenvalues --   -0.09725
  Beta virt. eigenvalues --   -0.01237  -0.00247   0.00211   0.00481   0.00963
  Beta virt. eigenvalues --    0.01556   0.02342   0.03205   0.03717   0.04065
  Beta virt. eigenvalues --    0.04212   0.04404   0.05397   0.05674   0.06319

 Mulliken charges and spin densities:
               1          2
     1  C   -0.351750  -0.000000
     2  C    0.331428  -0.000000
     3  C   -0.267075  -0.000000
     4  C   -0.090731   0.000000
     5  O   -0.251965   0.000000
     6  C    0.028511   0.000000
     7  C   -0.263289   0.000000
     8  O   -0.586286   0.000000
     9  C   -0.075547  -0.000000
    10  C   -0.094708  -0.000000
    11  O   -0.242317   0.000000
    12  C   -0.053403   0.000000
    13  C   -0.690729  -0.000000
    14  O   -0.327776  -0.000000
    15  C    0.045438   0.000000
    16  C    0.626275   0.000000
    17  C   -0.551643  -0.000000
    18  O   -0.678422   0.000000
    19  C    0.146143   0.000000
    20  C   -0.489956   0.000000
    21  H    0.148087   0.000000
    22  H    0.154509   0.000000
    23  H    0.154225   0.000000
    24  H    0.122058  -0.000000
    25  H    0.279606   0.000000
    26  H    0.284124   0.000000
    27  H    0.159425   0.000000
    28  H    0.293862  -0.000000
    29  H    0.133210  -0.000000
    30  H    0.108698  -0.000000
 Sum of Mulliken charges =  -2.00000  -0.00000

 Dipole moment (field-independent basis, Debye):
    X=             -1.7155    Y=              0.9744    Z=              1.5906  Tot=              2.5342
 Quadrupole moment (field-independent basis, Debye-Ang):
   XX=           -136.8234   YY=           -176.4338   ZZ=           -128.3183
   XY=             -2.1808   XZ=             -0.6253   YZ=              3.5047

 Normal termination of Gaussian 16 at Tue Jan 16 06:23:58 2024.
