 Gaussian 16, Revision A.03,
 Gaussian 16:  ES64L-G16RevA.03 25-Dec-2016

 --------------------------------------
 #P UB3LYP/6-311++G(d,p) nosym opt freq
 --------------------------------------

 -------
 Reduced
 -------
 Symbolic Z-matrix:
 Charge = -2 Multiplicity = 1

 SCF Done:  E(UB3LYP) =  -1300.76953061     A.U. after   25 cycles
 SCF Done:  E(UB3LYP) =  -1300.80478901     A.U. after   21 cycles
 SCF Done:  E(UB3LYP) =  -1300.81244456     A.U. after   21 cycles
 SCF Done:  E(UB3LYP) =  -1300.81289947     A.U. after   14 cycles
 SCF Done:  E(UB3LYP) =  -1300.81301418     A.U. after   18 cycles
 SCF Done:  E(UB3LYP) =  -1300.81302498     A.U. after   13 cycles
 SCF Done:  E(UB3LYP) =  -1300.81302667     A.U. after   17 cycles
 Optimization completed.
    -- Stationary point found.
 Normal termination of Gaussian 16 at Sun Dec 17 21:00:47 2023.

 ----------------------------------------------------------------------
 #P Geom=AllCheck Guess=TCheck SCRF=Check GenChk UB3LYP/6-311++G(d,p) F
 req
 ----------------------------------------------------------------------

 Structure from the checkpoint file:  "010-an.chk"
 -------
 Reduced
 -------
 Charge = -2 Multiplicity = 1

                          Input orientation:
 ---------------------------------------------------------------------
 Center     Atomic      Atomic             Coordinates (Angstroms)
 Number     Number       Type             X           Y           Z
 ---------------------------------------------------------------------
      1         17           0       -3.104882    0.651336    0.106215
      2          6           0       -1.312860    0.322336    0.044872
      3          6           0       -0.924880   -1.015930    0.032619
      4          6           0        0.442400   -1.456842   -0.014009
      5          8           0        0.795182   -2.697027   -0.025307
      6          6           0        1.312821   -0.322326   -0.044870
      7          6           0        0.924874    1.015931   -0.032618
      8          6           0       -0.442412    1.456815    0.014014
      9          8           0       -0.795177    2.697035    0.025307
     10         17           0        3.104937   -0.651319   -0.106222
     11          1           0       -1.680563   -1.794841    0.059244
     12          1           0        1.680561    1.794832   -0.059245
 ---------------------------------------------------------------------

 SCF Done:  E(UB3LYP) =  -1300.81302667     A.U. after    3 cycles

 Alpha  occ. eigenvalues -- -101.27259-101.27258 -18.74885 -18.74885  -9.92618
 Alpha  occ. eigenvalues --   -9.92617  -9.92017  -9.92016  -9.87611  -9.87610
 Alpha  occ. eigenvalues --   -9.18664  -9.18663  -6.95025  -6.95024  -6.94221
 Alpha  occ. eigenvalues --   -6.94220  -6.94175  -6.94174  -0.66759  -0.66271
 Alpha  occ. eigenvalues --   -0.57674  -0.56974  -0.50752  -0.42867  -0.39016
 Alpha  occ. eigenvalues --   -0.30849  -0.26557  -0.18704  -0.17628  -0.15871
 Alpha  occ. eigenvalues --   -0.12795  -0.11536  -0.09185  -0.08060  -0.07981
 Alpha  occ. eigenvalues --   -0.07758  -0.04564  -0.04061  -0.03797  -0.03580
 Alpha  occ. eigenvalues --    0.04015   0.04733   0.06916   0.07100   0.14249
 Alpha virt. eigenvalues --    0.20987   0.21065   0.22720   0.23376   0.26084
 Alpha virt. eigenvalues --    0.27580   0.28198   0.28641   0.29365   0.29371
 Alpha virt. eigenvalues --    0.30050   0.30498   0.31065   0.32631   0.32916

  Beta  occ. eigenvalues -- -101.27259-101.27258 -18.74885 -18.74885  -9.92618
  Beta  occ. eigenvalues --   -9.92617  -9.92017  -9.92016  -9.87611  -9.87610
  Beta  occ. eigenvalues --   -9.18664  -9.18663  -6.95025  -6.95024  -6.94221
  Beta  occ. eigenvalues --   -6.94220  -6.94175  -6.94174  -0.66759  -0.66271
  Beta  occ. eigenvalues --   -0.57674  -0.56974  -0.50752  -0.42867  -0.39016
  Beta  occ. eigenvalues --   -0.30849  -0.26557  -0.18704  -0.17628  -0.15871
  Beta  occ. eigenvalues --   -0.12795  -0.11536  -0.09185  -0.08060  -0.07981
  Beta  occ. eigenvalues --   -0.07758  -0.04564  -0.04061  -0.03797  -0.03580
  Beta  occ. eigenvalues --    0.04015   0.04733   0.06916   0.07100   0.14249
  Beta virt. eigenvalues --    0.20987   0.21065   0.22720   0.23376   0.26084
  Beta virt. eigenvalues --    0.27580   0.28198   0.28641   0.29365   0.29371
  Beta virt. eigenvalues --    0.30050   0.30498   0.31065   0.32631   0.32916

 Mulliken charges and spin densities:
               1          2
     1  Cl   0.026380  -0.000000
     2  C    1.589086  -0.000000
     3  C   -0.840372   0.000000
     4  C   -1.317808   0.000000
     5  O   -0.540113  -0.000000
     6  C    1.589132  -0.000000
     7  C   -0.840410  -0.000000
     8  C   -1.317947  -0.000000
     9  O   -0.540126   0.000000
    10  Cl   0.026352   0.000000
    11  H    0.082913  -0.000000
    12  H    0.082913  -0.000000
 Sum of Mulliken charges =  -2.00000  -0.00000

 Dipole moment (field-independent basis, Debye):
    X=             -0.0004    Y=             -0.0002    Z=              0.0000  Tot=              0.0005
 Quadrupole moment (field-independent basis, Debye-Ang):
   XX=           -115.3151   YY=           -131.3913   ZZ=            -80.2367
   XY=             20.0275   XZ=              1.1919   YZ=             -0.6497

  Exact polarizability: 187.420 -14.248 154.020  -3.772   0.430  77.577
 Approx polarizability: 269.868 -19.448 250.038  -5.471   0.558 110.527

                      1                      2                      3
                      A                      A                      A
 Frequencies --     77.6528               157.7581               197.2718
 Red. masses --     20.9007                11.9002                18.4608
 Frc consts  --      0.0743                 0.1745                 0.4233
 IR Inten    --      5.9044                 7.6205                 4.2807

                      4                      5                      6
                      A                      A                      A
 Frequencies --    226.5426               231.4307               293.0720
 Red. masses --     16.9355                 6.2228                28.7135
 Frc consts  --      0.5121                 0.1964                 1.4531
 IR Inten    --      0.0000                 0.0000                 0.0000

                      7                      8                      9
                      A                      A                      A
 Frequencies --    313.1762               351.8643               442.0092
 Red. masses --     18.0590                12.5266                 3.2256
 Frc consts  --      1.0436                 0.9138                 0.3713
 IR Inten    --      3.2666                 0.0000                 1.0316

                     10                     11                     12
                      A                      A                      A
 Frequencies --    476.6169               503.6792               604.2834
 Red. masses --     12.0996                11.6054                 5.6903
 Frc consts  --      1.6194                 1.7347                 1.2242
 IR Inten    --      0.0000                46.6381                 0.0000

                     13                     14                     15
                      A                      A                      A
 Frequencies --    652.7817               665.8530               686.7184
 Red. masses --      1.6019                 4.3267                 8.1207
 Frc consts  --      0.4022                 1.1302                 2.2563
 IR Inten    --      0.0000                 5.5888                 0.0000

                     16                     17                     18
                      A                      A                      A
 Frequencies --    800.1827               809.7904               811.5586
 Red. masses --      3.0620                 1.6888                 7.9772
 Frc consts  --      1.1551                 0.6525                 3.0956
 IR Inten    --      0.0000                43.5250               275.0679

                     19                     20                     21
                      A                      A                      A
 Frequencies --    882.5188               977.5332              1120.4037
 Red. masses --     10.3084                 2.3828                 9.8057
 Frc consts  --      4.7303                 1.3415                 7.2524
 IR Inten    --      0.0000               201.2595                97.5476

                     22                     23                     24
                      A                      A                      A
 Frequencies --   1205.3906              1248.5685              1370.0664
 Red. masses --      1.2891                 2.4979                 5.1649
 Frc consts  --      1.1036                 2.2943                 5.7121
 IR Inten    --      0.0000               198.5759                97.3747

                     25                     26                     27
                      A                      A                      A
 Frequencies --   1378.4548              1398.9315              1469.1487
 Red. masses --     11.8060                 6.6271                 5.7379
 Frc consts  --     13.2171                 7.6413                 7.2968
 IR Inten    --      0.0000                 0.0001              1298.8909

                     28                     29                     30
                      A                      A                      A
 Frequencies --   1604.1646              3147.9607              3150.2023
 Red. masses --      9.0241                 1.0877                 1.0891
 Frc consts  --     13.6821                 6.3509                 6.3678
 IR Inten    --      0.0000                62.4533                 0.0079

 - Thermochemistry -
 -------------------
 Temperature   298.150 Kelvin.  Pressure   1.00000 Atm.
 Atom     1 has atomic number 17 and mass  34.96885

 Molecular mass:   175.94318 amu.
 Principal axes and moments of inertia in atomic units:
                           1         2         3
     Eigenvalues --   936.208133044.444273980.65240
           X            0.92478   0.37896   0.03435
           Y           -0.37920   0.92531   0.00077
           Z           -0.03150  -0.01374   0.99941
 This molecule is an asymmetric top.
 Rotational symmetry number  1.
 Warning -- assumption of classical behavior for rotation
           may cause significant error
 Rotational temperatures (Kelvin)      0.09252     0.02845     0.02176
 Rotational constants (GHZ):           1.92771     0.59280     0.45338
 Zero-point vibrational energy     163024.6 (Joules/Mol)
                                   38.96382 (Kcal/Mol)
 Warning -- explicit consideration of  12 degrees of freedom as
           vibrations may cause significant error
 Vibrational temperatures:    111.73   226.98   283.83   325.94   332.98
          (Kelvin)            421.67   450.59   506.25   635.95   685.75
                              724.68   869.43   939.21   958.01   988.03
                             1151.28  1165.11  1167.65  1269.75  1406.45
                             1612.01  1734.29  1796.41  1971.22  1983.29
                             2012.75  2113.78  2308.04  4529.21  4532.44

 Zero-point correction=                           0.062093 (Hartree/Particle)
 Thermal correction to Energy=                    0.070807
 Thermal correction to Enthalpy=                  0.071751
 Thermal correction to Gibbs Free Energy=         0.027391
 Sum of electronic and zero-point Energies=          -1300.750934
 Sum of electronic and thermal Energies=             -1300.742220
 Sum of electronic and thermal Enthalpies=           -1300.741275
 Sum of electronic and thermal Free Energies=        -1300.785636

                     E (Thermal)             CV                S
                      KCal/Mol        Cal/Mol-Kelvin    Cal/Mol-Kelvin
 Total                   44.432             31.738             93.364
 Electronic               0.000              0.000              0.000
 Translational            0.889              2.981             41.402
 Rotational               0.889              2.981             30.807
 Vibrational             42.655             25.776             21.155
 Vibration     1          0.599              1.964              3.949
 Vibration     2          0.621              1.894              2.576
 Vibration     3          0.637              1.844              2.158
 Vibration     4          0.650              1.801              1.906
 Vibration     5          0.653              1.793              1.868
 Vibration     6          0.688              1.687              1.456
 Vibration     7          0.701              1.649              1.345
 Vibration     8          0.728              1.571              1.158
 Vibration     9          0.802              1.379              0.820
 Vibration    10          0.833              1.302              0.719
 Vibration    11          0.859              1.242              0.649
 Vibration    12          0.963              1.023              0.442

 Optimization completed.
    -- Stationary point found.
 Normal termination of Gaussian 16 at Sun Dec 17 21:07:27 2023.
