 Q-Chem 5.4, Q-Chem, Inc., Pleasanton, CA (2021)
 Q-Chem 5.4.0 for Intel X86 EM64T Linux

User input:
--------------------------------------------------------------
$molecule
-2 1
N                 -4.7629730000      0.3641810000      0.3583680000
C                 -3.7789880000     -0.1876320000      0.6740300000
C                 -2.5953100000     -0.8392160000      1.0431380000
C                 -2.7144110000     -1.9121250000      1.9357130000
N                 -2.8022190000     -2.8109890000      2.6818440000
C                 -1.2858000000     -0.4158020000      0.5168140000
C                 -1.1507380000      0.6623150000     -0.3812240000
C                  0.0867510000      1.0623870000     -0.8786360000
C                  1.2858310000      0.4156950000     -0.5168970000
C                  1.1507780000     -0.6623360000      0.3812010000
C                 -0.0866830000     -1.0624290000      0.8786340000
C                  2.5953610000      0.8391710000     -1.0432340000
C                  3.7790830000      0.1876130000     -0.6742690000
N                  4.7628630000     -0.3645190000     -0.3586290000
C                  2.7144200000      1.9122230000     -1.9355750000
N                  2.8018470000      2.8112940000     -2.6814590000
H                 -2.0403540000      1.1995790000     -0.6963320000
H                  0.1279700000      1.9006250000     -1.5678530000
H                  2.0404230000     -1.1994950000      0.6963530000
H                 -0.1278490000     -1.9005380000      1.5680120000
$end
$rem
MAX_SCF_CYCLES=200
BASIS  =  6-311++G(d,p)
GUI  =  2
JOB_TYPE  =  SP
METHOD  =  B3LYP
SOLVENT_METHOD = COSMO
$end
$solvent
dielectric 37.219
opticaldielectric 1.43
$end

--------------------------------------------------------------

             Standard Nuclear Orientation (Angstroms)
    I     Atom           X                Y                Z
 ----------------------------------------------------------------
    1      N       4.2562733059    -2.1979503363    -0.0007392752
    2      C       3.6531258703    -1.1936698271    -0.0001105752
    3      C       2.9202713971    -0.0000114651     0.0001508872
    4      C       3.6532837554     1.1935972460     0.0003196030
    5      N       4.2561578469     2.1980478494     0.0004596146
    6      C       1.4468017500     0.0000213665     0.0000714678
    7      C       0.6961564650    -1.1931180063     0.0006648347
    8      C      -0.6962713811    -1.1930658121     0.0005283088
    9      C      -1.4468519322     0.0000338636    -0.0001743156
   10      C      -0.6962179325     1.1931468188    -0.0006664316
   11      C       0.6961985656     1.1931333789    -0.0005239626
   12      C      -2.9203618163     0.0000239535    -0.0002226363
   13      C      -3.6533139412     1.1936076014    -0.0000502970
   14      N      -4.2561953634     2.1980155279     0.0003390879
   15      C      -3.6532943697    -1.1935831692    -0.0001256498
   16      N      -4.2558011308    -2.1982227404     0.0000143002
   17      H       1.2198155430    -2.1445080449     0.0013352147
   18      H      -1.2199883993    -2.1444238500     0.0011547262
   19      H      -1.2199172459     2.1444971789    -0.0012338128
   20      H       1.2198889102     2.1445069188    -0.0009396214
 ----------------------------------------------------------------

    8    -678.8760591546      5.45e-06  Convergence criterion met
 Total energy in the final basis set =     -678.8760591546
    4    -679.1057580300      8.55e-06  Convergence criterion met
 Total energy in the final basis set =     -679.1057580300

                    Orbital Energies (a.u.)
 --------------------------------------------------------------

 Alpha MOs
 -- Occupied --
-14.2904 -14.2904 -14.2904 -14.2904 -10.2034 -10.2034 -10.2034 -10.2033
-10.1820 -10.1819 -10.1815 -10.1815 -10.1624 -10.1624 -10.1619 -10.1619
 -0.8995  -0.8986  -0.8876  -0.8876  -0.8530  -0.8003  -0.7600  -0.7362
 -0.7007  -0.6129  -0.5949  -0.5615  -0.5343  -0.5213  -0.4799  -0.4328
 -0.4319  -0.4074  -0.3975  -0.3870  -0.3773  -0.3701  -0.3665  -0.3653
 -0.3632  -0.3512  -0.3337  -0.3328  -0.3327  -0.3282  -0.3280  -0.3211
 -0.3184  -0.2785  -0.2487  -0.2055  -0.1590

          Ground-State Mulliken Net Atomic Charges

     Atom                 Charge (a.u.)
  ----------------------------------------
      1 N                    -0.439998
      2 C                    -1.338026
      3 C                     2.163352
      4 C                    -1.337177
      5 N                    -0.440033
      6 C                     1.460688
      7 C                    -0.680696
      8 C                    -0.680961
      9 C                     1.461301
     10 C                    -0.680635
     11 C                    -0.680508
     12 C                     2.163261
     13 C                    -1.338193
     14 N                    -0.440039
     15 C                    -1.337671
     16 N                    -0.440025
     17 H                     0.146314
     18 H                     0.146366
     19 H                     0.146394
     20 H                     0.146286
  ----------------------------------------
  Sum of atomic charges =    -2.000000

                    Cartesian Multipole Moments
 -----------------------------------------------------------------
    Charge (ESU x 10^10)
                -9.6064
    Dipole Moment (Debye)
         X       0.0006      Y       0.0009      Z      -0.0002
       Tot       0.0011
    Quadrupole Moments (Debye-Ang)
        XX    -265.9477     XY      -0.0018     YY    -146.9737
        XZ       0.0086     YZ      -0.0140     ZZ    -100.9344

 Total job time:  33.08s(wall), 216.64s(cpu)
        *  Thank you very much for using Q-Chem.  Have a nice day.  *
