 Q-Chem 5.4, Q-Chem, Inc., Pleasanton, CA (2021)
 Q-Chem 5.4.0 for Intel X86 EM64T Linux

User input:
--------------------------------------------------------------
$molecule
0 1
O                 -4.7056080000     -0.6612140000      0.9823790000
C                 -3.4839300000     -0.2273370000      0.5702630000
C                 -3.4432040000      0.9726380000     -0.1533690000
C                 -2.2287650000      1.4636780000     -0.5988130000
C                 -1.0350800000      0.7770550000     -0.3365170000
C                  0.2502540000      1.3312830000     -0.8290770000
O                  0.2971570000      2.3757570000     -1.4610670000
C                  1.4937280000      0.5600460000     -0.5216820000
C                  2.7236710000      1.0509370000     -0.9685340000
C                  3.8955260000      0.3540640000     -0.6967190000
C                  3.8496780000     -0.8417590000      0.0251700000
C                  2.6315380000     -1.3380650000      0.4737280000
C                  1.4477690000     -0.6435060000      0.2048290000
C                  0.1551420000     -1.1982680000      0.6978070000
O                  0.1073480000     -2.2420110000      1.3287050000
C                 -1.0858830000     -0.4250880000      0.3894720000
C                 -2.3081950000     -0.9232110000      0.8401790000
H                 -4.6173660000     -1.4895740000      1.4669940000
H                 -4.3705600000      1.4961770000     -0.3513760000
H                 -2.1777460000      2.3889410000     -1.1593250000
H                  2.7360580000      1.9792280000     -1.5261490000
H                  4.8466070000      0.7398470000     -1.0459330000
H                  4.7647670000     -1.3834010000      0.2359600000
H                  2.5722320000     -2.2624790000      1.0347710000
H                 -2.3151380000     -1.8537380000      1.3983020000
$end

$rem
BASIS  =  6-311++G(d,p)
GUI  =  2
JOB_TYPE  =  SP
METHOD  =  B3LYP
SCF_CONVERGENCE  = 8
SOLVENT_METHOD = sm12
$end

$smx
solvent dimethylformamide
charges CM5
$end

--------------------------------------------------------------

             Standard Nuclear Orientation (Angstroms)
    I     Atom           X                Y                Z
 ----------------------------------------------------------------
    1      O      -4.7056080000    -0.6612140000     0.9823790000
    2      C      -3.4839300000    -0.2273370000     0.5702630000
    3      C      -3.4432040000     0.9726380000    -0.1533690000
    4      C      -2.2287650000     1.4636780000    -0.5988130000
    5      C      -1.0350800000     0.7770550000    -0.3365170000
    6      C       0.2502540000     1.3312830000    -0.8290770000
    7      O       0.2971570000     2.3757570000    -1.4610670000
    8      C       1.4937280000     0.5600460000    -0.5216820000
    9      C       2.7236710000     1.0509370000    -0.9685340000
   10      C       3.8955260000     0.3540640000    -0.6967190000
   11      C       3.8496780000    -0.8417590000     0.0251700000
   12      C       2.6315380000    -1.3380650000     0.4737280000
   13      C       1.4477690000    -0.6435060000     0.2048290000
   14      C       0.1551420000    -1.1982680000     0.6978070000
   15      O       0.1073480000    -2.2420110000     1.3287050000
   16      C      -1.0858830000    -0.4250880000     0.3894720000
   17      C      -2.3081950000    -0.9232110000     0.8401790000
   18      H      -4.6173660000    -1.4895740000     1.4669940000
   19      H      -4.3705600000     1.4961770000    -0.3513760000
   20      H      -2.1777460000     2.3889410000    -1.1593250000
   21      H       2.7360580000     1.9792280000    -1.5261490000
   22      H       4.8466070000     0.7398470000    -1.0459330000
   23      H       4.7647670000    -1.3834010000     0.2359600000
   24      H       2.5722320000    -2.2624790000     1.0347710000
   25      H      -2.3151380000    -1.8537380000     1.3983020000
 ----------------------------------------------------------------

   15    -764.2028857237      2.42e-09  Convergence criterion met
 Total energy in the final basis set =     -764.2277923833

                    Orbital Energies (a.u.)
 --------------------------------------------------------------

 Alpha MOs
 -- Occupied --
-19.1764 -19.1314 -19.1254 -10.2833 -10.2787 -10.2658 -10.2137 -10.2089
-10.2084 -10.2039 -10.2012 -10.1996 -10.1982 -10.1978 -10.1973 -10.1972
-10.1967  -1.0890  -1.0659  -1.0598  -0.8942  -0.8822  -0.8118  -0.7823
 -0.7778  -0.7686  -0.6903  -0.6781  -0.6439  -0.6296  -0.5885  -0.5826
 -0.5625  -0.5311  -0.5086  -0.4944  -0.4877  -0.4601  -0.4582  -0.4567
 -0.4535  -0.4500  -0.4443  -0.4316  -0.4227  -0.4179  -0.4007  -0.3835
 -0.3832  -0.3742  -0.3660  -0.3526  -0.2875  -0.2868  -0.2815  -0.2777
 -0.2739  -0.2553

          Ground-State Mulliken Net Atomic Charges

     Atom                 Charge (a.u.)
  ----------------------------------------
      1 O                    -0.206396
      2 C                     0.134491
      3 C                     0.286853
      4 C                     0.253521
      5 C                    -0.398472
      6 C                    -1.423059
      7 O                    -0.281065
      8 C                    -0.545490
      9 C                     0.087198
     10 C                     0.371434
     11 C                     0.384171
     12 C                     0.209418
     13 C                    -0.171408
     14 C                    -1.320626
     15 O                    -0.246656
     16 C                     0.140333
     17 C                     0.649765
     18 H                     0.326960
     19 H                     0.295935
     20 H                     0.204509
     21 H                     0.185203
     22 H                     0.323648
     23 H                     0.328077
     24 H                     0.194821
     25 H                     0.216837
  ----------------------------------------
  Sum of atomic charges =     0.000000

                    Cartesian Multipole Moments
 -----------------------------------------------------------------
    Charge (ESU x 10^10)
                 0.0000
    Dipole Moment (Debye)
         X       0.4693      Y      -1.3758      Z       0.7673
       Tot       1.6437
    Quadrupole Moments (Debye-Ang)
        XX     -73.0031     XY       2.0906     YY    -102.8571
        XZ      -4.5991     YZ       1.4797     ZZ    -100.2678

 Total job time:  468.95s(wall), 3654.97s(cpu)
        *  Thank you very much for using Q-Chem.  Have a nice day.  *
