 Q-Chem 5.4, Q-Chem, Inc., Pleasanton, CA (2021)
 Q-Chem 5.4.0 for Intel X86 EM64T Linux

User input:
--------------------------------------------------------------
$molecule
0 1
C                 -0.6497340000      2.8884150000      0.4173750000
C                 -1.6499950000      2.5011570000     -0.4684210000
C                 -1.4200840000      1.4589580000     -1.3685570000
C                  0.5846600000      2.2339640000      0.3985990000
C                  0.8188070000      1.1857760000     -0.5066890000
C                 -0.1930020000      0.7991340000     -1.3841850000
C                  1.6516490000      2.6388410000      1.3304230000
C                  2.9554110000      1.9249450000      1.2699660000
C                  3.2115130000      0.9305470000      0.3729210000
C                  2.1306460000      0.4511930000     -0.5350440000
O                  1.5381820000      3.5374620000      2.1577010000
O                  2.2774160000     -0.5191570000     -1.2526900000
O                  3.8717660000      2.3728370000      2.1302370000
H                 -0.8060280000      3.6904140000      1.1282750000
H                 -2.6075120000      3.0087990000     -0.4585090000
H                 -2.1999820000      1.1596210000     -2.0594540000
H                 -0.0002970000     -0.0151440000     -2.0714640000
H                  3.4332140000      3.0806940000      2.6415580000
N                  4.4512430000      0.2792710000      0.4327200000
N                  4.9666640000      0.0022230000     -0.6754030000
C                  6.1806690000     -0.7282240000     -0.6071270000
C                  6.7946810000     -1.1455630000      0.5839630000
C                  6.7629360000     -1.0285160000     -1.8428210000
C                  7.9556030000     -1.7443510000     -1.8945970000
C                  8.5666890000     -2.1587980000     -0.7127230000
C                  7.9840080000     -1.8574050000      0.5234330000
H                  6.3305610000     -0.9017720000      1.5307760000
H                  6.2611180000     -0.6953260000     -2.7433770000
H                  8.4059670000     -1.9788420000     -2.8521350000
H                  9.4958290000     -2.7164920000     -0.7495660000
H                  8.4650040000     -2.1817300000      1.4394660000
$end
$rem
MAX_SCF_CYCLES=200
BASIS  =  6-311++G(d,p)
GUI  =  2
JOB_TYPE  =  SP
METHOD  =  B3LYP
SOLVENT_METHOD = COSMO
$end
$solvent
dielectric 37.219
opticaldielectric 1.43
$end

--------------------------------------------------------------

             Standard Nuclear Orientation (Angstroms)
    I     Atom           X                Y                Z
 ----------------------------------------------------------------
    1      C       4.5368145303    -0.2395941760    -0.1466239799
    2      C       5.1923457007     0.9846525362    -0.0652344675
    3      C       4.4585195866     2.1587563713     0.1143819591
    4      C       3.1435294477    -0.2877440594    -0.0526800388
    5      C       2.4028763547     0.8921674078     0.1270730955
    6      C       3.0696948990     2.1130730601     0.2164662488
    7      C       2.4396240931    -1.5790225652    -0.1410200092
    8      C       0.9548597155    -1.5857973306    -0.0486796290
    9      C       0.2186860077    -0.4463951134     0.0888565780
   10      C       0.9044392058     0.8673182429     0.2511955416
   11      O       3.0005362879    -2.6594300275    -0.2922832771
   12      O       0.2912367659     1.8847297819     0.5100253404
   13      O       0.3989178763    -2.7932542511    -0.1642494343
   14      H       5.0845030118    -1.1643118381    -0.2805776771
   15      H       6.2727316600     1.0257586902    -0.1408249177
   16      H       4.9707514295     3.1121896201     0.1757478605
   17      H       2.4859310308     3.0133737649     0.3621188807
   18      H       1.1422698432    -3.4206802643    -0.2570018219
   19      N      -1.1716392015    -0.5611422651     0.2248555681
   20      N      -1.8440424059     0.3073034299    -0.3784909244
   21      C      -3.2451981291     0.2334858724    -0.1703174881
   22      C      -3.8812410827    -0.7118878312     0.6491920523
   23      C      -3.9979619368     1.1952041863    -0.8519290644
   24      C      -5.3833282043     1.2175730395    -0.7184561701
   25      C      -6.0162321256     0.2791051254     0.0943963182
   26      C      -5.2625793076    -0.6834053700     0.7755846333
   27      H      -3.2823702881    -1.4499409759     1.1668092950
   28      H      -3.4756886331     1.9130436684    -1.4730369974
   29      H      -5.9666804528     1.9639698466    -1.2450345057
   30      H      -7.0952226653     0.2937303559     0.2004465975
   31      H      -5.7610736551    -1.4115614239     1.4056262681
 ----------------------------------------------------------------

    9    -951.1039809091      9.61e-06  Convergence criterion met
 Total energy in the final basis set =     -951.1039809091
    5    -951.1240895950      4.39e-06  Convergence criterion met
 Total energy in the final basis set =     -951.1240895950

                    Orbital Energies (a.u.)
 --------------------------------------------------------------

 Alpha MOs
 -- Occupied --
-19.1877 -19.1535 -19.1382 -14.3826 -14.3787 -10.2987 -10.2933 -10.2801
-10.2368 -10.2173 -10.2145 -10.2139 -10.2026 -10.2004 -10.1995 -10.1987
-10.1905 -10.1901 -10.1892 -10.1876 -10.1866  -1.1182  -1.0790  -1.0732
 -1.0547  -0.8971  -0.8829  -0.8509  -0.8057  -0.7830  -0.7704  -0.7631
 -0.7206  -0.6897  -0.6619  -0.6405  -0.6211  -0.6114  -0.5927  -0.5777
 -0.5567  -0.5378  -0.5204  -0.5019  -0.5014  -0.4876  -0.4746  -0.4726
 -0.4709  -0.4545  -0.4531  -0.4501  -0.4410  -0.4360  -0.4301  -0.4191
 -0.4130  -0.4086  -0.3854  -0.3807  -0.3755  -0.3735  -0.3701  -0.3583
 -0.3111  -0.3014  -0.2969  -0.2843  -0.2824  -0.2725  -0.2585  -0.2382

          Ground-State Mulliken Net Atomic Charges

     Atom                 Charge (a.u.)
  ----------------------------------------
      1 C                     0.151670
      2 C                    -0.338315
      3 C                    -0.388603
      4 C                     0.766669
      5 C                     0.253022
      6 C                     0.228140
      7 C                    -0.642800
      8 C                    -0.085194
      9 C                     0.288684
     10 C                    -0.734216
     11 O                    -0.319692
     12 O                    -0.251856
     13 O                    -0.218471
     14 H                     0.201532
     15 H                     0.237563
     16 H                     0.229036
     17 H                     0.202207
     18 H                     0.330334
     19 N                     0.054167
     20 N                     0.060189
     21 C                    -0.303249
     22 C                     0.064686
     23 C                    -0.073022
     24 C                    -0.142275
     25 C                    -0.367144
     26 C                    -0.302033
     27 H                     0.213289
     28 H                     0.218354
     29 H                     0.228193
     30 H                     0.207912
     31 H                     0.231207
  ----------------------------------------
  Sum of atomic charges =    -0.000018

                    Cartesian Multipole Moments
 -----------------------------------------------------------------
    Charge (ESU x 10^10)
                -0.0001
    Dipole Moment (Debye)
         X       2.2095      Y       0.7234      Z      -0.2466
       Tot       2.3380
    Quadrupole Moments (Debye-Ang)
        XX     -72.8803     XY       9.8048     YY    -119.4149
        XZ      -0.1939     YZ      -4.8946     ZZ    -121.3526

 Total job time:  74.81s(wall), 558.92s(cpu)
        *  Thank you very much for using Q-Chem.  Have a nice day.  *
