 Gaussian 16, Revision A.03,
 Gaussian 16:  ES64L-G16RevA.03 25-Dec-2016

 -------------------------------
 #P UB3LYP/genecp nosym opt freq
 -------------------------------

 -------
 Radical
 -------
 Symbolic Z-matrix:
 Charge = -1 Multiplicity = 2

 SCF Done:  E(UB3LYP) =  -1570.41068209     A.U. after   22 cycles
 SCF Done:  E(UB3LYP) =  -1570.43574717     A.U. after   18 cycles
 SCF Done:  E(UB3LYP) =  -1570.43899844     A.U. after   19 cycles
 SCF Done:  E(UB3LYP) =  -1570.43933690     A.U. after   15 cycles
 SCF Done:  E(UB3LYP) =  -1570.43938142     A.U. after   14 cycles
 SCF Done:  E(UB3LYP) =  -1570.43938391     A.U. after   12 cycles
 Optimization completed.
    -- Stationary point found.
 Normal termination of Gaussian 16 at Thu Dec 21 04:22:24 2023.

 ------------------------------------------------------------------
 #P Geom=AllCheck Guess=TCheck SCRF=Check GenChk UB3LYP/GenECP Freq
 ------------------------------------------------------------------

 Structure from the checkpoint file:  "031-rad.chk"
 -------
 Radical
 -------
 Charge = -1 Multiplicity = 2

                          Input orientation:
 ---------------------------------------------------------------------
 Center     Atomic      Atomic             Coordinates (Angstroms)
 Number     Number       Type             X           Y           Z
 ---------------------------------------------------------------------
      1         53           0       -3.350828   -1.069351   -0.151930
      2          6           0       -1.361827   -0.358156   -0.060639
      3          6           0       -1.023676    0.968541   -0.026268
      4         53           0       -2.428935    2.548006   -0.058219
      5          6           0        0.364669    1.430500    0.036960
      6          8           0        0.671746    2.635844    0.068342
      7          6           0        1.361817    0.358261    0.060570
      8          6           0        1.023613   -0.968621    0.026196
      9         53           0        2.428882   -2.548016    0.058380
     10          6           0       -0.364528   -1.430497   -0.037177
     11          8           0       -0.671818   -2.635811   -0.068296
     12         53           0        3.350884    1.069300    0.152080
 ---------------------------------------------------------------------

 SCF Done:  E(UB3LYP) =  -1570.43938391     A.U. after    2 cycles

 Alpha  occ. eigenvalues --  -18.97951 -18.97950 -10.13758 -10.13756 -10.11656
 Alpha  occ. eigenvalues --  -10.11653 -10.11592 -10.11591  -6.73301  -6.73301
 Alpha  occ. eigenvalues --   -6.73300  -6.73300  -4.75744  -4.75744  -4.75744
 Alpha  occ. eigenvalues --   -4.75744  -4.74629  -4.74629  -4.74629  -4.74629
 Alpha  occ. eigenvalues --   -4.74506  -4.74505  -4.74505  -4.74505  -1.80564
 Alpha  occ. eigenvalues --   -1.80564  -1.80563  -1.80563  -1.80210  -1.80210
 Alpha  occ. eigenvalues --   -1.80210  -1.80210  -1.80116  -1.80116  -1.80112
 Alpha  occ. eigenvalues --   -1.80111  -1.79147  -1.79146  -1.79146  -1.79145
 Alpha  occ. eigenvalues --   -1.79145  -1.79144  -1.79142  -1.79142  -0.91298
 Alpha  occ. eigenvalues --   -0.91036  -0.74481  -0.68630  -0.62012  -0.60757
 Alpha  occ. eigenvalues --   -0.59387  -0.55561  -0.55274  -0.46124  -0.46048
 Alpha  occ. eigenvalues --   -0.39994  -0.33993  -0.32504  -0.31584  -0.28411
 Alpha  occ. eigenvalues --   -0.27482  -0.27468  -0.27315  -0.23466  -0.22569
 Alpha  occ. eigenvalues --   -0.20557  -0.17304  -0.16882  -0.16557  -0.16151
 Alpha  occ. eigenvalues --   -0.15844  -0.14851  -0.14442  -0.13609  -0.12623
 Alpha  occ. eigenvalues --   -0.11633  -0.06278
 Alpha virt. eigenvalues --    0.03886   0.06046   0.07362   0.08099   0.11733
 Alpha virt. eigenvalues --    0.12082   0.12359   0.14283   0.15080   0.17238
 Alpha virt. eigenvalues --    0.17376   0.17718   0.18931   0.19389   0.19985

  Beta  occ. eigenvalues --  -18.97239 -18.97238 -10.13671 -10.13669 -10.11526
  Beta  occ. eigenvalues --  -10.11524 -10.11461 -10.11461  -6.73300  -6.73299
  Beta  occ. eigenvalues --   -6.73299  -6.73299  -4.75748  -4.75747  -4.75747
  Beta  occ. eigenvalues --   -4.75747  -4.74622  -4.74622  -4.74622  -4.74622
  Beta  occ. eigenvalues --   -4.74505  -4.74505  -4.74505  -4.74505  -1.80567
  Beta  occ. eigenvalues --   -1.80566  -1.80566  -1.80565  -1.80208  -1.80208
  Beta  occ. eigenvalues --   -1.80207  -1.80207  -1.80120  -1.80119  -1.80115
  Beta  occ. eigenvalues --   -1.80115  -1.79142  -1.79142  -1.79141  -1.79141
  Beta  occ. eigenvalues --   -1.79140  -1.79140  -1.79138  -1.79137  -0.90107
  Beta  occ. eigenvalues --   -0.89809  -0.73877  -0.68376  -0.61464  -0.60638
  Beta  occ. eigenvalues --   -0.59293  -0.55482  -0.54705  -0.45736  -0.45620
  Beta  occ. eigenvalues --   -0.39767  -0.33468  -0.30833  -0.30811  -0.27396
  Beta  occ. eigenvalues --   -0.27113  -0.27087  -0.25717  -0.23244  -0.22017
  Beta  occ. eigenvalues --   -0.18121  -0.17276  -0.16804  -0.16427  -0.15714
  Beta  occ. eigenvalues --   -0.15501  -0.13819  -0.13596  -0.13596  -0.12187
  Beta  occ. eigenvalues --   -0.11366
  Beta virt. eigenvalues --    0.00677   0.04011   0.06126   0.08293   0.08884
  Beta virt. eigenvalues --    0.11883   0.12120   0.14290   0.14775   0.15116
  Beta virt. eigenvalues --    0.17280   0.17474   0.17736   0.18943   0.19458

 Mulliken charges and spin densities:
               1          2
     1  I   -0.114904  -0.000394
     2  C    1.017202   0.120905
     3  C    1.018066   0.120877
     4  I   -0.114959  -0.000398
     5  C   -2.115453  -0.006293
     6  O   -0.190429   0.265072
     7  C    1.018009   0.121135
     8  C    1.018160   0.121075
     9  I   -0.114959  -0.000387
    10  C   -2.115366  -0.006298
    11  O   -0.190436   0.265091
    12  I   -0.114929  -0.000385
 Sum of Mulliken charges =  -1.00000   1.00000

 Dipole moment (field-independent basis, Debye):
    X=             -0.0004    Y=              0.0000    Z=             -0.0002  Tot=              0.0005
 Quadrupole moment (field-independent basis, Debye-Ang):
   XX=           -174.8715   YY=           -188.2329   ZZ=           -156.6838
   XY=             -3.6245   XZ=             -0.7931   YZ=             -0.6399

  Exact polarizability: 306.403  -8.621 275.454   6.828   1.863 134.273
 Approx polarizability: 455.571  16.037 515.200   8.993   4.961 239.513

                      1                      2                      3
                      A                      A                      A
 Frequencies --     26.1214                50.3567                75.2194
 Red. masses --    124.3615                16.5132                17.5131
 Frc consts  --      0.0500                 0.0247                 0.0584
 IR Inten    --      0.0000                 5.0793                 0.0000

                      4                      5                      6
                      A                      A                      A
 Frequencies --     90.8434                98.1633                99.9462
 Red. masses --    125.8260                54.5566               102.6701
 Frc consts  --      0.6118                 0.3097                 0.6043
 IR Inten    --      0.0000                 1.6970                 1.8665

                      7                      8                      9
                      A                      A                      A
 Frequencies --    143.2732               157.0160               160.2081
 Red. masses --    105.1590               115.0164                13.3227
 Frc consts  --      1.2718                 1.6707                 0.2015
 IR Inten    --      0.0000                 0.0000                 0.6598

                     10                     11                     12
                      A                      A                      A
 Frequencies --    262.5844               272.8923               274.4964
 Red. masses --     15.7326                12.1749                18.5803
 Frc consts  --      0.6391                 0.5342                 0.8249
 IR Inten    --      0.0000                 0.0000                 2.1555

                     13                     14                     15
                      A                      A                      A
 Frequencies --    310.3544               345.3356               480.1367
 Red. masses --     17.2554                12.3962                13.9300
 Frc consts  --      0.9792                 0.8710                 1.8920
 IR Inten    --      5.9005                 0.0000                 0.0000

                     16                     17                     18
                      A                      A                      A
 Frequencies --    504.0888               548.7863               674.1876
 Red. masses --     12.0232                13.4011                12.6447
 Frc consts  --      1.8000                 2.3779                 3.3863
 IR Inten    --      0.0001                51.8743                 0.0000

                     19                     20                     21
                      A                      A                      A
 Frequencies --    698.1092               723.3363               749.0986
 Red. masses --     12.2209                12.2854                12.1235
 Frc consts  --      3.5091                 3.7872                 4.0083
 IR Inten    --      8.3758                 0.0000                 0.0000

                     22                     23                     24
                      A                      A                      A
 Frequencies --    841.9419               895.2479              1054.2985
 Red. masses --     12.8442                12.3431                12.1462
 Frc consts  --      5.3644                 5.8286                 7.9546
 IR Inten    --    177.5564                 0.0001               200.0048

                     25                     26                     27
                      A                      A                      A
 Frequencies --   1072.8088              1262.7778              1420.1198
 Red. masses --     12.0200                12.0135                12.0262
 Frc consts  --      8.1508                11.2869                14.2899
 IR Inten    --     59.1332                 0.0001                11.1047

                     28                     29                     30
                      A                      A                      A
 Frequencies --   1519.3021              1537.2110              1570.3631
 Red. masses --     12.3841                13.1023                12.8065
 Frc consts  --     16.8423                18.2417                18.6072
 IR Inten    --      0.0002               218.7643                 0.0002

 - Thermochemistry -
 -------------------
 Temperature   298.150 Kelvin.  Pressure   1.00000 Atm.
 Atom     1 has atomic number 53 and mass 126.90040

 Molecular mass:   611.59143 amu.
 Principal axes and moments of inertia in atomic units:
                           1         2         3
     Eigenvalues --  7431.99239********************
           X            0.96819   0.24694  -0.04034
           Y           -0.24772   0.96871  -0.01560
           Z            0.03523   0.02510   0.99906
 This molecule is an asymmetric top.
 Rotational symmetry number  1.
 Warning -- assumption of classical behavior for rotation
           may cause significant error
 Rotational temperatures (Kelvin)      0.01165     0.00528     0.00363
 Rotational constants (GHZ):           0.24283     0.10998     0.07570
 Zero-point vibrational energy     107177.2 (Joules/Mol)
                                   25.61596 (Kcal/Mol)
 Warning -- explicit consideration of  17 degrees of freedom as
           vibrations may cause significant error
 Vibrational temperatures:     37.58    72.45   108.22   130.70   141.24
          (Kelvin)            143.80   206.14   225.91   230.50   377.80
                              392.63   394.94   446.53   496.86   690.81
                              725.27   789.58   970.01  1004.42  1040.72
                             1077.79  1211.37  1288.06  1516.90  1543.53
                             1816.86  2043.24  2185.94  2211.70  2259.40

 Zero-point correction=                           0.040822 (Hartree/Particle)
 Thermal correction to Energy=                    0.053743
 Thermal correction to Enthalpy=                  0.054688
 Thermal correction to Gibbs Free Energy=        -0.005736
 Sum of electronic and zero-point Energies=          -1570.398562
 Sum of electronic and thermal Energies=             -1570.385641
 Sum of electronic and thermal Enthalpies=           -1570.384696
 Sum of electronic and thermal Free Energies=        -1570.445120

                     E (Thermal)             CV                S
                      KCal/Mol        Cal/Mol-Kelvin    Cal/Mol-Kelvin
 Total                   33.724             40.954            127.173
 Electronic               0.000              0.000              1.377
 Translational            0.889              2.981             45.116
 Rotational               0.889              2.981             36.318
 Vibrational             31.947             34.992             44.362
 Vibration     1          0.593              1.985              6.104
 Vibration     2          0.595              1.977              4.803
 Vibration     3          0.599              1.966              4.012
 Vibration     4          0.602              1.956              3.642
 Vibration     5          0.604              1.950              3.490
 Vibration     6          0.604              1.949              3.455
 Vibration     7          0.616              1.910              2.760
 Vibration     8          0.621              1.895              2.585
 Vibration     9          0.622              1.891              2.547
 Vibration    10          0.670              1.741              1.645
 Vibration    11          0.676              1.723              1.578
 Vibration    12          0.677              1.720              1.568
 Vibration    13          0.699              1.654              1.360
 Vibration    14          0.724              1.585              1.187
 Vibration    15          0.837              1.294              0.710
 Vibration    16          0.859              1.241              0.648
 Vibration    17          0.904              1.142              0.547

 Optimization completed.
    -- Stationary point found.
 Normal termination of Gaussian 16 at Thu Dec 21 04:35:45 2023.
