 Gaussian 16, Revision A.03,
 Gaussian 16:  ES64L-G16RevA.03 25-Dec-2016

 ----------------------------------------------------------------------
 #P UB3LYP/6-311++G(d,p) nosym opt freq SCRF=(PCM,Solvent=n,n-DiMethylF
 ormamide)
 ----------------------------------------------------------------------

 --------
 Oxidized
 --------
 Symbolic Z-matrix:
 Charge =  0 Multiplicity = 1

 SCF Done:  E(UB3LYP) =  -496.160798750     A.U. after   15 cycles
 SCF Done:  E(UB3LYP) =  -496.160865890     A.U. after   11 cycles
 SCF Done:  E(UB3LYP) =  -496.160873978     A.U. after   10 cycles
 Optimization completed.
    -- Stationary point found.
 Normal termination of Gaussian 16 at Sat Feb 10 10:45:11 2024.

 ----------------------------------------------------------------------
 #P Geom=AllCheck Guess=TCheck SCRF=Check GenChk UB3LYP/6-311++G(d,p) F
 req
 ----------------------------------------------------------------------

 Structure from the checkpoint file:  "108.chk"
 --------
 Oxidized
 --------
 Charge =  0 Multiplicity = 1

                          Input orientation:
 ---------------------------------------------------------------------
 Center     Atomic      Atomic             Coordinates (Angstroms)
 Number     Number       Type             X           Y           Z
 ---------------------------------------------------------------------
      1          6           0       -1.744817   -3.721231    1.298079
      2          6           0       -0.318965   -3.977523    1.048791
      3          6           0        0.458273   -2.991336    0.590224
      4          6           0       -0.079490   -1.624001    0.320230
      5          6           0       -1.506060   -1.342563    0.561983
      6          6           0       -2.280803   -2.350583    1.027059
      7          8           0       -2.517672   -4.574897    1.716510
      8          8           0        0.681653   -0.757482   -0.100456
      9          8           0       -3.591047   -2.204957    1.282841
     10          6           0       -2.020483    0.037763    0.282599
     11          1           0        0.046760   -4.976769    1.251949
     12          1           0        1.514583   -3.128769    0.390417
     13          1           0       -1.491086    0.776435    0.891105
     14          1           0       -3.085904    0.109228    0.494475
     15          1           0       -1.851027    0.307232   -0.763650
     16          1           0       -3.916948   -3.066319    1.602972
 ---------------------------------------------------------------------

 SCF Done:  E(UB3LYP) =  -496.160873978     A.U. after    1 cycles

 Alpha  occ. eigenvalues --  -19.18257 -19.15910 -19.13961 -10.30007 -10.28641
 Alpha  occ. eigenvalues --  -10.27118 -10.21897 -10.21607 -10.20849 -10.17666
 Alpha  occ. eigenvalues --   -1.11236  -1.07418  -1.06796  -0.86842  -0.80903
 Alpha  occ. eigenvalues --   -0.72894  -0.69958  -0.64064  -0.61985  -0.56077
 Alpha  occ. eigenvalues --   -0.53487  -0.50834  -0.48209  -0.47689  -0.45007
 Alpha  occ. eigenvalues --   -0.44377  -0.43633  -0.43102  -0.41329  -0.39839
 Alpha  occ. eigenvalues --   -0.39734  -0.38832  -0.31773  -0.30848  -0.28673
 Alpha  occ. eigenvalues --   -0.26387
 Alpha virt. eigenvalues --   -0.13892  -0.02229  -0.00902  -0.00442   0.00663
 Alpha virt. eigenvalues --    0.00996   0.03065   0.03569   0.03738   0.05058
 Alpha virt. eigenvalues --    0.06680   0.06859   0.07327   0.08142   0.08831

  Beta  occ. eigenvalues --  -19.18257 -19.15910 -19.13961 -10.30007 -10.28641
  Beta  occ. eigenvalues --  -10.27118 -10.21897 -10.21607 -10.20849 -10.17666
  Beta  occ. eigenvalues --   -1.11236  -1.07418  -1.06796  -0.86842  -0.80903
  Beta  occ. eigenvalues --   -0.72894  -0.69958  -0.64064  -0.61985  -0.56077
  Beta  occ. eigenvalues --   -0.53487  -0.50834  -0.48209  -0.47689  -0.45007
  Beta  occ. eigenvalues --   -0.44377  -0.43633  -0.43102  -0.41329  -0.39839
  Beta  occ. eigenvalues --   -0.39734  -0.38832  -0.31773  -0.30848  -0.28673
  Beta  occ. eigenvalues --   -0.26387
  Beta virt. eigenvalues --   -0.13892  -0.02229  -0.00902  -0.00442   0.00663
  Beta virt. eigenvalues --    0.00996   0.03065   0.03569   0.03738   0.05058
  Beta virt. eigenvalues --    0.06680   0.06859   0.07327   0.08142   0.08831

 Mulliken charges and spin densities:
               1          2
     1  C   -0.054784  -0.000000
     2  C    0.087419   0.000000
     3  C    0.307759  -0.000000
     4  C   -1.059978   0.000000
     5  C    2.176457  -0.000000
     6  C   -1.758216   0.000000
     7  O   -0.315166  -0.000000
     8  O   -0.286833  -0.000000
     9  O   -0.234060  -0.000000
    10  C   -0.213776  -0.000000
    11  H    0.247189   0.000000
    12  H    0.242134   0.000000
    13  H    0.183545  -0.000000
    14  H    0.188778  -0.000000
    15  H    0.182809  -0.000000
    16  H    0.306720   0.000000
 Sum of Mulliken charges =  -0.00000   0.00000

 Dipole moment (field-independent basis, Debye):
    X=             -0.1453    Y=             -1.6432    Z=              0.5058  Tot=              1.7254
 Quadrupole moment (field-independent basis, Debye-Ang):
   XX=            -59.7906   YY=            -54.6657   ZZ=            -58.3849
   XY=             -7.1972   XZ=              2.6229   YZ=              1.1044

  Exact polarizability: 147.778  37.502 155.999 -29.214 -34.171  82.646
 Approx polarizability: 187.027  72.442 194.179 -45.653 -49.919 101.734

                      1                      2                      3
                      A                      A                      A
 Frequencies --     60.4693                92.5447               115.8130
 Red. masses --      1.0480                 7.7570                 5.0136
 Frc consts  --      0.0023                 0.0391                 0.0396
 IR Inten    --      0.0185                16.3796                 0.2058

                      4                      5                      6
                      A                      A                      A
 Frequencies --    249.2233               269.5857               282.8610
 Red. masses --      4.0690                 4.4988                 3.0608
 Frc consts  --      0.1489                 0.1926                 0.1443
 IR Inten    --      0.6164                 0.0013                 5.2995

                      7                      8                      9
                      A                      A                      A
 Frequencies --    326.3402               398.9297               447.4720
 Red. masses --      5.5572                10.2724                 7.6363
 Frc consts  --      0.3487                 0.9632                 0.9009
 IR Inten    --     16.1624                37.4199                21.3864

                     10                     11                     12
                      A                      A                      A
 Frequencies --    471.4396               518.1438               567.4179
 Red. masses --     10.7000                 4.1915                 1.1412
 Frc consts  --      1.4012                 0.6630                 0.2165
 IR Inten    --      1.3098                17.2576               150.3964

                     13                     14                     15
                      A                      A                      A
 Frequencies --    607.0372               625.8671               641.5722
 Red. masses --      4.1004                 2.1396                 6.3375
 Frc consts  --      0.8902                 0.4938                 1.5370
 IR Inten    --      5.9150                 2.1757                14.0998

                     16                     17                     18
                      A                      A                      A
 Frequencies --    761.3755               766.3333               847.9865
 Red. masses --      8.9799                 7.3318                 2.1114
 Frc consts  --      3.0670                 2.5369                 0.8946
 IR Inten    --      0.8885                 6.9240                79.7457

                     19                     20                     21
                      A                      A                      A
 Frequencies --    874.5550               998.6405              1016.8459
 Red. masses --      2.4254                 1.2361                 2.9121
 Frc consts  --      1.0930                 0.7263                 1.7741
 IR Inten    --     24.9871                 0.0195                22.8489

                     22                     23                     24
                      A                      A                      A
 Frequencies --   1046.9331              1090.2833              1153.0592
 Red. masses --      1.4781                 1.7847                 1.7369
 Frc consts  --      0.9545                 1.2499                 1.3606
 IR Inten    --      0.0208               178.3415                13.7894

                     25                     26                     27
                      A                      A                      A
 Frequencies --   1213.2197              1279.9741              1339.5910
 Red. masses --      3.1967                 1.8999                 4.9279
 Frc consts  --      2.7723                 1.8340                 5.2102
 IR Inten    --    302.9759               111.7019               140.6859

                     28                     29                     30
                      A                      A                      A
 Frequencies --   1363.6268              1387.2122              1409.4885
 Red. masses --      1.9717                 1.9449                 1.3863
 Frc consts  --      2.1601                 2.2051                 1.6227
 IR Inten    --    564.8082                58.3591               104.5168

                     31                     32                     33
                      A                      A                      A
 Frequencies --   1468.5007              1472.3530              1647.1662
 Red. masses --      1.0424                 1.0636                 8.5750
 Frc consts  --      1.3244                 1.3585                13.7075
 IR Inten    --     14.7780                14.1501               188.6182

                     34                     35                     36
                      A                      A                      A
 Frequencies --   1674.7671              1699.4044              1714.3086
 Red. masses --     10.5200                 9.2610                 7.6292
 Frc consts  --     17.3850                15.7580                13.2101
 IR Inten    --    978.0190               225.0916                25.9256

                     37                     38                     39
                      A                      A                      A
 Frequencies --   3035.9362              3082.4263              3138.9927
 Red. masses --      1.0386                 1.0999                 1.0994
 Frc consts  --      5.6400                 6.1575                 6.3823
 IR Inten    --     18.5956                16.2618                 8.7960

                     40                     41                     42
                      A                      A                      A
 Frequencies --   3188.2372              3204.9984              3638.9446
 Red. masses --      1.0878                 1.1001                 1.0648
 Frc consts  --      6.5146                 6.6579                 8.3073
 IR Inten    --      3.3145                 1.4242               259.9035

 - Thermochemistry -
 -------------------
 Temperature   298.150 Kelvin.  Pressure   1.00000 Atm.
 Atom     1 has atomic number  6 and mass  12.00000

 Molecular mass:   138.03169 amu.
 Principal axes and moments of inertia in atomic units:
                           1         2         3
     Eigenvalues --   884.065481336.590062209.54173
           X            0.58060   0.78591   0.21272
           Y            0.73840  -0.61834   0.26911
           Z           -0.34303  -0.00083   0.93932
 This molecule is an asymmetric top.
 Rotational symmetry number  1.
 Warning -- assumption of classical behavior for rotation
           may cause significant error
 Rotational temperatures (Kelvin)      0.09797     0.06480     0.03920
 Rotational constants (GHZ):           2.04141     1.35026     0.81679
 Zero-point vibrational energy     306183.5 (Joules/Mol)
                                   73.17960 (Kcal/Mol)
 Warning -- explicit consideration of  13 degrees of freedom as
           vibrations may cause significant error
 Vibrational temperatures:     87.00   133.15   166.63   358.58   387.87
          (Kelvin)            406.97   469.53   573.97   643.81   678.30
                              745.49   816.39   873.39   900.48   923.08
                             1095.45  1102.58  1220.06  1258.29  1436.82
                             1463.01  1506.30  1568.67  1658.99  1745.55
                             1841.60  1927.37  1961.95  1995.89  2027.94
                             2112.84  2118.39  2369.90  2409.62  2445.06
                             2466.51  4368.04  4434.92  4516.31  4587.16
                             4611.28  5235.63

 Zero-point correction=                           0.116619 (Hartree/Particle)
 Thermal correction to Energy=                    0.125683
 Thermal correction to Enthalpy=                  0.126627
 Thermal correction to Gibbs Free Energy=         0.082154
 Sum of electronic and zero-point Energies=           -496.044255
 Sum of electronic and thermal Energies=              -496.035191
 Sum of electronic and thermal Enthalpies=            -496.034247
 Sum of electronic and thermal Free Energies=         -496.078720

                     E (Thermal)             CV                S
                      KCal/Mol        Cal/Mol-Kelvin    Cal/Mol-Kelvin
 Total                   78.867             33.317             93.602
 Electronic               0.000              0.000              0.000
 Translational            0.889              2.981             40.679
 Rotational               0.889              2.981             29.347
 Vibrational             77.090             27.356             23.576
 Vibration     1          0.597              1.973              4.442
 Vibration     2          0.602              1.955              3.606
 Vibration     3          0.608              1.936              3.169
 Vibration     4          0.662              1.764              1.736
 Vibration     5          0.674              1.729              1.599
 Vibration     6          0.682              1.705              1.516
 Vibration     7          0.710              1.623              1.278
 Vibration     8          0.765              1.472              0.967
 Vibration     9          0.807              1.366              0.803
 Vibration    10          0.828              1.313              0.734
 Vibration    11          0.873              1.210              0.614
 Vibration    12          0.923              1.102              0.509
 Vibration    13          0.966              1.017              0.438

                           ! Non-Optimized Parameters !
 Normal termination of Gaussian 16 at Sat Feb 10 10:57:17 2024.
