 Q-Chem 5.4, Q-Chem, Inc., Pleasanton, CA (2021)
 Q-Chem 5.4.0 for Intel X86 EM64T Linux

User input:
--------------------------------------------------------------
$molecule
-2 1
C                 -4.4363580000     -0.5323060000     -3.5517020000
C                 -3.5501230000     -0.9481190000     -4.5284010000
C                 -2.1581250000     -0.8071200000     -4.3208310000
C                 -3.9918150000      0.0347360000     -2.3346210000
C                 -2.5829080000      0.1743360000     -2.1260890000
C                 -1.6979100000     -0.2558860000     -3.1376170000
C                 -4.9768160000      0.4562550000     -1.3378180000
C                 -4.4384090000      1.0099600000     -0.1374460000
C                 -3.0313210000      1.1591940000      0.0496560000
C                 -2.0340870000      0.7639670000     -0.8992960000
O                 -6.2380310000      0.3183970000     -1.5565870000
O                 -0.7781960000      0.8788870000     -0.7172070000
H                 -5.5100960000     -0.6247590000     -3.6786100000
H                 -3.9212780000     -1.3820890000     -5.4550360000
H                 -1.4551240000     -1.1323420000     -5.0849490000
H                 -0.6374830000     -0.1324590000     -2.9425110000
C                 -5.4313030000      1.4259290000      0.9181940000
S                 -2.4451230000      2.0592730000      1.4896410000
C                 -1.6561890000      0.8837340000      2.5627180000
C                 -1.3267340000      1.2725940000      3.8519250000
C                 -0.6922040000      0.3893340000      4.7578000000
C                 -0.3801560000     -0.9439910000      4.3291720000
C                 -0.7216010000     -1.3138020000      3.0005460000
C                 -1.3355720000     -0.4378540000      2.1393860000
C                 -0.3542030000      0.7653200000      6.0878080000
C                  0.2642960000     -0.1153040000      6.9477060000
C                  0.5705630000     -1.4298450000      6.5223980000
C                  0.2502960000     -1.8273880000      5.2416710000
H                 -5.4989730000      2.5191790000      1.0247840000
H                 -5.1676980000      1.0358430000      1.9082800000
H                 -6.4141050000      1.0542840000      0.6207220000
H                 -1.5679610000      2.2777330000      4.1881090000
H                 -0.4768850000     -2.3167940000      2.6603960000
H                 -1.5744880000     -0.7231990000      1.1239580000
H                 -0.5900330000      1.7739580000      6.4171260000
H                  0.5220700000      0.1958420000      7.9573800000
H                  1.0586690000     -2.1181650000      7.2074300000
H                  0.4824250000     -2.8361770000      4.9095450000
$end

$rem
BASIS  =  6-311++G(d,p)
GUI  =  2
JOB_TYPE  =  SP
METHOD  =  B3LYP
SCF_CONVERGENCE  = 8
SOLVENT_METHOD = sm12
$end

$smx
solvent dimethylformamide
charges CM5
$end

--------------------------------------------------------------

             Standard Nuclear Orientation (Angstroms)
    I     Atom           X                Y                Z
 ----------------------------------------------------------------
    1      C      -4.4363580000    -0.5323060000    -3.5517020000
    2      C      -3.5501230000    -0.9481190000    -4.5284010000
    3      C      -2.1581250000    -0.8071200000    -4.3208310000
    4      C      -3.9918150000     0.0347360000    -2.3346210000
    5      C      -2.5829080000     0.1743360000    -2.1260890000
    6      C      -1.6979100000    -0.2558860000    -3.1376170000
    7      C      -4.9768160000     0.4562550000    -1.3378180000
    8      C      -4.4384090000     1.0099600000    -0.1374460000
    9      C      -3.0313210000     1.1591940000     0.0496560000
   10      C      -2.0340870000     0.7639670000    -0.8992960000
   11      O      -6.2380310000     0.3183970000    -1.5565870000
   12      O      -0.7781960000     0.8788870000    -0.7172070000
   13      H      -5.5100960000    -0.6247590000    -3.6786100000
   14      H      -3.9212780000    -1.3820890000    -5.4550360000
   15      H      -1.4551240000    -1.1323420000    -5.0849490000
   16      H      -0.6374830000    -0.1324590000    -2.9425110000
   17      C      -5.4313030000     1.4259290000     0.9181940000
   18      S      -2.4451230000     2.0592730000     1.4896410000
   19      C      -1.6561890000     0.8837340000     2.5627180000
   20      C      -1.3267340000     1.2725940000     3.8519250000
   21      C      -0.6922040000     0.3893340000     4.7578000000
   22      C      -0.3801560000    -0.9439910000     4.3291720000
   23      C      -0.7216010000    -1.3138020000     3.0005460000
   24      C      -1.3355720000    -0.4378540000     2.1393860000
   25      C      -0.3542030000     0.7653200000     6.0878080000
   26      C       0.2642960000    -0.1153040000     6.9477060000
   27      C       0.5705630000    -1.4298450000     6.5223980000
   28      C       0.2502960000    -1.8273880000     5.2416710000
   29      H      -5.4989730000     2.5191790000     1.0247840000
   30      H      -5.1676980000     1.0358430000     1.9082800000
   31      H      -6.4141050000     1.0542840000     0.6207220000
   32      H      -1.5679610000     2.2777330000     4.1881090000
   33      H      -0.4768850000    -2.3167940000     2.6603960000
   34      H      -1.5744880000    -0.7231990000     1.1239580000
   35      H      -0.5900330000     1.7739580000     6.4171260000
   36      H       0.5220700000     0.1958420000     7.9573800000
   37      H       1.0586690000    -2.1181650000     7.2074300000
   38      H       0.4824250000    -2.8361770000     4.9095450000
 ----------------------------------------------------------------

   18   -1357.5714999368      7.80e-09  Convergence criterion met
 Total energy in the final basis set =    -1357.8489863692

                    Orbital Energies (a.u.)
 --------------------------------------------------------------

 Alpha MOs
 -- Occupied --
-88.8396 -19.0254 -19.0185 -10.2097 -10.1952 -10.1920 -10.1891 -10.1867
-10.1858 -10.1852 -10.1851 -10.1838 -10.1805 -10.1803 -10.1795 -10.1760
-10.1745 -10.1699 -10.1683 -10.1615 -10.1571 -10.1564 -10.1550 -10.1456
 -7.9246  -5.8886  -5.8844  -5.8791  -0.9497  -0.9374  -0.8857  -0.8469
 -0.8392  -0.8011  -0.7851  -0.7662  -0.7439  -0.7435  -0.7347  -0.7116
 -0.6711  -0.6416  -0.6320  -0.6161  -0.6065  -0.5899  -0.5767  -0.5415
 -0.5237  -0.5145  -0.5005  -0.4880  -0.4758  -0.4567  -0.4514  -0.4492
 -0.4362  -0.4306  -0.4260  -0.4222  -0.4112  -0.4054  -0.4004  -0.3917
 -0.3864  -0.3819  -0.3778  -0.3622  -0.3600  -0.3526  -0.3482  -0.3440
 -0.3410  -0.3299  -0.3223  -0.3203  -0.3073  -0.3011  -0.2735  -0.2489
 -0.2398  -0.2359  -0.2258  -0.2044  -0.2037  -0.1929  -0.1211

          Ground-State Mulliken Net Atomic Charges

     Atom                 Charge (a.u.)
  ----------------------------------------
      1 C                    -0.489771
      2 C                     1.478135
      3 C                     1.149409
      4 C                    -1.990170
      5 C                    -1.622254
      6 C                     0.162969
      7 C                    -2.036825
      8 C                    -0.173025
      9 C                     0.034745
     10 C                    -1.604260
     11 O                    -0.394001
     12 O                    -0.245321
     13 H                     0.105435
     14 H                     0.395885
     15 H                     0.394513
     16 H                     0.136018
     17 C                     0.498247
     18 S                    -0.396909
     19 C                    -1.027493
     20 C                    -1.388488
     21 C                     0.055734
     22 C                     0.411066
     23 C                    -0.890195
     24 C                    -1.127939
     25 C                     0.816447
     26 C                     1.558699
     27 C                     1.471636
     28 C                     0.606583
     29 H                     0.164489
     30 H                     0.137849
     31 H                     0.140434
     32 H                     0.285049
     33 H                     0.281817
     34 H                    -0.293060
     35 H                     0.313335
     36 H                     0.395991
     37 H                     0.386410
     38 H                     0.298818
  ----------------------------------------
  Sum of atomic charges =    -2.000000

                    Cartesian Multipole Moments
 -----------------------------------------------------------------
    Charge (ESU x 10^10)
                -9.6064
    Dipole Moment (Debye)
         X      32.3773      Y      -5.6592      Z       8.3387
       Tot      33.9095
    Quadrupole Moments (Debye-Ang)
        XX    -325.2636     XY      12.5289     YY    -165.5755
        XZ     -40.2824     YZ      -1.3600     ZZ    -203.1247

 Total job time:  1701.47s(wall), 13064.86s(cpu)
        *  Thank you very much for using Q-Chem.  Have a nice day.  *
