 Gaussian 16, Revision A.03,
 Gaussian 16:  ES64L-G16RevA.03 25-Dec-2016

 ----------------------------------------------------------------------
 #P UB3LYP/6-311++G(d,p) nosym opt freq SCRF=(PCM,Solvent=n,n-DiMethylF
 ormamide)
 ----------------------------------------------------------------------

 -------
 Reduced
 -------
 Symbolic Z-matrix:
 Charge = -2 Multiplicity = 1

 SCF Done:  E(UB3LYP) =  -839.688214123     A.U. after   18 cycles
 SCF Done:  E(UB3LYP) =  -839.690087722     A.U. after   13 cycles
 SCF Done:  E(UB3LYP) =  -839.690505325     A.U. after   13 cycles
 SCF Done:  E(UB3LYP) =  -839.690571374     A.U. after   13 cycles
 SCF Done:  E(UB3LYP) =  -839.690646916     A.U. after   12 cycles
 SCF Done:  E(UB3LYP) =  -839.690708438     A.U. after   12 cycles
 SCF Done:  E(UB3LYP) =  -839.690751188     A.U. after   11 cycles
 SCF Done:  E(UB3LYP) =  -839.690761171     A.U. after   11 cycles
 SCF Done:  E(UB3LYP) =  -839.690763774     A.U. after   11 cycles
 Optimization completed.
    -- Stationary point found.
 Normal termination of Gaussian 16 at Sat Feb 10 22:50:49 2024.

 ----------------------------------------------------------------------
 #P Geom=AllCheck Guess=TCheck SCRF=Check GenChk UB3LYP/6-311++G(d,p) F
 req
 ----------------------------------------------------------------------

 Structure from the checkpoint file:  "188-an.chk"
 -------
 Reduced
 -------
 Charge = -2 Multiplicity = 1

                          Input orientation:
 ---------------------------------------------------------------------
 Center     Atomic      Atomic             Coordinates (Angstroms)
 Number     Number       Type             X           Y           Z
 ---------------------------------------------------------------------
      1          8           0        5.065382   -0.249100   -0.448253
      2          6           0        3.733373    0.100047   -0.268616
      3          6           0        3.476409    1.469885    0.008801
      4          6           0        2.178733    1.881245    0.199297
      5          6           0        1.068723    0.992668    0.130989
      6          6           0       -0.261802    1.496942    0.343629
      7          8           0       -0.501163    2.755073    0.599825
      8          6           0       -1.307423    0.519115    0.252049
      9          6           0       -2.665803    0.915838    0.445231
     10          6           0       -3.696332    0.016295    0.365195
     11          8           0       -4.997179    0.463825    0.561479
     12          6           0       -3.437148   -1.353376    0.086258
     13          6           0       -2.138658   -1.766097   -0.104066
     14          6           0       -1.031293   -0.877052   -0.033780
     15          6           0        0.300317   -1.380987   -0.245655
     16          8           0        0.540682   -2.639602   -0.501506
     17          6           0        1.343044   -0.403438   -0.154027
     18          6           0        2.703399   -0.800164   -0.347466
     19          1           0        5.118867   -1.195391   -0.626127
     20          1           0        4.306550    2.166055    0.066404
     21          1           0        1.966055    2.922592    0.412770
     22          1           0       -2.868883    1.959210    0.657666
     23          1           0       -5.604095   -0.278416    0.465267
     24          1           0       -4.260815   -2.059927    0.024647
     25          1           0       -1.926716   -2.807367   -0.318252
     26          1           0        2.895777   -1.847870   -0.559005
 ---------------------------------------------------------------------

 SCF Done:  E(UB3LYP) =  -839.690763774     A.U. after    1 cycles

 Alpha  occ. eigenvalues --  -19.14051 -19.14018 -19.01567 -19.01546 -10.21016
 Alpha  occ. eigenvalues --  -10.20993 -10.16979 -10.16961 -10.15385 -10.15183
 Alpha  occ. eigenvalues --  -10.15108 -10.15027 -10.14308 -10.14079 -10.13736
 Alpha  occ. eigenvalues --  -10.13723 -10.13582 -10.13530  -1.04463  -1.04439
 Alpha  occ. eigenvalues --   -0.92731  -0.92297  -0.82655  -0.82040  -0.75233
 Alpha  occ. eigenvalues --   -0.72748  -0.72409  -0.70462  -0.64112  -0.62283
 Alpha  occ. eigenvalues --   -0.59849  -0.57469  -0.54935  -0.52892  -0.51165
 Alpha  occ. eigenvalues --   -0.49690  -0.46481  -0.44314  -0.44053  -0.41545
 Alpha  occ. eigenvalues --   -0.40801  -0.40296  -0.39900  -0.39369  -0.39149
 Alpha  occ. eigenvalues --   -0.37912  -0.36341  -0.36246  -0.35866  -0.35407
 Alpha  occ. eigenvalues --   -0.32570  -0.32330  -0.32114  -0.31130  -0.29917
 Alpha  occ. eigenvalues --   -0.28084  -0.23183  -0.22398  -0.21215  -0.19934
 Alpha  occ. eigenvalues --   -0.19848  -0.19321  -0.10492
 Alpha virt. eigenvalues --   -0.02737  -0.00151   0.00279   0.01261   0.01330
 Alpha virt. eigenvalues --    0.01827   0.01913   0.02480   0.04063   0.04603
 Alpha virt. eigenvalues --    0.05116   0.05142   0.06049   0.06597   0.06850

  Beta  occ. eigenvalues --  -19.14051 -19.14018 -19.01567 -19.01546 -10.21016
  Beta  occ. eigenvalues --  -10.20993 -10.16979 -10.16961 -10.15385 -10.15183
  Beta  occ. eigenvalues --  -10.15108 -10.15027 -10.14308 -10.14079 -10.13736
  Beta  occ. eigenvalues --  -10.13723 -10.13582 -10.13530  -1.04463  -1.04439
  Beta  occ. eigenvalues --   -0.92731  -0.92297  -0.82655  -0.82040  -0.75233
  Beta  occ. eigenvalues --   -0.72748  -0.72409  -0.70462  -0.64112  -0.62283
  Beta  occ. eigenvalues --   -0.59849  -0.57469  -0.54935  -0.52892  -0.51165
  Beta  occ. eigenvalues --   -0.49690  -0.46481  -0.44314  -0.44053  -0.41545
  Beta  occ. eigenvalues --   -0.40801  -0.40296  -0.39900  -0.39369  -0.39149
  Beta  occ. eigenvalues --   -0.37912  -0.36341  -0.36246  -0.35866  -0.35407
  Beta  occ. eigenvalues --   -0.32570  -0.32330  -0.32114  -0.31130  -0.29917
  Beta  occ. eigenvalues --   -0.28084  -0.23183  -0.22398  -0.21215  -0.19934
  Beta  occ. eigenvalues --   -0.19848  -0.19321  -0.10492
  Beta virt. eigenvalues --   -0.02737  -0.00151   0.00279   0.01261   0.01330
  Beta virt. eigenvalues --    0.01827   0.01913   0.02480   0.04063   0.04603
  Beta virt. eigenvalues --    0.05116   0.05142   0.06049   0.06597   0.06850

 Mulliken charges and spin densities:
               1          2
     1  O   -0.324414   0.000000
     2  C   -0.612449  -0.000000
     3  C   -0.200815   0.000000
     4  C   -0.030370  -0.000000
     5  C    0.206343   0.000000
     6  C   -0.475869   0.000000
     7  O   -0.686622  -0.000000
     8  C    0.582894  -0.000000
     9  C   -0.367562   0.000000
    10  C   -0.690916   0.000000
    11  O   -0.312858   0.000000
    12  C   -0.101934  -0.000000
    13  C   -0.083192  -0.000000
    14  C    0.176594   0.000000
    15  C   -0.390785   0.000000
    16  O   -0.691180   0.000000
    17  C    0.499920  -0.000000
    18  C   -0.029433   0.000000
    19  H    0.297044  -0.000000
    20  H    0.185852   0.000000
    21  H    0.151888   0.000000
    22  H    0.161747  -0.000000
    23  H    0.288521  -0.000000
    24  H    0.162486  -0.000000
    25  H    0.153343  -0.000000
    26  H    0.131765   0.000000
 Sum of Mulliken charges =  -2.00000   0.00000

 Dipole moment (field-independent basis, Debye):
    X=             -1.2694    Y=             -3.9039    Z=             -1.0161  Tot=              4.2290
 Quadrupole moment (field-independent basis, Debye-Ang):
   XX=           -135.1747   YY=           -161.3169   ZZ=           -118.4457
   XY=             10.9827   XZ=              3.8313   YZ=             -9.5555

  Exact polarizability: 550.456  17.527 366.535 -31.539  38.558 162.584
 Approx polarizability: 612.261  13.076 431.436 -36.419  48.154 180.637

                      1                      2                      3
                      A                      A                      A
 Frequencies --     46.0970                90.6969               109.5869
 Red. masses --      9.1459                 4.5724                 6.7143
 Frc consts  --      0.0115                 0.0222                 0.0475
 IR Inten    --     17.5259                 6.4247                 1.1719

                      4                      5                      6
                      A                      A                      A
 Frequencies --    157.5542               169.6879               189.6485
 Red. masses --      8.1817                 6.6152                 2.8241
 Frc consts  --      0.1197                 0.1122                 0.0598
 IR Inten    --     15.3542                18.8111                41.6008

                      7                      8                      9
                      A                      A                      A
 Frequencies --    200.3972               241.3611               280.6818
 Red. masses --      1.3542                 8.5464                 3.5363
 Frc consts  --      0.0320                 0.2933                 0.1641
 IR Inten    --    114.3795                 5.6878                35.3092

                     10                     11                     12
                      A                      A                      A
 Frequencies --    306.7654               320.3010               330.1372
 Red. masses --      1.3031                 8.4113                 6.1010
 Frc consts  --      0.0723                 0.5084                 0.3918
 IR Inten    --    129.5593                 1.5186                 3.8922

                     13                     14                     15
                      A                      A                      A
 Frequencies --    343.2505               384.0273               397.0392
 Red. masses --     12.1190                 6.3379                 4.9971
 Frc consts  --      0.8413                 0.5507                 0.4641
 IR Inten    --      1.2000                13.9366                33.8501

                     16                     17                     18
                      A                      A                      A
 Frequencies --    421.2296               446.0805               466.3147
 Red. masses --      3.2170                 8.3733                 3.9366
 Frc consts  --      0.3363                 0.9817                 0.5043
 IR Inten    --      9.5851                 1.4600                 9.7163

                     19                     20                     21
                      A                      A                      A
 Frequencies --    467.5381               499.8985               538.1582
 Red. masses --      3.6157                10.6727                 6.7872
 Frc consts  --      0.4657                 1.5714                 1.1581
 IR Inten    --      8.5454                 2.1314                51.4228

                     22                     23                     24
                      A                      A                      A
 Frequencies --    556.4217               638.6061               647.5543
 Red. masses --      3.4959                 6.5806                 3.9841
 Frc consts  --      0.6377                 1.5812                 0.9843
 IR Inten    --     38.7120                 2.1771                 0.2186

                     25                     26                     27
                      A                      A                      A
 Frequencies --    655.3314               696.4143               703.2887
 Red. masses --      6.5831                 6.4288                 4.2292
 Frc consts  --      1.6657                 1.8370                 1.2325
 IR Inten    --     22.4142                 1.8199                 1.3093

                     28                     29                     30
                      A                      A                      A
 Frequencies --    718.7658               723.9076               756.9993
 Red. masses --      5.2552                 7.0109                 1.7958
 Frc consts  --      1.5996                 2.1647                 0.6063
 IR Inten    --     64.3198               145.5686                 1.9741

                     31                     32                     33
                      A                      A                      A
 Frequencies --    785.7954               799.3891               804.7965
 Red. masses --      1.7966                 7.0023                 2.7835
 Frc consts  --      0.6536                 2.6364                 1.0622
 IR Inten    --     51.7236                 0.2767                 7.2437

                     34                     35                     36
                      A                      A                      A
 Frequencies --    865.8626               874.7961               877.0063
 Red. masses --      1.5496                 5.3434                 1.6042
 Frc consts  --      0.6845                 2.4093                 0.7270
 IR Inten    --     36.7789               226.1862                58.6712

                     37                     38                     39
                      A                      A                      A
 Frequencies --    959.2160               967.4021               969.7953
 Red. masses --      1.3103                 2.1680                 1.3724
 Frc consts  --      0.7103                 1.1954                 0.7605
 IR Inten    --      4.8956                87.8894                13.9349

                     40                     41                     42
                      A                      A                      A
 Frequencies --    982.7423              1069.7879              1111.2728
 Red. masses --      3.5275                 3.6718                 2.1082
 Frc consts  --      2.0072                 2.4759                 1.5339
 IR Inten    --      5.7519               711.5493               677.3721

                     43                     44                     45
                      A                      A                      A
 Frequencies --   1116.8371              1129.2953              1157.4251
 Red. masses --      1.6449                 2.2734                 1.6116
 Frc consts  --      1.2088                 1.7082                 1.2720
 IR Inten    --    103.3694               143.0269                79.8484

                     46                     47                     48
                      A                      A                      A
 Frequencies --   1164.7031              1189.0614              1200.7522
 Red. masses --      1.5536                 1.7181                 1.6147
 Frc consts  --      1.2417                 1.4312                 1.3717
 IR Inten    --   1421.8852               101.3739                50.7708

                     49                     50                     51
                      A                      A                      A
 Frequencies --   1221.6260              1237.8747              1268.2216
 Red. masses --      5.1717                 2.5176                 2.5217
 Frc consts  --      4.5474                 2.2729                 2.3897
 IR Inten    --     13.8890               147.1237               174.3948

                     52                     53                     54
                      A                      A                      A
 Frequencies --   1310.9024              1338.4327              1352.7249
 Red. masses --      5.6417                 4.2765                 2.2703
 Frc consts  --      5.7122                 4.5137                 2.4476
 IR Inten    --     64.0943              2488.5294               397.9359

                     55                     56                     57
                      A                      A                      A
 Frequencies --   1358.3322              1436.0169              1449.6206
 Red. masses --      4.1065                 3.7381                 7.6582
 Frc consts  --      4.4641                 4.5417                 9.4817
 IR Inten    --    609.9129               130.0273                16.6246

                     58                     59                     60
                      A                      A                      A
 Frequencies --   1466.7343              1495.6292              1507.9195
 Red. masses --      3.1694                 3.3916                 6.3900
 Frc consts  --      4.0172                 4.4700                 8.5606
 IR Inten    --    245.0477                 3.9718                 4.5006

                     61                     62                     63
                      A                      A                      A
 Frequencies --   1546.3950              1581.8379              1622.0198
 Red. masses --      5.5118                 7.0940                 6.5891
 Frc consts  --      7.7658                10.4584                10.2138
 IR Inten    --     37.0382                 3.2276               632.0323

                     64                     65                     66
                      A                      A                      A
 Frequencies --   1634.8941              3137.9097              3152.0857
 Red. masses --      6.0084                 1.0886                 1.0888
 Frc consts  --      9.4621                 6.3153                 6.3737
 IR Inten    --    154.6316                37.5775                50.3542

                     67                     68                     69
                      A                      A                      A
 Frequencies --   3160.6795              3175.7367              3180.4073
 Red. masses --      1.0869                 1.0891                 1.0907
 Frc consts  --      6.3974                 6.4713                 6.4998
 IR Inten    --     13.2453                28.3968                53.7047

                     70                     71                     72
                      A                      A                      A
 Frequencies --   3181.7105              3813.4205              3821.8980
 Red. masses --      1.0925                 1.0661                 1.0664
 Frc consts  --      6.5163                 9.1339                 9.1779
 IR Inten    --     32.7472                90.1930               150.9105

 - Thermochemistry -
 -------------------
 Temperature   298.150 Kelvin.  Pressure   1.00000 Atm.
 Atom     1 has atomic number  8 and mass  15.99491

 Molecular mass:   240.04226 amu.
 Principal axes and moments of inertia in atomic units:
                           1         2         3
     Eigenvalues --  1809.713386879.746758689.45706
           X            0.99591  -0.02913   0.08555
           Y            0.04447   0.98206  -0.18323
           Z           -0.07867   0.18629   0.97934
 This molecule is an asymmetric top.
 Rotational symmetry number  1.
 Warning -- assumption of classical behavior for rotation
           may cause significant error
 Rotational temperatures (Kelvin)      0.04786     0.01259     0.00997
 Rotational constants (GHZ):           0.99725     0.26233     0.20769
 Zero-point vibrational energy     478402.8 (Joules/Mol)
                                  114.34102 (Kcal/Mol)
 Warning -- explicit consideration of  22 degrees of freedom as
           vibrations may cause significant error
 Vibrational temperatures:     66.32   130.49   157.67   226.69   244.14
          (Kelvin)            272.86   288.33   347.26   403.84   441.37
                              460.84   474.99   493.86   552.53   571.25
                              606.06   641.81   670.92   672.68   719.24
                              774.29   800.57   918.81   931.69   942.88
                             1001.98  1011.88  1034.14  1041.54  1089.15
                             1130.58  1150.14  1157.92  1245.78  1258.64
                             1261.82  1380.10  1391.88  1395.32  1413.95
                             1539.19  1598.87  1606.88  1624.80  1665.28
                             1675.75  1710.79  1727.61  1757.65  1781.03
                             1824.69  1886.10  1925.71  1946.27  1954.34
                             2066.11  2085.68  2110.30  2151.88  2169.56
                             2224.92  2275.91  2333.72  2352.25  4514.75
                             4535.15  4547.51  4569.18  4575.90  4577.77
                             5486.66  5498.86

 Zero-point correction=                           0.182214 (Hartree/Particle)
 Thermal correction to Energy=                    0.196349
 Thermal correction to Enthalpy=                  0.197294
 Thermal correction to Gibbs Free Energy=         0.141773
 Sum of electronic and zero-point Energies=           -839.508550
 Sum of electronic and thermal Energies=              -839.494414
 Sum of electronic and thermal Enthalpies=            -839.493470
 Sum of electronic and thermal Free Energies=         -839.548991

                     E (Thermal)             CV                S
                      KCal/Mol        Cal/Mol-Kelvin    Cal/Mol-Kelvin
 Total                  123.211             56.914            116.853
 Electronic               0.000              0.000              0.000
 Translational            0.889              2.981             42.328
 Rotational               0.889              2.981             33.047
 Vibrational            121.434             50.952             41.477
 Vibration     1          0.595              1.979              4.978
 Vibration     2          0.602              1.956              3.645
 Vibration     3          0.606              1.942              3.276
 Vibration     4          0.621              1.894              2.579
 Vibration     5          0.625              1.880              2.439
 Vibration     6          0.633              1.854              2.231
 Vibration     7          0.638              1.839              2.129
 Vibration     8          0.658              1.777              1.793
 Vibration     9          0.680              1.709              1.530
 Vibration    10          0.697              1.661              1.380
 Vibration    11          0.706              1.635              1.309
 Vibration    12          0.713              1.615              1.259
 Vibration    13          0.722              1.589              1.197
 Vibration    14          0.753              1.504              1.023
 Vibration    15          0.764              1.476              0.974
 Vibration    16          0.784              1.424              0.888
 Vibration    17          0.805              1.370              0.808
 Vibration    18          0.824              1.325              0.748
 Vibration    19          0.825              1.322              0.744
 Vibration    20          0.855              1.250              0.658
 Vibration    21          0.893              1.166              0.569
 Vibration    22          0.912              1.126              0.531

 Optimization completed.
    -- Stationary point found.
 Normal termination of Gaussian 16 at Sun Feb 11 00:07:27 2024.
