 Q-Chem 5.4, Q-Chem, Inc., Pleasanton, CA (2021)
 Q-Chem 5.4.0 for Intel X86 EM64T Linux

User input:
--------------------------------------------------------------
$molecule
0 1
C                  2.1431220000      3.8561910000      5.4456060000
C                  3.0813790000      3.2315970000      4.4830000000
C                  2.6721720000      2.2998280000      3.6142060000
C                  1.2527630000      1.8661310000      3.5802720000
C                  0.3156580000      2.5054340000      4.5343540000
C                  0.7042010000      3.4390900000      5.4193600000
O                  2.5449180000      4.6933030000      6.2433580000
O                  0.8717500000      1.0165150000      2.7917400000
C                 -0.2113410000      4.1393430000      6.4147940000
C                 -1.6596670000      3.6795730000      6.3825760000
O                  0.2659640000      3.9361990000      7.7467590000
H                  4.1088730000      3.5735100000      4.5406190000
H                  3.3381970000      1.8210300000      2.9050770000
H                 -0.7103490000      2.1639110000      4.4636780000
H                 -0.1749360000      5.2124930000      6.1773880000
H                 -2.1157420000      3.8578090000      5.4060960000
H                 -2.2212490000      4.2399560000      7.1312970000
H                 -1.7378900000      2.6174780000      6.6269220000
H                  1.1239390000      4.3757990000      7.8119090000
$end

$rem
BASIS  =  6-311++G(d,p)
GUI  =  2
JOB_TYPE  =  SP
METHOD  =  B3LYP
SCF_CONVERGENCE  = 8
SOLVENT_METHOD = sm12
$end

$smx
solvent dimethylformamide
charges CM5
$end

--------------------------------------------------------------

             Standard Nuclear Orientation (Angstroms)
    I     Atom           X                Y                Z
 ----------------------------------------------------------------
    1      C       2.1431220000     3.8561910000     5.4456060000
    2      C       3.0813790000     3.2315970000     4.4830000000
    3      C       2.6721720000     2.2998280000     3.6142060000
    4      C       1.2527630000     1.8661310000     3.5802720000
    5      C       0.3156580000     2.5054340000     4.5343540000
    6      C       0.7042010000     3.4390900000     5.4193600000
    7      O       2.5449180000     4.6933030000     6.2433580000
    8      O       0.8717500000     1.0165150000     2.7917400000
    9      C      -0.2113410000     4.1393430000     6.4147940000
   10      C      -1.6596670000     3.6795730000     6.3825760000
   11      O       0.2659640000     3.9361990000     7.7467590000
   12      H       4.1088730000     3.5735100000     4.5406190000
   13      H       3.3381970000     1.8210300000     2.9050770000
   14      H      -0.7103490000     2.1639110000     4.4636780000
   15      H      -0.1749360000     5.2124930000     6.1773880000
   16      H      -2.1157420000     3.8578090000     5.4060960000
   17      H      -2.2212490000     4.2399560000     7.1312970000
   18      H      -1.7378900000     2.6174780000     6.6269220000
   19      H       1.1239390000     4.3757990000     7.8119090000
 ----------------------------------------------------------------

   15    -535.4579410897      2.08e-09  Convergence criterion met
 Total energy in the final basis set =     -535.4766058626

                    Orbital Energies (a.u.)
 --------------------------------------------------------------

 Alpha MOs
 -- Occupied --
-19.1474 -19.1411 -19.1263 -10.2913 -10.2858 -10.2416 -10.2194 -10.2126
-10.2118 -10.2100 -10.1644  -1.0786  -1.0705  -1.0307  -0.8684  -0.8101
 -0.7527  -0.7122  -0.6606  -0.6148  -0.5932  -0.5368  -0.5208  -0.5122
 -0.4874  -0.4746  -0.4525  -0.4484  -0.4357  -0.4240  -0.4184  -0.3986
 -0.3920  -0.3796  -0.3558  -0.3144  -0.3002  -0.2984  -0.2928  -0.2738

          Ground-State Mulliken Net Atomic Charges

     Atom                 Charge (a.u.)
  ----------------------------------------
      1 C                    -1.178882
      2 C                     0.759974
      3 C                     0.539594
      4 C                    -0.962563
      5 C                    -0.886065
      6 C                     1.555304
      7 O                    -0.309520
      8 O                    -0.329165
      9 C                    -0.445390
     10 C                    -0.356119
     11 O                    -0.288219
     12 H                     0.332089
     13 H                     0.325413
     14 H                     0.277451
     15 H                     0.205464
     16 H                     0.202601
     17 H                     0.156415
     18 H                     0.142936
     19 H                     0.258681
  ----------------------------------------
  Sum of atomic charges =     0.000000

                    Cartesian Multipole Moments
 -----------------------------------------------------------------
    Charge (ESU x 10^10)
                -0.0000
    Dipole Moment (Debye)
         X       0.7063      Y       1.0656      Z      -1.2608
       Tot       1.7955
    Quadrupole Moments (Debye-Ang)
        XX     -55.0957     XY      -1.3498     YY     -64.5115
        XZ      -1.2248     YZ      -5.2057     ZZ     -89.4697

 Total job time:  191.52s(wall), 1482.08s(cpu)
        *  Thank you very much for using Q-Chem.  Have a nice day.  *
