 Gaussian 16, Revision A.03,
 Gaussian 16:  ES64L-G16RevA.03 25-Dec-2016

 ----------------------------------------------------------------
 #P UB3LYP/6-311++G(d,p) SCRF=(PCM,Solvent=n,n-DiMethylFormamide)
 ----------------------------------------------------------------

 ------------------
 Quinone PCM in DMF
 ------------------
 Symbolic Z-matrix:
 Charge =  0 Multiplicity = 1

                         Standard orientation:
 ---------------------------------------------------------------------
 Center     Atomic      Atomic             Coordinates (Angstroms)
 Number     Number       Type             X           Y           Z
 ---------------------------------------------------------------------
      1          6           0       -4.495850    0.250081   -1.162444
      2          6           0       -3.613192    1.222805   -0.437040
      3          6           0       -3.167471    0.938650    0.803675
      4          6           0       -3.540564   -0.346140    1.463546
      5          6           0       -4.457913   -1.305362    0.749394
      6          6           0       -4.924625   -1.000653   -0.491249
      7          8           0       -4.849945    0.478020   -2.311683
      8          8           0       -3.126138   -0.621849    2.573496
      9          6           0       -6.963725   -1.480678   -1.659707
     10          6           0       -5.668157   -3.378400    1.153576
     11          1           0       -7.389621   -2.346604   -2.164893
     12          1           0       -6.892143   -0.643326   -2.351856
     13          1           0       -7.590432   -1.213558   -0.801270
     14          1           0       -5.657589   -4.072305    1.992490
     15          1           0       -5.421612   -3.894206    0.227380
     16          6           0       -2.259496    1.851154    1.601125
     17          6           0       -0.798088    1.544080    1.357270
     18          6           0        0.183281    2.389717    1.014315
     19          6           0        1.594785    1.869627    0.827313
     20          6           0        2.072285    1.854319   -0.647071
     21          6           0        3.499575    1.398837   -0.777237
     22          6           0        3.979489    0.298839   -1.374823
     23          6           0        5.469704    0.023026   -1.374067
     24          6           0        5.891796   -1.187911   -0.504570
     25          6           0        7.370015   -1.453088   -0.578640
     26          6           0        8.281921   -1.393147    0.401033
     27          6           0        9.735761   -1.690709    0.123412
     28          6           0        0.009330    3.875543    0.816239
     29          6           0        3.130803   -0.725784   -2.087494
     30          6           0        7.983767   -1.043084    1.837386
     31          1           0       -2.475543    1.693557    2.662153
     32          1           0       -2.492707    2.889857    1.368181
     33          1           0       -0.534595    0.499357    1.507303
     34          1           0        1.667928    0.854066    1.225931
     35          1           0        2.289207    2.486749    1.412804
     36          1           0        1.989210    2.866499   -1.061583
     37          1           0        1.393846    1.225615   -1.227753
     38          1           0        4.225823    2.061051   -0.305197
     39          1           0        6.006601    0.907863   -1.020332
     40          1           0        5.805771   -0.155662   -2.404512
     41          1           0        5.358564   -2.081354   -0.851639
     42          1           0        5.564646   -1.013993    0.523001
     43          1           0        7.729648   -1.716596   -1.573516
     44          1           0        9.906341   -1.939271   -0.926016
     45          1           0       10.088476   -2.530126    0.734680
     46          1           0       -1.019469    4.210913    0.945807
     47          1           0        0.338376    4.186400   -0.180763
     48          1           0        0.629470    4.425537    1.533715
     49          1           0        2.072916   -0.466033   -2.106955
     50          1           0        3.219913   -1.710645   -1.616969
     51          1           0        3.467119   -0.843651   -3.124303
     52          1           0        6.934426   -0.811632    2.017302
     53          1           0        8.578953   -0.177679    2.151781
     54          1           0        8.264793   -1.870075    2.500315
     55          1           0       10.368046   -0.831776    0.378453
     56          8           0       -4.674873   -2.397553    1.486940
     57          8           0       -5.660677   -1.895732   -1.213114
     58          6           0       -3.267211    2.485755   -1.176083
     59          1           0       -6.654844   -2.917498    1.069382
     60          1           0       -2.202813    2.710699   -1.089527
     61          1           0       -3.821234    3.338712   -0.767959
     62          1           0       -3.531737    2.391158   -2.227910
 ---------------------------------------------------------------------

 SCF Done:  E(UB3LYP) =  -1236.18941036     A.U. after   16 cycles

 The electronic state is 1-A.
 Alpha  occ. eigenvalues --  -19.18086 -19.16032 -19.14081 -19.13488 -10.28790
 Alpha  occ. eigenvalues --  -10.28323 -10.26815 -10.25215 -10.22815 -10.22079
 Alpha  occ. eigenvalues --  -10.21396 -10.21005 -10.18376 -10.18153 -10.17699
 Alpha  occ. eigenvalues --  -10.17584 -10.17351 -10.17014 -10.17011 -10.16950
 Alpha  occ. eigenvalues --  -10.16813 -10.16767 -10.16520 -10.16175 -10.16175
 Alpha  occ. eigenvalues --  -10.16164 -10.16102 -10.16043  -1.10552  -1.08216
 Alpha  occ. eigenvalues --   -1.06847  -1.05603  -0.86619  -0.83219  -0.82401
 Alpha  occ. eigenvalues --   -0.81211  -0.80488  -0.77209  -0.75459  -0.74552
 Alpha  occ. eigenvalues --   -0.73503  -0.72025  -0.69237  -0.69229  -0.68768
 Alpha  occ. eigenvalues --   -0.67856  -0.66842  -0.65430  -0.62354  -0.59947
 Alpha  occ. eigenvalues --   -0.59784  -0.58773  -0.55783  -0.53496  -0.52587
 Alpha  occ. eigenvalues --   -0.52130  -0.51655  -0.51463  -0.49752  -0.48119
 Alpha  occ. eigenvalues --   -0.47875  -0.47646  -0.46848  -0.46650  -0.46583
 Alpha  occ. eigenvalues --   -0.45619  -0.44826  -0.44670  -0.44371  -0.43730
 Alpha  occ. eigenvalues --   -0.43345  -0.43190  -0.42609  -0.42216  -0.41562
 Alpha  occ. eigenvalues --   -0.41307  -0.41168  -0.40886  -0.40539  -0.39846
 Alpha  occ. eigenvalues --   -0.39031  -0.38488  -0.38187  -0.37581  -0.37432
 Alpha  occ. eigenvalues --   -0.37289  -0.37161  -0.36619  -0.36572  -0.36079
 Alpha  occ. eigenvalues --   -0.35845  -0.35805  -0.35276  -0.33861  -0.33344
 Alpha  occ. eigenvalues --   -0.33004  -0.31816  -0.31648  -0.28935  -0.28714
 Alpha  occ. eigenvalues --   -0.27563  -0.25266  -0.24620  -0.24199  -0.22995
 Alpha virt. eigenvalues --   -0.12616  -0.01393  -0.01193  -0.00771  -0.00246
 Alpha virt. eigenvalues --   -0.00047   0.00182   0.00380   0.00608   0.00746
 Alpha virt. eigenvalues --    0.01104   0.01458   0.01580   0.01675   0.02166

  Beta  occ. eigenvalues --  -19.18086 -19.16032 -19.14081 -19.13488 -10.28790
  Beta  occ. eigenvalues --  -10.28323 -10.26815 -10.25215 -10.22815 -10.22079
  Beta  occ. eigenvalues --  -10.21396 -10.21005 -10.18376 -10.18153 -10.17699
  Beta  occ. eigenvalues --  -10.17584 -10.17351 -10.17014 -10.17011 -10.16950
  Beta  occ. eigenvalues --  -10.16813 -10.16767 -10.16520 -10.16175 -10.16175
  Beta  occ. eigenvalues --  -10.16164 -10.16102 -10.16043  -1.10552  -1.08216
  Beta  occ. eigenvalues --   -1.06847  -1.05603  -0.86619  -0.83219  -0.82401
  Beta  occ. eigenvalues --   -0.81211  -0.80488  -0.77209  -0.75459  -0.74552
  Beta  occ. eigenvalues --   -0.73503  -0.72025  -0.69237  -0.69229  -0.68768
  Beta  occ. eigenvalues --   -0.67856  -0.66842  -0.65430  -0.62354  -0.59947
  Beta  occ. eigenvalues --   -0.59784  -0.58773  -0.55783  -0.53496  -0.52587
  Beta  occ. eigenvalues --   -0.52130  -0.51655  -0.51463  -0.49752  -0.48119
  Beta  occ. eigenvalues --   -0.47875  -0.47646  -0.46848  -0.46650  -0.46583
  Beta  occ. eigenvalues --   -0.45619  -0.44826  -0.44670  -0.44371  -0.43730
  Beta  occ. eigenvalues --   -0.43345  -0.43190  -0.42609  -0.42216  -0.41562
  Beta  occ. eigenvalues --   -0.41307  -0.41168  -0.40886  -0.40539  -0.39846
  Beta  occ. eigenvalues --   -0.39031  -0.38488  -0.38187  -0.37581  -0.37432
  Beta  occ. eigenvalues --   -0.37289  -0.37161  -0.36619  -0.36572  -0.36079
  Beta  occ. eigenvalues --   -0.35845  -0.35805  -0.35276  -0.33861  -0.33344
  Beta  occ. eigenvalues --   -0.33004  -0.31816  -0.31648  -0.28935  -0.28714
  Beta  occ. eigenvalues --   -0.27563  -0.25266  -0.24620  -0.24199  -0.22995
  Beta virt. eigenvalues --   -0.12616  -0.01393  -0.01193  -0.00771  -0.00246
  Beta virt. eigenvalues --   -0.00047   0.00182   0.00380   0.00608   0.00746
  Beta virt. eigenvalues --    0.01104   0.01458   0.01580   0.01675   0.02166

 Mulliken charges and spin densities:
               1          2
     1  C   -0.749801   0.000000
     2  C    0.759792  -0.000000
     3  C    1.181388  -0.000000
     4  C   -0.872293   0.000000
     5  C   -0.077561   0.000000
     6  C    0.027627   0.000000
     7  O   -0.296666   0.000000
     8  O   -0.253919  -0.000000
     9  C   -0.298914   0.000000
    10  C   -0.298697  -0.000000
    11  H    0.169756   0.000000
    12  H    0.171816   0.000000
    13  H    0.147406   0.000000
    14  H    0.193811  -0.000000
    15  H    0.197313  -0.000000
    16  C    0.075156   0.000000
    17  C   -0.811458  -0.000000
    18  C    0.736209   0.000000
    19  C   -0.520095  -0.000000
    20  C   -0.104852   0.000000
    21  C   -0.352419   0.000000
    22  C    0.546565  -0.000000
    23  C   -0.602277  -0.000000
    24  C   -0.226775  -0.000000
    25  C    0.030225  -0.000000
    26  C    0.265216   0.000000
    27  C   -0.621125   0.000000
    28  C   -0.730097   0.000000
    29  C   -0.770226  -0.000000
    30  C   -0.688334   0.000000
    31  H    0.220164   0.000000
    32  H    0.204967  -0.000000
    33  H    0.228409  -0.000000
    34  H    0.162043   0.000000
    35  H    0.146825   0.000000
    36  H    0.134849  -0.000000
    37  H    0.120082   0.000000
    38  H    0.200518  -0.000000
    39  H    0.165571   0.000000
    40  H    0.137340  -0.000000
    41  H    0.123704  -0.000000
    42  H    0.138467  -0.000000
    43  H    0.194541  -0.000000
    44  H    0.151159   0.000000
    45  H    0.147727   0.000000
    46  H    0.117836  -0.000000
    47  H    0.165574   0.000000
    48  H    0.171653  -0.000000
    49  H    0.130049  -0.000000
    50  H    0.172654   0.000000
    51  H    0.164924   0.000000
    52  H    0.141357   0.000000
    53  H    0.148370  -0.000000
    54  H    0.145840  -0.000000
    55  H    0.151534  -0.000000
    56  O   -0.196825  -0.000000
    57  O   -0.216614  -0.000000
    58  C   -0.577421   0.000000
    59  H    0.186608   0.000000
    60  H    0.181763  -0.000000
    61  H    0.218975  -0.000000
    62  H    0.190586  -0.000000
 Sum of Mulliken charges =  -0.00000  -0.00000

 Dipole moment (field-independent basis, Debye):
    X=             -1.9311    Y=              1.0205    Z=             -0.3710  Tot=              2.2154
 Quadrupole moment (field-independent basis, Debye-Ang):
   XX=           -138.1537   YY=           -158.1724   ZZ=           -190.0084
   XY=              7.5874   XZ=              0.1536   YZ=              4.9025

 Normal termination of Gaussian 16 at Wed Jan 24 23:10:51 2024.
