 Gaussian 16, Revision A.03,
 Gaussian 16:  ES64L-G16RevA.03 25-Dec-2016

 --------------------------------------
 #P UB3LYP/6-311++G(d,p) nosym opt freq
 --------------------------------------

 -------
 Radical
 -------
 Symbolic Z-matrix:
 Charge = -1 Multiplicity = 2

 SCF Done:  E(UB3LYP) =  -918.113383744     A.U. after   24 cycles
 SCF Done:  E(UB3LYP) =  -918.158676373     A.U. after   18 cycles
 SCF Done:  E(UB3LYP) =  -918.190838228     A.U. after   19 cycles
 SCF Done:  E(UB3LYP) =  -918.197834376     A.U. after   18 cycles
 SCF Done:  E(UB3LYP) =  -918.199102084     A.U. after   17 cycles
 SCF Done:  E(UB3LYP) =  -918.199904221     A.U. after   16 cycles
 SCF Done:  E(UB3LYP) =  -918.199937699     A.U. after   16 cycles
 SCF Done:  E(UB3LYP) =  -918.199980862     A.U. after   15 cycles
 SCF Done:  E(UB3LYP) =  -918.200002729     A.U. after   13 cycles
 SCF Done:  E(UB3LYP) =  -918.200007074     A.U. after   12 cycles
 SCF Done:  E(UB3LYP) =  -918.200446853     A.U. after   16 cycles
 SCF Done:  E(UB3LYP) =  -918.200572855     A.U. after   10 cycles
 SCF Done:  E(UB3LYP) =  -918.200247989     A.U. after   16 cycles
 SCF Done:  E(UB3LYP) =  -918.200646641     A.U. after   14 cycles
 SCF Done:  E(UB3LYP) =  -918.200665218     A.U. after   13 cycles
 SCF Done:  E(UB3LYP) =  -918.200671878     A.U. after   11 cycles
 SCF Done:  E(UB3LYP) =  -918.200674788     A.U. after   11 cycles
 SCF Done:  E(UB3LYP) =  -918.200675167     A.U. after   10 cycles
 SCF Done:  E(UB3LYP) =  -918.200675212     A.U. after    8 cycles
 Optimization completed.
    -- Stationary point found.
 Normal termination of Gaussian 16 at Thu Dec 21 23:47:59 2023.

 ----------------------------------------------------------------------
 #P Geom=AllCheck Guess=TCheck SCRF=Check GenChk UB3LYP/6-311++G(d,p) F
 req
 ----------------------------------------------------------------------

 Structure from the checkpoint file:  "197-rad.chk"
 -------
 Radical
 -------
 Charge = -1 Multiplicity = 2

                          Input orientation:
 ---------------------------------------------------------------------
 Center     Atomic      Atomic             Coordinates (Angstroms)
 Number     Number       Type             X           Y           Z
 ---------------------------------------------------------------------
      1          6           0       -4.012775   -1.015460    0.244824
      2          6           0       -2.631880   -0.406957    0.250650
      3          6           0       -2.461810    0.985947    0.423490
      4          6           0       -3.658428    1.887314    0.604772
      5          6           0       -1.177399    1.538214    0.427519
      6          8           0       -1.034271    2.877524    0.595124
      7          6           0       -0.028442    0.717470    0.259020
      8          6           0        1.289428    1.316082    0.267059
      9          8           0        1.452452    2.575822    0.423142
     10          6           0        2.431428    0.434904    0.090706
     11          6           0        3.738772    0.969919    0.091031
     12          6           0        4.840713    0.155597   -0.074506
     13          6           0        4.670700   -1.236498   -0.247871
     14          6           0        3.402738   -1.781522   -0.251559
     15          6           0        2.260087   -0.968103   -0.083928
     16          6           0        0.937061   -1.569145   -0.091832
     17          8           0        0.792108   -2.830947   -0.249092
     18          6           0       -0.200492   -0.691487    0.083887
     19          6           0       -1.515706   -1.232142    0.083425
     20          8           0       -1.699214   -2.566924   -0.081000
     21          1           0       -3.952993   -2.093078    0.101175
     22          1           0       -4.633942   -0.595959   -0.555917
     23          1           0       -4.541214   -0.822938    1.186465
     24          1           0       -4.243555    1.606281    1.488909
     25          1           0       -3.341013    2.922342    0.720654
     26          1           0       -4.338691    1.830343   -0.253697
     27          1           0       -0.038823    3.035564    0.562518
     28          1           0        3.841833    2.040117    0.225798
     29          1           0        5.838822    0.583047   -0.071763
     30          1           0        5.538505   -1.875967   -0.378011
     31          1           0        3.245128   -2.845530   -0.382553
     32          1           0       -0.769126   -2.943832   -0.179991
 ---------------------------------------------------------------------

 SCF Done:  E(UB3LYP) =  -918.200675212     A.U. after    2 cycles

 Alpha  occ. eigenvalues --  -19.00483 -19.00483 -18.96834 -18.96833 -10.11378
 Alpha  occ. eigenvalues --  -10.11377 -10.10917 -10.10916 -10.06861 -10.06813
 Alpha  occ. eigenvalues --  -10.06281 -10.06278 -10.06249 -10.06217 -10.06202
 Alpha  occ. eigenvalues --  -10.06178 -10.06021 -10.06021 -10.05688 -10.05646
 Alpha  occ. eigenvalues --   -0.92983  -0.92808  -0.88397  -0.88203  -0.75108
 Alpha  occ. eigenvalues --   -0.73532  -0.68988  -0.64572  -0.64429  -0.63778
 Alpha  occ. eigenvalues --   -0.59551  -0.57975  -0.54354  -0.51294  -0.50677
 Alpha  occ. eigenvalues --   -0.47750  -0.45810  -0.42611  -0.40694  -0.39144
 Alpha  occ. eigenvalues --   -0.38920  -0.35922  -0.35044  -0.34122  -0.33681
 Alpha  occ. eigenvalues --   -0.32574  -0.31627  -0.31019  -0.30153  -0.30135
 Alpha  occ. eigenvalues --   -0.30018  -0.29524  -0.28848  -0.27667  -0.27097
 Alpha  occ. eigenvalues --   -0.26855  -0.25827  -0.24943  -0.24525  -0.23660
 Alpha  occ. eigenvalues --   -0.23652  -0.23486  -0.22220  -0.18117  -0.15130
 Alpha  occ. eigenvalues --   -0.14796  -0.14056  -0.12869  -0.12697  -0.09141
 Alpha  occ. eigenvalues --   -0.02535
 Alpha virt. eigenvalues --    0.06426   0.07571   0.07769   0.08952   0.09693
 Alpha virt. eigenvalues --    0.09906   0.10863   0.11035   0.12319   0.12475
 Alpha virt. eigenvalues --    0.12767   0.13222   0.13864   0.14322   0.14982

  Beta  occ. eigenvalues --  -19.00427 -19.00427 -18.96354 -18.96353 -10.11187
  Beta  occ. eigenvalues --  -10.11186 -10.10862 -10.10861 -10.06804 -10.06757
  Beta  occ. eigenvalues --  -10.06281 -10.06280 -10.06153 -10.06132 -10.06107
  Beta  occ. eigenvalues --  -10.06088 -10.06028 -10.06027 -10.05697 -10.05655
  Beta  occ. eigenvalues --   -0.92780  -0.92609  -0.87635  -0.87420  -0.74866
  Beta  occ. eigenvalues --   -0.73366  -0.68704  -0.64387  -0.64196  -0.63598
  Beta  occ. eigenvalues --   -0.59278  -0.57816  -0.53807  -0.51157  -0.50464
  Beta  occ. eigenvalues --   -0.47668  -0.45637  -0.42397  -0.40565  -0.39035
  Beta  occ. eigenvalues --   -0.38764  -0.35735  -0.34897  -0.33942  -0.33381
  Beta  occ. eigenvalues --   -0.32473  -0.31591  -0.30152  -0.29938  -0.29835
  Beta  occ. eigenvalues --   -0.29774  -0.29372  -0.28742  -0.26753  -0.26687
  Beta  occ. eigenvalues --   -0.26645  -0.25744  -0.24843  -0.23619  -0.23500
  Beta  occ. eigenvalues --   -0.23027  -0.22462  -0.22071  -0.17333  -0.14130
  Beta  occ. eigenvalues --   -0.13650  -0.13597  -0.12311  -0.12232  -0.08031
  Beta virt. eigenvalues --    0.02823   0.07370   0.07576   0.07762   0.09689
  Beta virt. eigenvalues --    0.09907   0.09946   0.10878   0.11042   0.12317
  Beta virt. eigenvalues --    0.12480   0.13229   0.13478   0.13908   0.14319

 Mulliken charges and spin densities:
               1          2
     1  C   -0.545829  -0.006186
     2  C    0.608407   0.074412
     3  C    0.608147   0.074403
     4  C   -0.545962  -0.006185
     5  C   -0.656082   0.045687
     6  O   -0.404703   0.018346
     7  C    0.458189  -0.022040
     8  C   -0.476480   0.099663
     9  O   -0.421313   0.176117
    10  C    0.187622   0.046265
    11  C    0.012237   0.023289
    12  C   -0.377780   0.045420
    13  C   -0.377786   0.045408
    14  C    0.012203   0.023299
    15  C    0.187446   0.046255
    16  C   -0.476507   0.099660
    17  O   -0.421314   0.176128
    18  C    0.458048  -0.022033
    19  C   -0.655982   0.045686
    20  O   -0.404692   0.018344
    21  H    0.191158   0.000243
    22  H    0.125162   0.003511
    23  H    0.125198   0.003509
    24  H    0.125306   0.003522
    25  H    0.191158   0.000243
    26  H    0.125065   0.003497
    27  H    0.385951  -0.004205
    28  H    0.160877  -0.000217
    29  H    0.127713  -0.003810
    30  H    0.127715  -0.003810
    31  H    0.160875  -0.000218
    32  H    0.385953  -0.004205
 Sum of Mulliken charges =  -1.00000   1.00000

 Dipole moment (field-independent basis, Debye):
    X=             -1.8727    Y=              0.2128    Z=             -0.6583  Tot=              1.9964
 Quadrupole moment (field-independent basis, Debye-Ang):
   XX=           -139.7110   YY=           -154.8197   ZZ=           -123.7272
   XY=             -2.0142   XZ=              0.3194   YZ=             -4.0102

  Exact polarizability: 392.189 -15.849 244.703 -17.070  18.316 114.469
 Approx polarizability: 575.237 -10.784 460.719 -22.502  37.299 186.178

                      1                      2                      3
                      A                      A                      A
 Frequencies --     48.3482                53.0844                80.4352
 Red. masses --      5.1010                 1.0258                 5.1086
 Frc consts  --      0.0070                 0.0017                 0.0195
 IR Inten    --      2.9820                 0.0017                 0.0001

                      4                      5                      6
                      A                      A                      A
 Frequencies --    116.1291               125.6819               133.5953
 Red. masses --      7.3042                 1.0661                 3.6000
 Frc consts  --      0.0580                 0.0099                 0.0379
 IR Inten    --      0.0118                 0.0481                 0.0000

                      7                      8                      9
                      A                      A                      A
 Frequencies --    155.8899               168.2469               194.0148
 Red. masses --      5.3129                 6.7302                 4.5686
 Frc consts  --      0.0761                 0.1122                 0.1013
 IR Inten    --      0.0000                 1.2434                 1.2940

                     10                     11                     12
                      A                      A                      A
 Frequencies --    220.4064               300.1017               306.5261
 Red. masses --      5.4218                 4.2824                 3.3360
 Frc consts  --      0.1552                 0.2272                 0.1847
 IR Inten    --      0.0070                 0.0693                 3.4649

                     13                     14                     15
                      A                      A                      A
 Frequencies --    313.7997               336.9314               372.3836
 Red. masses --      4.7016                 4.1689                 6.4099
 Frc consts  --      0.2728                 0.2788                 0.5237
 IR Inten    --      4.4636                 0.0756                 6.9445

                     16                     17                     18
                      A                      A                      A
 Frequencies --    394.0826               395.5823               407.0480
 Red. masses --      6.4257                 8.9252                 6.9562
 Frc consts  --      0.5880                 0.8229                 0.6791
 IR Inten    --      3.9439                 0.0006                 0.5674

                     19                     20                     21
                      A                      A                      A
 Frequencies --    441.3063               442.7102               442.8870
 Red. masses --      5.7775                 8.2287                 3.4099
 Frc consts  --      0.6629                 0.9502                 0.3941
 IR Inten    --      0.0379                34.6068                 4.9455

                     22                     23                     24
                      A                      A                      A
 Frequencies --    475.8758               520.5943               534.8336
 Red. masses --     11.0751                10.0893                 4.8535
 Frc consts  --      1.4777                 1.6111                 0.8180
 IR Inten    --      4.5631                 2.7064                 0.0002

                     25                     26                     27
                      A                      A                      A
 Frequencies --    540.9264               546.2503               642.5773
 Red. masses --      5.3473                 7.3651                 5.4225
 Frc consts  --      0.9219                 1.2948                 1.3192
 IR Inten    --     15.9642                11.2613                 5.2044

                     28                     29                     30
                      A                      A                      A
 Frequencies --    644.3897               658.1190               700.7960
 Red. masses --      6.7621                 5.3757                 4.7803
 Frc consts  --      1.6543                 1.3718                 1.3832
 IR Inten    --      7.2403                 0.0000                 5.9024

                     31                     32                     33
                      A                      A                      A
 Frequencies --    727.3343               728.4004               739.7702
 Red. masses --      2.4027                 6.5784                 5.4499
 Frc consts  --      0.7489                 2.0564                 1.7573
 IR Inten    --     44.4865                 0.0006                 2.1431

                     34                     35                     36
                      A                      A                      A
 Frequencies --    768.6332               782.5747               783.6509
 Red. masses --      5.6803                 2.1496                 5.3594
 Frc consts  --      1.9772                 0.7757                 1.9392
 IR Inten    --      1.8173                22.6201                 0.0026

                     37                     38                     39
                      A                      A                      A
 Frequencies --    867.5801               887.5574               935.2421
 Red. masses --      1.4575                 4.8327                 1.0556
 Frc consts  --      0.6464                 2.2430                 0.5440
 IR Inten    --      0.0000                 2.1376                 5.3475

                     40                     41                     42
                      A                      A                      A
 Frequencies --    935.9795               936.8124               963.6759
 Red. masses --      5.4816                 1.0594                 2.4574
 Frc consts  --      2.8294                 0.5478                 1.3446
 IR Inten    --     60.5608               148.6047                34.9547

                     43                     44                     45
                      A                      A                      A
 Frequencies --    980.8804               983.1777              1026.7458
 Red. masses --      1.3626                 1.2642                 2.3014
 Frc consts  --      0.7724                 0.7200                 1.4294
 IR Inten    --      1.3514                 0.0019                30.6747

                     46                     47                     48
                      A                      A                      A
 Frequencies --   1035.2213              1048.4421              1057.4337
 Red. masses --      1.4013                 1.9028                 1.5209
 Frc consts  --      0.8848                 1.2324                 1.0020
 IR Inten    --      0.2943                 2.7880                 0.0010

                     49                     50                     51
                      A                      A                      A
 Frequencies --   1085.5989              1106.1270              1121.1801
 Red. masses --      5.5007                 2.1863                 1.9544
 Frc consts  --      3.8195                 1.5761                 1.4475
 IR Inten    --     69.1000                47.8513                 3.1182

                     52                     53                     54
                      A                      A                      A
 Frequencies --   1142.3731              1162.0144              1221.3204
 Red. masses --      3.0091                 1.4816                 1.9441
 Frc consts  --      2.3137                 1.1787                 1.7086
 IR Inten    --      5.6601                 0.6909                 5.3159

                     55                     56                     57
                      A                      A                      A
 Frequencies --   1256.7371              1285.8662              1287.4550
 Red. masses --      4.2686                 6.1736                 2.6265
 Frc consts  --      3.9721                 6.0142                 2.5650
 IR Inten    --      8.6364                10.7776                77.1432

                     58                     59                     60
                      A                      A                      A
 Frequencies --   1323.0032              1340.6824              1360.3304
 Red. masses --      4.5900                 7.4466                10.5271
 Frc consts  --      4.7335                 7.8861                11.4775
 IR Inten    --    123.3501               162.7973                16.7880

                     61                     62                     63
                      A                      A                      A
 Frequencies --   1392.5199              1402.9233              1406.4616
 Red. masses --      1.4501                 2.8668                 1.5281
 Frc consts  --      1.6567                 3.3244                 1.7809
 IR Inten    --    125.4352                 4.1734                 6.6900

                     64                     65                     66
                      A                      A                      A
 Frequencies --   1412.3717              1442.8418              1456.1362
 Red. masses --      2.5577                 5.4423                 1.7995
 Frc consts  --      3.0060                 6.6753                 2.2480
 IR Inten    --     94.4694                 3.2712               397.9742

                     67                     68                     69
                      A                      A                      A
 Frequencies --   1480.9818              1485.6117              1488.8486
 Red. masses --      2.2652                 2.2016                 1.0470
 Frc consts  --      2.9272                 2.8628                 1.3674
 IR Inten    --     31.4521               191.3953                 0.0083

                     70                     71                     72
                      A                      A                      A
 Frequencies --   1494.4786              1503.5833              1504.8545
 Red. masses --      1.1522                 2.6131                 1.0458
 Frc consts  --      1.5162                 3.4807                 1.3954
 IR Inten    --      9.5816               505.7283                13.9879

                     73                     74                     75
                      A                      A                      A
 Frequencies --   1532.7705              1558.9486              1596.6246
 Red. masses --      2.6707                 5.8587                 2.2961
 Frc consts  --      3.6969                 8.3891                 3.4487
 IR Inten    --     47.3980                95.7487                61.3225

                     76                     77                     78
                      A                      A                      A
 Frequencies --   1622.3206              1634.4978              1659.9988
 Red. masses --      5.6397                 3.0958                 2.4091
 Frc consts  --      8.7455                 4.8729                 3.9113
 IR Inten    --      0.1936                23.6187                 0.8891

                     79                     80                     81
                      A                      A                      A
 Frequencies --   2920.1072              2928.0152              2996.5242
 Red. masses --      1.0752                 1.0757                 1.0430
 Frc consts  --      5.4016                 5.4337                 5.5177
 IR Inten    --      1.4796               662.0605                 3.1006

                     82                     83                     84
                      A                      A                      A
 Frequencies --   2999.8851              3029.4303              3030.8998
 Red. masses --      1.0418                 1.0990                 1.0991
 Frc consts  --      5.5238                 5.9426                 5.9486
 IR Inten    --    227.3585                 0.0548                76.2108

                     85                     86                     87
                      A                      A                      A
 Frequencies --   3128.6245              3128.9184              3138.5117
 Red. masses --      1.0933                 1.0933                 1.0849
 Frc consts  --      6.3052                 6.3066                 6.2965
 IR Inten    --     15.5428                 0.8581                17.1907

                     88                     89                     90
                      A                      A                      A
 Frequencies --   3157.1498              3187.3752              3189.7007
 Red. masses --      1.0913                 1.0915                 1.0930
 Frc consts  --      6.4087                 6.5334                 6.5518
 IR Inten    --     47.8586                 8.0991                28.5206

 - Thermochemistry -
 -------------------
 Temperature   298.150 Kelvin.  Pressure   1.00000 Atm.
 Atom     1 has atomic number  6 and mass  12.00000

 Molecular mass:   268.07356 amu.
 Principal axes and moments of inertia in atomic units:
                           1         2         3
     Eigenvalues --  2813.146106686.079509476.94056
           X            0.99133   0.12032   0.05284
           Y           -0.11266   0.98516  -0.12950
           Z           -0.06763   0.12242   0.99017
 This molecule is an asymmetric top.
 Rotational symmetry number  1.
 Warning -- assumption of classical behavior for rotation
           may cause significant error
 Rotational temperatures (Kelvin)      0.03079     0.01295     0.00914
 Rotational constants (GHZ):           0.64154     0.26993     0.19044
 Zero-point vibrational energy     631073.6 (Joules/Mol)
                                  150.83021 (Kcal/Mol)
 Warning -- explicit consideration of  26 degrees of freedom as
           vibrations may cause significant error
 Vibrational temperatures:     69.56    76.38   115.73   167.08   180.83
          (Kelvin)            192.21   224.29   242.07   279.14   317.12
                              431.78   441.02   451.49   484.77   535.78
                              567.00   569.15   585.65   634.94   636.96
                              637.22   684.68   749.02   769.51   778.27
                              785.93   924.53   927.13   946.89  1008.29
                             1046.47  1048.01  1064.36  1105.89  1125.95
                             1127.50  1248.25  1277.00  1345.60  1346.67
                             1347.86  1386.51  1411.27  1414.57  1477.26
                             1489.45  1508.47  1521.41  1561.93  1591.47
                             1613.13  1643.62  1671.88  1757.21  1808.16
                             1850.07  1852.36  1903.51  1928.94  1957.21
                             2003.53  2018.49  2023.58  2032.09  2075.93
                             2095.06  2130.80  2137.46  2142.12  2150.22
                             2163.32  2165.15  2205.31  2242.98  2297.19
                             2334.16  2351.68  2388.37  4201.38  4212.76
                             4311.33  4316.17  4358.67  4360.79  4501.39
                             4501.82  4515.62  4542.43  4585.92  4589.27

 Zero-point correction=                           0.240363 (Hartree/Particle)
 Thermal correction to Energy=                    0.256640
 Thermal correction to Enthalpy=                  0.257584
 Thermal correction to Gibbs Free Energy=         0.196275
 Sum of electronic and zero-point Energies=           -917.960312
 Sum of electronic and thermal Energies=              -917.944035
 Sum of electronic and thermal Enthalpies=            -917.943091
 Sum of electronic and thermal Free Energies=         -918.004400

                     E (Thermal)             CV                S
                      KCal/Mol        Cal/Mol-Kelvin    Cal/Mol-Kelvin
 Total                  161.044             64.454            129.037
 Electronic               0.000              0.000              1.377
 Translational            0.889              2.981             42.657
 Rotational               0.889              2.981             33.544
 Vibrational            159.267             58.492             51.458
 Vibration     1          0.595              1.978              4.884
 Vibration     2          0.596              1.976              4.699
 Vibration     3          0.600              1.962              3.880
 Vibration     4          0.608              1.936              3.164
 Vibration     5          0.611              1.927              3.011
 Vibration     6          0.613              1.920              2.894
 Vibration     7          0.620              1.896              2.599
 Vibration     8          0.625              1.882              2.455
 Vibration     9          0.635              1.848              2.189
 Vibration    10          0.647              1.810              1.956
 Vibration    11          0.693              1.673              1.416
 Vibration    12          0.697              1.661              1.381
 Vibration    13          0.702              1.647              1.342
 Vibration    14          0.718              1.602              1.227
 Vibration    15          0.744              1.529              1.070
 Vibration    16          0.761              1.483              0.985
 Vibration    17          0.762              1.480              0.979
 Vibration    18          0.772              1.455              0.937
 Vibration    19          0.801              1.380              0.823
 Vibration    20          0.802              1.377              0.818
 Vibration    21          0.803              1.377              0.818
 Vibration    22          0.833              1.304              0.721
 Vibration    23          0.876              1.204              0.609
 Vibration    24          0.890              1.173              0.577
 Vibration    25          0.896              1.160              0.563
 Vibration    26          0.901              1.148              0.552

                           ! Non-Optimized Parameters !
 Normal termination of Gaussian 16 at Fri Dec 22 01:27:52 2023.
