 Q-Chem 5.4, Q-Chem, Inc., Pleasanton, CA (2021)
 Q-Chem 5.4.0 for Intel X86 EM64T Linux

User input:
--------------------------------------------------------------
$molecule
-2 1
O                  2.2493520000      2.7693130000     -0.2510220000
C                  2.3512200000      1.4131840000     -0.1489140000
C                  3.5918560000      0.8302410000      0.0726180000
C                  3.7209070000     -0.5663010000      0.1934310000
C                  2.5801070000     -1.3703810000      0.0813980000
C                  1.3282620000     -0.8108920000     -0.1555170000
C                  0.1178630000     -1.6540120000     -0.4679220000
C                 -1.1762570000     -1.0306580000     -0.0095460000
C                 -2.2761810000     -1.7964660000      0.3646880000
C                 -3.5186080000     -1.2014620000      0.6153910000
C                 -3.6488260000      0.1949450000      0.4940710000
C                 -2.5621630000      0.9820540000      0.1366260000
O                 -2.7097250000      2.3340570000      0.0363910000
C                 -1.2838920000      0.3876460000     -0.1347260000
C                 -0.1283190000      1.1987050000     -0.3970630000
O                 -0.2517530000      2.5318570000     -0.5067580000
C                  1.1728930000      0.6032710000     -0.2775970000
H                  1.2559100000      2.9345830000     -0.3734140000
H                  4.4590290000      1.4809970000      0.1498230000
H                  4.7008890000     -1.0159920000      0.3355920000
H                  2.6758040000     -2.4535830000      0.1350770000
H                  0.2297230000     -2.6680370000     -0.0744740000
H                  0.0617780000     -1.7547780000     -1.5810840000
H                 -2.1755740000     -2.8792160000      0.4183510000
H                 -4.3826010000     -1.8129430000      0.8652280000
H                 -4.6010780000      0.6860420000      0.6769920000
H                 -1.7806180000      2.6678270000     -0.1976380000
$end
$rem
MAX_SCF_CYCLES=200
BASIS  =  6-311++G(d,p)
GUI  =  2
JOB_TYPE  =  SP
METHOD  =  B3LYP
SOLVENT_METHOD = COSMO
$end
$solvent
dielectric 37.219
opticaldielectric 1.43
$end

--------------------------------------------------------------

             Standard Nuclear Orientation (Angstroms)
    I     Atom           X                Y                Z
 ----------------------------------------------------------------
    1      O       2.4931526548    -2.2272311321    -0.0807117225
    2      C       2.4702290997    -0.8636494775    -0.0836408507
    3      C       3.6403631286    -0.1554634598    -0.3230893244
    4      C       3.6398645630     1.2520823752    -0.3429380792
    5      C       2.4416628861     1.9385078355    -0.1113058092
    6      C       1.2592254212     1.2514894981     0.1458323015
    7      C      -0.0000021275     1.9559545641     0.5835410050
    8      C      -1.2591510401     1.2515443135     0.1456191444
    9      C      -2.4415055873     1.9385888876    -0.1119721273
   10      C      -3.6396997616     1.2521523785    -0.3435800810
   11      C      -3.6403442172    -0.1554023223    -0.3231563593
   12      C      -2.4702909648    -0.8636097176    -0.0832362616
   13      O      -2.4932786612    -2.2271314193    -0.0795152751
   14      C      -1.2352027041    -0.1759740626     0.1670510172
   15      C      -0.0000330808    -0.8948509276     0.3069024240
   16      O      -0.0001226245    -2.2381249027     0.3202523437
   17      C       1.2351613948    -0.1760522473     0.1669399035
   18      H       1.5266742237    -2.4908829597     0.0793761848
   19      H       4.5550799493    -0.7170884336    -0.4942720405
   20      H       4.5669971311     1.7984200798    -0.5002173832
   21      H       2.4392179812     3.0269702848    -0.0866189198
   22      H      -0.0000018275     3.0015694114     0.2637750278
   23      H      -0.0001447667     1.9710252866     1.7025592377
   24      H      -2.4390271157     3.0270496044    -0.0875554611
   25      H      -4.5667553700     1.7985304219    -0.5012201032
   26      H      -4.5551011378    -0.7170024208    -0.4941690278
   27      H      -1.5266120801    -2.4905974686     0.0803382991
 ----------------------------------------------------------------

   13    -765.3689470683      4.54e-06  Convergence criterion met
 Total energy in the final basis set =     -765.3689470683
    6    -765.6209436148      4.69e-06  Convergence criterion met
 Total energy in the final basis set =     -765.6209436148

                    Orbital Energies (a.u.)
 --------------------------------------------------------------

 Alpha MOs
 -- Occupied --
-19.1018 -19.1018 -19.0367 -10.1934 -10.1934 -10.1564 -10.1493 -10.1394
-10.1394 -10.1376 -10.1376 -10.1375 -10.1374 -10.1362 -10.1362 -10.1325
-10.1325  -1.0211  -1.0160  -0.9356  -0.8320  -0.8098  -0.7585  -0.7223
 -0.7083  -0.6997  -0.6598  -0.6059  -0.5957  -0.5545  -0.5531  -0.5270
 -0.4892  -0.4821  -0.4813  -0.4426  -0.4372  -0.4272  -0.4112  -0.4013
 -0.3859  -0.3801  -0.3790  -0.3741  -0.3718  -0.3659  -0.3526  -0.3365
 -0.3359  -0.3173  -0.3120  -0.3006  -0.2976  -0.2974  -0.2266  -0.2213
 -0.2141  -0.2007  -0.1965  -0.0809

          Ground-State Mulliken Net Atomic Charges

     Atom                 Charge (a.u.)
  ----------------------------------------
      1 O                    -0.470315
      2 C                    -0.217220
      3 C                    -0.456416
      4 C                    -0.392608
      5 C                    -0.119626
      6 C                     0.218522
      7 C                    -1.249696
      8 C                     0.217174
      9 C                    -0.119260
     10 C                    -0.391953
     11 C                    -0.457429
     12 C                    -0.216776
     13 O                    -0.470003
     14 C                     0.690254
     15 C                    -0.446179
     16 O                    -0.774907
     17 C                     0.691880
     18 H                     0.396027
     19 H                     0.165715
     20 H                     0.168047
     21 H                     0.153003
     22 H                     0.086579
     23 H                     0.112105
     24 H                     0.152876
     25 H                     0.168133
     26 H                     0.165797
     27 H                     0.396275
  ----------------------------------------
  Sum of atomic charges =    -2.000000

                    Cartesian Multipole Moments
 -----------------------------------------------------------------
    Charge (ESU x 10^10)
                -9.6064
    Dipole Moment (Debye)
         X      -0.0003      Y       7.5149      Z      -0.2469
       Tot       7.5190
    Quadrupole Moments (Debye-Ang)
        XX    -160.7817     XY       0.0006     YY    -135.5685
        XZ       0.0004     YZ       2.1693     ZZ    -116.1593

 Total job time:  103.47s(wall), 612.51s(cpu)
        *  Thank you very much for using Q-Chem.  Have a nice day.  *
