 Gaussian 16, Revision A.03,
 Gaussian 16:  ES64L-G16RevA.03 25-Dec-2016

 --------------------------------------
 #P UB3LYP/6-311++G(d,p) nosym opt freq
 --------------------------------------

 -------
 Reduced
 -------
 Symbolic Z-matrix:
 Charge = -2 Multiplicity = 1

 SCF Done:  E(UB3LYP) =  -973.678692998     A.U. after   47 cycles
 SCF Done:  E(UB3LYP) =  -973.714217279     A.U. after   40 cycles
 SCF Done:  E(UB3LYP) =  -973.721885204     A.U. after   44 cycles
 SCF Done:  E(UB3LYP) =  -973.722202828     A.U. after   35 cycles
 SCF Done:  E(UB3LYP) =  -973.722261054     A.U. after   31 cycles
 SCF Done:  E(UB3LYP) =  -973.722264387     A.U. after   30 cycles
 SCF Done:  E(UB3LYP) =  -973.722265137     A.U. after   27 cycles
 SCF Done:  E(UB3LYP) =  -973.722265285     A.U. after   25 cycles
 SCF Done:  E(UB3LYP) =  -973.722265378     A.U. after   28 cycles
 SCF Done:  E(UB3LYP) =  -973.722265606     A.U. after   31 cycles
 SCF Done:  E(UB3LYP) =  -973.722015024     A.U. after   46 cycles
 SCF Done:  E(UB3LYP) =  -973.722503278     A.U. after   33 cycles
 SCF Done:  E(UB3LYP) =  -973.719341972     A.U. after   39 cycles
 SCF Done:  E(UB3LYP) =  -973.722371836     A.U. after   34 cycles
 SCF Done:  E(UB3LYP) =  -973.722596829     A.U. after   29 cycles
 SCF Done:  E(UB3LYP) =  -973.722651038     A.U. after   32 cycles
 SCF Done:  E(UB3LYP) =  -973.722663367     A.U. after   32 cycles
 SCF Done:  E(UB3LYP) =  -973.722665942     A.U. after   29 cycles
 SCF Done:  E(UB3LYP) =  -973.722666521     A.U. after   39 cycles
 Optimization completed.
    -- Stationary point found.
 Normal termination of Gaussian 16 at Sat Jan  6 04:58:43 2024.

 ----------------------------------------------------------------------
 #P Geom=AllCheck Guess=TCheck SCRF=Check GenChk UB3LYP/6-311++G(d,p) F
 req
 ----------------------------------------------------------------------

 Structure from the checkpoint file:  "337-an.chk"
 -------
 Reduced
 -------
 Charge = -2 Multiplicity = 1

                          Input orientation:
 ---------------------------------------------------------------------
 Center     Atomic      Atomic             Coordinates (Angstroms)
 Number     Number       Type             X           Y           Z
 ---------------------------------------------------------------------
      1          8           0       -0.164764   -2.542342    0.042873
      2          6           0       -0.093566   -1.273513   -0.069687
      3          6           0       -1.296471   -0.458855    0.035905
      4          6           0       -2.539291   -1.098005    0.328279
      5          6           0       -3.712776   -0.381376    0.511330
      6          6           0       -3.727429    1.015802    0.405997
      7          6           0       -2.523455    1.672283    0.093124
      8          6           0       -1.349567    0.956659   -0.113492
      9         16           0        0.057563    1.867565   -0.723046
     10          6           0        1.425691    0.765583   -0.392152
     11          6           0        2.703384    1.311370   -0.445524
     12          6           0        3.843084    0.496135   -0.328259
     13          6           0        3.660320   -0.870952   -0.096090
     14          6           0        2.384799   -1.411138    0.002358
     15          6           0        1.211418   -0.622526   -0.176938
     16          1           0       -2.518286   -2.178665    0.402977
     17          1           0       -4.634023   -0.909991    0.750604
     18          1           0       -4.638253    1.583379    0.578621
     19          1           0       -2.507308    2.755316   -0.002603
     20          1           0        2.819217    2.380063   -0.609532
     21          1           0        4.839857    0.923853   -0.413872
     22          1           0        4.530494   -1.516190    0.015614
     23          1           0        2.229361   -2.464453    0.203513
 ---------------------------------------------------------------------

 SCF Done:  E(UB3LYP) =  -973.722666521     A.U. after    2 cycles

 Alpha  occ. eigenvalues --  -88.64199 -18.81887  -9.98712  -9.98655  -9.97775
 Alpha  occ. eigenvalues --   -9.95647  -9.95606  -9.95313  -9.95282  -9.95081
 Alpha  occ. eigenvalues --   -9.94924  -9.94908  -9.94813  -9.94039  -9.94032
 Alpha  occ. eigenvalues --   -7.72833  -5.69192  -5.68830  -5.68281  -0.73915
 Alpha  occ. eigenvalues --   -0.64819  -0.62981  -0.57740  -0.53389  -0.52821
 Alpha  occ. eigenvalues --   -0.51871  -0.47698  -0.42045  -0.39048  -0.37160
 Alpha  occ. eigenvalues --   -0.35694  -0.32024  -0.30272  -0.25864  -0.24018
 Alpha  occ. eigenvalues --   -0.23905  -0.23429  -0.20865  -0.20174  -0.18736
 Alpha  occ. eigenvalues --   -0.18093  -0.16779  -0.16282  -0.14581  -0.13804
 Alpha  occ. eigenvalues --   -0.13190  -0.11230  -0.11144  -0.09933  -0.08542
 Alpha  occ. eigenvalues --   -0.04044  -0.02653  -0.01913   0.00642   0.00913
 Alpha  occ. eigenvalues --    0.12905
 Alpha virt. eigenvalues --    0.14297   0.14680   0.16052   0.16233   0.17502
 Alpha virt. eigenvalues --    0.18448   0.19500   0.19786   0.20175   0.20687
 Alpha virt. eigenvalues --    0.21477   0.22992   0.23538   0.23611   0.24342

  Beta  occ. eigenvalues --  -88.64199 -18.81887  -9.98712  -9.98655  -9.97775
  Beta  occ. eigenvalues --   -9.95647  -9.95606  -9.95313  -9.95282  -9.95081
  Beta  occ. eigenvalues --   -9.94924  -9.94908  -9.94813  -9.94039  -9.94032
  Beta  occ. eigenvalues --   -7.72833  -5.69192  -5.68830  -5.68281  -0.73915
  Beta  occ. eigenvalues --   -0.64819  -0.62981  -0.57740  -0.53389  -0.52821
  Beta  occ. eigenvalues --   -0.51871  -0.47698  -0.42045  -0.39048  -0.37160
  Beta  occ. eigenvalues --   -0.35694  -0.32024  -0.30272  -0.25864  -0.24018
  Beta  occ. eigenvalues --   -0.23905  -0.23429  -0.20865  -0.20174  -0.18736
  Beta  occ. eigenvalues --   -0.18093  -0.16779  -0.16282  -0.14581  -0.13804
  Beta  occ. eigenvalues --   -0.13190  -0.11230  -0.11144  -0.09933  -0.08542
  Beta  occ. eigenvalues --   -0.04044  -0.02653  -0.01913   0.00642   0.00913
  Beta  occ. eigenvalues --    0.12905
  Beta virt. eigenvalues --    0.14297   0.14680   0.16052   0.16233   0.17502
  Beta virt. eigenvalues --    0.18448   0.19500   0.19786   0.20175   0.20687
  Beta virt. eigenvalues --    0.21477   0.22992   0.23538   0.23611   0.24342

 Mulliken charges and spin densities:
               1          2
     1  O   -0.438933  -0.000000
     2  C   -0.311227  -0.000000
     3  C    1.592479  -0.000000
     4  C   -0.352003  -0.000000
     5  C    0.580891  -0.000000
     6  C    0.893431  -0.000000
     7  C   -0.829970  -0.000000
     8  C    0.099276   0.000000
     9  S   -0.819652   0.000000
    10  C   -0.204225   0.000000
    11  C   -0.958321  -0.000000
    12  C    0.905840   0.000000
    13  C    1.021593   0.000000
    14  C   -0.449260  -0.000000
    15  C    1.174151   0.000000
    16  H    0.200730  -0.000000
    17  H   -0.446090   0.000000
    18  H   -1.526493   0.000000
    19  H    0.011960   0.000000
    20  H   -0.011003  -0.000000
    21  H   -1.809392  -0.000000
    22  H   -0.507311  -0.000000
    23  H    0.183527   0.000000
 Sum of Mulliken charges =  -2.00000   0.00000

 Dipole moment (field-independent basis, Debye):
    X=             -1.2000    Y=             -0.0721    Z=             -0.1890  Tot=              1.2169
 Quadrupole moment (field-independent basis, Debye-Ang):
   XX=           -280.8303   YY=           -149.0281   ZZ=           -126.9307
   XY=              8.8959   XZ=             22.4225   YZ=             -0.9088

  Exact polarizability:5272.552-251.1402045.083-591.279-167.785 334.362
 Approx polarizability:****************1974.996******** 127.648 614.557

                      1                      2                      3
                      A                      A                      A
 Frequencies --     34.0115               100.9779               140.2601
 Red. masses --      7.6943                 3.8604                 5.4375
 Frc consts  --      0.0052                 0.0232                 0.0630
 IR Inten    --     10.9019                 2.2044                 4.2125

                      4                      5                      6
                      A                      A                      A
 Frequencies --    188.2213               230.9938               251.0438
 Red. masses --      6.7039                 5.3763                 4.8313
 Frc consts  --      0.1399                 0.1690                 0.1794
 IR Inten    --     27.7452                 6.7051                 2.3765

                      7                      8                      9
                      A                      A                      A
 Frequencies --    312.8559               329.2762               365.8730
 Red. masses --      6.7649                 6.7402                 4.4763
 Frc consts  --      0.3901                 0.4306                 0.3530
 IR Inten    --      5.3834                17.2525               113.5002

                     10                     11                     12
                      A                      A                      A
 Frequencies --    408.1073               429.0786               440.6301
 Red. masses --      8.6641                10.0347                 3.3385
 Frc consts  --      0.8502                 1.0885                 0.3819
 IR Inten    --     10.3132                10.3477                65.4964

                     13                     14                     15
                      A                      A                      A
 Frequencies --    464.7269               490.1337               504.3623
 Red. masses --     10.4156                 5.0072                 4.4268
 Frc consts  --      1.3253                 0.7087                 0.6635
 IR Inten    --     17.8676                23.0020                57.3017

                     16                     17                     18
                      A                      A                      A
 Frequencies --    578.1502               623.1519               629.4851
 Red. masses --      6.5541                 5.1027                 6.3100
 Frc consts  --      1.2908                 1.1674                 1.4732
 IR Inten    --      5.5472                20.9823                14.1437

                     19                     20                     21
                      A                      A                      A
 Frequencies --    670.2263               692.9427               720.4318
 Red. masses --      6.3405                 4.8514                 6.5751
 Frc consts  --      1.6781                 1.3725                 2.0107
 IR Inten    --      1.3177                21.8481                 8.9937

                     22                     23                     24
                      A                      A                      A
 Frequencies --    728.2082               773.4989               798.6496
 Red. masses --      3.4831                 6.3127                 1.4892
 Frc consts  --      1.0882                 2.2253                 0.5597
 IR Inten    --     39.9101                73.1145               218.5934

                     25                     26                     27
                      A                      A                      A
 Frequencies --    805.7892               830.0036               837.3486
 Red. masses --      1.3175                 1.3564                 1.3736
 Frc consts  --      0.5040                 0.5505                 0.5675
 IR Inten    --     39.9810               221.1687               120.1587

                     28                     29                     30
                      A                      A                      A
 Frequencies --    922.4871               926.0052               945.8037
 Red. masses --      2.0239                 2.2644                 1.2886
 Frc consts  --      1.0148                 1.1440                 0.6791
 IR Inten    --    605.9619               425.4532                62.2456

                     31                     32                     33
                      A                      A                      A
 Frequencies --    957.9923               975.5577              1021.2715
 Red. masses --      1.2548                 1.2835                 4.2323
 Frc consts  --      0.6785                 0.7197                 2.6008
 IR Inten    --    123.8422               115.9782               633.7977

                     34                     35                     36
                      A                      A                      A
 Frequencies --   1025.2047              1053.0096              1064.9298
 Red. masses --      3.1728                 2.4655                 3.7815
 Frc consts  --      1.9648                 1.6107                 2.5267
 IR Inten    --      7.7775                 8.4518                62.6992

                     37                     38                     39
                      A                      A                      A
 Frequencies --   1095.4706              1110.5624              1146.1701
 Red. masses --      1.6368                 1.6453                 1.1897
 Frc consts  --      1.1573                 1.1956                 0.9209
 IR Inten    --    245.3230               161.5576               116.4359

                     40                     41                     42
                      A                      A                      A
 Frequencies --   1156.2377              1178.2207              1232.1337
 Red. masses --      1.1196                 3.1911                 1.8320
 Frc consts  --      0.8819                 2.6100                 1.6387
 IR Inten    --    249.9951                52.2808                82.4367

                     43                     44                     45
                      A                      A                      A
 Frequencies --   1252.4634              1283.8441              1333.1666
 Red. masses --      1.7762                 3.9606                 5.8556
 Frc consts  --      1.6416                 3.8462                 6.1319
 IR Inten    --    261.9780                82.7221                26.0391

                     46                     47                     48
                      A                      A                      A
 Frequencies --   1344.6597              1407.7565              1424.5694
 Red. masses --      5.1925                 4.1332                 2.1115
 Frc consts  --      5.5316                 4.8260                 2.5247
 IR Inten    --      3.6495               444.1670               341.9201

                     49                     50                     51
                      A                      A                      A
 Frequencies --   1448.4032              1457.6162              1480.3403
 Red. masses --      2.6953                 2.5717                 3.0497
 Frc consts  --      3.3315                 3.2192                 3.9376
 IR Inten    --     68.6765                 9.8122                48.9730

                     52                     53                     54
                      A                      A                      A
 Frequencies --   1519.5924              1541.6214              1551.8056
 Red. masses --      3.7669                 5.0856                 4.4210
 Frc consts  --      5.1249                 7.1211                 6.2726
 IR Inten    --    137.8537               186.3865               158.8668

                     55                     56                     57
                      A                      A                      A
 Frequencies --   1582.9787              3102.0382              3106.2868
 Red. masses --      5.3870                 1.0857                 1.0862
 Frc consts  --      7.9533                 6.1555                 6.1751
 IR Inten    --     44.9386               622.8096               505.4733

                     58                     59                     60
                      A                      A                      A
 Frequencies --   3120.6327              3122.9256              3134.2276
 Red. masses --      1.0874                 1.0875                 1.0944
 Frc consts  --      6.2393                 6.2491                 6.3342
 IR Inten    --     39.5988                20.9445               460.7263

                     61                     62                     63
                      A                      A                      A
 Frequencies --   3144.2524              3181.2937              3183.0335
 Red. masses --      1.0937                 1.0894                 1.0897
 Frc consts  --      6.3707                 6.4960                 6.5049
 IR Inten    --    423.5138                 9.7513                 3.0817

 - Thermochemistry -
 -------------------
 Temperature   298.150 Kelvin.  Pressure   1.00000 Atm.
 Atom     1 has atomic number  8 and mass  15.99491

 Molecular mass:   212.02959 amu.
 Principal axes and moments of inertia in atomic units:
                           1         2         3
     Eigenvalues --  1506.937274286.149765729.29235
           X            0.99386   0.05162   0.09785
           Y           -0.06624   0.98605   0.15269
           Z           -0.08860  -0.15823   0.98342
 This molecule is an asymmetric top.
 Rotational symmetry number  1.
 Warning -- assumption of classical behavior for rotation
           may cause significant error
 Rotational temperatures (Kelvin)      0.05748     0.02021     0.01512
 Rotational constants (GHZ):           1.19762     0.42106     0.31500
 Zero-point vibrational energy     436116.6 (Joules/Mol)
                                  104.23437 (Kcal/Mol)
 Warning -- explicit consideration of  16 degrees of freedom as
           vibrations may cause significant error
 Vibrational temperatures:     48.93   145.28   201.80   270.81   332.35
          (Kelvin)            361.20   450.13   473.76   526.41   587.18
                              617.35   633.97   668.64   705.19   725.66
                              831.83   896.58   905.69   964.31   996.99
                             1036.54  1047.73  1112.89  1149.08  1159.35
                             1194.19  1204.76  1327.25  1332.31  1360.80
                             1378.34  1403.61  1469.38  1475.04  1515.05
                             1532.20  1576.14  1597.85  1649.08  1663.57
                             1695.20  1772.77  1802.02  1847.17  1918.13
                             1934.67  2025.45  2049.64  2083.93  2097.18
                             2129.88  2186.35  2218.05  2232.70  2277.55
                             4463.14  4469.25  4489.89  4493.19  4509.45
                             4523.88  4577.17  4579.68

 Zero-point correction=                           0.166108 (Hartree/Particle)
 Thermal correction to Energy=                    0.177334
 Thermal correction to Enthalpy=                  0.178278
 Thermal correction to Gibbs Free Energy=         0.128410
 Sum of electronic and zero-point Energies=           -973.556558
 Sum of electronic and thermal Energies=              -973.545332
 Sum of electronic and thermal Enthalpies=            -973.544388
 Sum of electronic and thermal Free Energies=         -973.594257

                     E (Thermal)             CV                S
                      KCal/Mol        Cal/Mol-Kelvin    Cal/Mol-Kelvin
 Total                  111.279             45.901            104.957
 Electronic               0.000              0.000              0.000
 Translational            0.889              2.981             41.958
 Rotational               0.889              2.981             31.982
 Vibrational            109.501             39.940             31.018
 Vibration     1          0.594              1.983              5.581
 Vibration     2          0.604              1.948              3.435
 Vibration     3          0.615              1.913              2.800
 Vibration     4          0.633              1.856              2.245
 Vibration     5          0.653              1.794              1.871
 Vibration     6          0.663              1.761              1.723
 Vibration     7          0.701              1.649              1.347
 Vibration     8          0.712              1.617              1.264
 Vibration     9          0.739              1.542              1.097
 Vibration    10          0.773              1.453              0.933
 Vibration    11          0.790              1.407              0.862
 Vibration    12          0.801              1.382              0.825
 Vibration    13          0.822              1.328              0.752
 Vibration    14          0.846              1.272              0.683
 Vibration    15          0.860              1.240              0.647
 Vibration    16          0.935              1.079              0.489

 Optimization completed.
    -- Stationary point found.
 Normal termination of Gaussian 16 at Sat Jan  6 05:28:34 2024.
