 Gaussian 16, Revision A.03,
 Gaussian 16:  ES64L-G16RevA.03 25-Dec-2016

 ----------------------------------------------------------------------
 #P UB3LYP/6-311++G(d,p) nosym opt freq SCRF=(PCM,Solvent=n,n-DiMethylF
 ormamide)
 ----------------------------------------------------------------------

 -------
 Reduced
 -------
 Symbolic Z-matrix:
 Charge = -2 Multiplicity = 1

 SCF Done:  E(UB3LYP) =  -1012.37413222     A.U. after   18 cycles
 SCF Done:  E(UB3LYP) =  -1012.37447033     A.U. after   16 cycles
 SCF Done:  E(UB3LYP) =  -1012.37517046     A.U. after   15 cycles
 SCF Done:  E(UB3LYP) =  -1012.37525444     A.U. after   12 cycles
 SCF Done:  E(UB3LYP) =  -1012.37524032     A.U. after   14 cycles
 SCF Done:  E(UB3LYP) =  -1012.37526048     A.U. after   13 cycles
 SCF Done:  E(UB3LYP) =  -1012.37527731     A.U. after   12 cycles
 SCF Done:  E(UB3LYP) =  -1012.37527922     A.U. after   11 cycles
 SCF Done:  E(UB3LYP) =  -1012.37528010     A.U. after   10 cycles
 SCF Done:  E(UB3LYP) =  -1012.37528064     A.U. after   10 cycles
 SCF Done:  E(UB3LYP) =  -1012.37528084     A.U. after   10 cycles
 SCF Done:  E(UB3LYP) =  -1012.37528087     A.U. after    9 cycles
 Optimization completed.
    -- Stationary point found.
 Normal termination of Gaussian 16 at Sun Feb 11 03:24:50 2024.

 ----------------------------------------------------------------------
 #P Geom=AllCheck Guess=TCheck SCRF=Check GenChk UB3LYP/6-311++G(d,p) F
 req
 ----------------------------------------------------------------------

 Structure from the checkpoint file:  "277-an.chk"
 -------
 Reduced
 -------
 Charge = -2 Multiplicity = 1

                          Input orientation:
 ---------------------------------------------------------------------
 Center     Atomic      Atomic             Coordinates (Angstroms)
 Number     Number       Type             X           Y           Z
 ---------------------------------------------------------------------
      1          6           0       -0.277841    3.934122    0.192970
      2          6           0       -1.468421    3.444685    0.694654
      3          6           0       -1.660108    2.046606    0.795378
      4          6           0        0.770061    3.078875   -0.230212
      5          6           0        0.575075    1.658588   -0.132655
      6          6           0       -0.658186    1.187613    0.388781
      7          6           0        2.001452    3.651339   -0.760759
      8          6           0        2.978725    2.694843   -1.137660
      9          6           0        2.796545    1.272813   -1.040773
     10          6           0        1.595030    0.711036   -0.550634
     11          8           0        2.152946    4.939074   -0.853715
     12          8           0        1.379905   -0.581542   -0.457215
     13          1           0       -0.113216    5.002313    0.108462
     14          1           0       -2.251886    4.126801    1.010856
     15          1           0       -2.591984    1.652781    1.190300
     16          1           0       -0.787893    0.113496    0.459425
     17         16           0        4.520540    3.323376   -1.827838
     18          6           0        5.244262    4.252501   -0.420152
     19          6           0        3.889586    0.319297   -1.465854
     20          1           0        6.157632    4.729487   -0.781755
     21          1           0        5.490979    3.575240    0.399256
     22          1           0        4.531743    5.006904   -0.090426
     23          1           0        4.105576    0.375320   -2.540724
     24          1           0        3.572228   -0.698676   -1.238311
     25          1           0        4.837410    0.520308   -0.954169
 ---------------------------------------------------------------------

 SCF Done:  E(UB3LYP) =  -1012.37528087     A.U. after    1 cycles

 Alpha  occ. eigenvalues --  -88.81458 -19.01522 -19.00852 -10.17347 -10.16877
 Alpha  occ. eigenvalues --  -10.16434 -10.15035 -10.14939 -10.14690 -10.14648
 Alpha  occ. eigenvalues --  -10.14510 -10.13934 -10.13870 -10.13166 -10.12987
 Alpha  occ. eigenvalues --   -7.90035  -5.86432  -5.86060  -5.85434  -0.92856
 Alpha  occ. eigenvalues --   -0.91661  -0.82557  -0.78562  -0.74564  -0.72196
 Alpha  occ. eigenvalues --   -0.71923  -0.67127  -0.63212  -0.61500  -0.56743
 Alpha  occ. eigenvalues --   -0.55492  -0.51811  -0.47569  -0.45975  -0.43044
 Alpha  occ. eigenvalues --   -0.42271  -0.40915  -0.40192  -0.39694  -0.39260
 Alpha  occ. eigenvalues --   -0.37638  -0.36739  -0.36265  -0.35535  -0.34938
 Alpha  occ. eigenvalues --   -0.33503  -0.32485  -0.31336  -0.30654  -0.30124
 Alpha  occ. eigenvalues --   -0.28710  -0.22853  -0.22033  -0.21874  -0.19682
 Alpha  occ. eigenvalues --   -0.19588  -0.18582  -0.11350
 Alpha virt. eigenvalues --   -0.00895  -0.00065   0.00323   0.00907   0.01486
 Alpha virt. eigenvalues --    0.02242   0.02899   0.03063   0.04221   0.04860
 Alpha virt. eigenvalues --    0.05054   0.05572   0.05723   0.06585   0.06775

  Beta  occ. eigenvalues --  -88.81458 -19.01522 -19.00852 -10.17347 -10.16877
  Beta  occ. eigenvalues --  -10.16434 -10.15035 -10.14939 -10.14690 -10.14648
  Beta  occ. eigenvalues --  -10.14510 -10.13934 -10.13870 -10.13166 -10.12987
  Beta  occ. eigenvalues --   -7.90035  -5.86432  -5.86060  -5.85434  -0.92856
  Beta  occ. eigenvalues --   -0.91661  -0.82557  -0.78562  -0.74564  -0.72196
  Beta  occ. eigenvalues --   -0.71923  -0.67127  -0.63212  -0.61500  -0.56743
  Beta  occ. eigenvalues --   -0.55492  -0.51811  -0.47569  -0.45975  -0.43044
  Beta  occ. eigenvalues --   -0.42271  -0.40915  -0.40192  -0.39694  -0.39260
  Beta  occ. eigenvalues --   -0.37638  -0.36739  -0.36265  -0.35535  -0.34938
  Beta  occ. eigenvalues --   -0.33503  -0.32485  -0.31336  -0.30654  -0.30124
  Beta  occ. eigenvalues --   -0.28710  -0.22853  -0.22033  -0.21874  -0.19682
  Beta  occ. eigenvalues --   -0.19588  -0.18582  -0.11350
  Beta virt. eigenvalues --   -0.00895  -0.00065   0.00323   0.00907   0.01486
  Beta virt. eigenvalues --    0.02242   0.02899   0.03063   0.04221   0.04860
  Beta virt. eigenvalues --    0.05054   0.05572   0.05723   0.06585   0.06775

 Mulliken charges and spin densities:
               1          2
     1  C    0.041552  -0.000000
     2  C   -0.402066  -0.000000
     3  C   -0.448943  -0.000000
     4  C    0.307091  -0.000000
     5  C    0.487629   0.000000
     6  C    0.090834  -0.000000
     7  C   -0.855299   0.000000
     8  C    0.581104   0.000000
     9  C    0.292149  -0.000000
    10  C   -0.857307   0.000000
    11  O   -0.649470  -0.000000
    12  O   -0.705169  -0.000000
    13  H    0.157062   0.000000
    14  H    0.155073  -0.000000
    15  H    0.154629  -0.000000
    16  H    0.150346  -0.000000
    17  S   -0.584413   0.000000
    18  C   -0.626674  -0.000000
    19  C   -0.233806   0.000000
    20  H    0.154692   0.000000
    21  H    0.154729   0.000000
    22  H    0.194489  -0.000000
    23  H    0.140138   0.000000
    24  H    0.171713  -0.000000
    25  H    0.129919   0.000000
 Sum of Mulliken charges =  -2.00000  -0.00000

 Dipole moment (field-independent basis, Debye):
    X=            -17.2488    Y=            -20.9472    Z=              7.8999  Tot=             28.2615
 Quadrupole moment (field-independent basis, Debye-Ang):
   XX=           -149.7410   YY=           -207.0742   ZZ=           -118.2598
   XY=            -44.3075   XZ=             23.6976   YZ=             24.2757

  Exact polarizability: 398.819   3.107 323.700 -84.344   1.301 206.081
 Approx polarizability: 419.128  -1.261 368.173 -88.709   3.262 224.986

                      1                      2                      3
                      A                      A                      A
 Frequencies --     66.8246                76.4759               103.5317
 Red. masses --      4.3257                 3.8197                 3.6089
 Frc consts  --      0.0114                 0.0132                 0.0228
 IR Inten    --      7.3867                 7.3057                12.7110

                      4                      5                      6
                      A                      A                      A
 Frequencies --    138.3993               142.7403               168.8047
 Red. masses --      2.3172                 1.3460                 2.2968
 Frc consts  --      0.0262                 0.0162                 0.0386
 IR Inten    --      5.4914                 0.1017                 4.0317

                      7                      8                      9
                      A                      A                      A
 Frequencies --    177.5498               200.0108               235.2887
 Red. masses --      1.4194                 4.8152                 5.9342
 Frc consts  --      0.0264                 0.1135                 0.1936
 IR Inten    --      1.7094                 2.2893                12.4736

                     10                     11                     12
                      A                      A                      A
 Frequencies --    273.5692               303.9525               331.2869
 Red. masses --      4.8748                 5.7852                 4.5050
 Frc consts  --      0.2150                 0.3149                 0.2913
 IR Inten    --      9.9320                 3.4981                 1.0697

                     13                     14                     15
                      A                      A                      A
 Frequencies --    359.4442               370.1954               397.9063
 Red. masses --      5.4010                 9.8786                 7.7161
 Frc consts  --      0.4111                 0.7976                 0.7198
 IR Inten    --      8.6015                13.0743                 4.9382

                     16                     17                     18
                      A                      A                      A
 Frequencies --    428.4466               462.2543               504.0670
 Red. masses --      6.1989                 3.2324                10.9291
 Frc consts  --      0.6704                 0.4069                 1.6361
 IR Inten    --      5.2308                 3.5113                 0.6476

                     19                     20                     21
                      A                      A                      A
 Frequencies --    528.4813               566.5414               653.9566
 Red. masses --      4.5464                 6.4630                 6.2371
 Frc consts  --      0.7481                 1.2222                 1.5716
 IR Inten    --      1.8884                30.6897                17.0162

                     22                     23                     24
                      A                      A                      A
 Frequencies --    671.9617               679.2300               685.6571
 Red. masses --      5.1539                 5.6085                 5.4883
 Frc consts  --      1.3711                 1.5245                 1.5202
 IR Inten    --      1.9219                 5.8054                 6.6492

                     25                     26                     27
                      A                      A                      A
 Frequencies --    698.0332               778.9542               794.9676
 Red. masses --      2.6405                 1.8531                 3.7983
 Frc consts  --      0.7580                 0.6625                 1.4143
 IR Inten    --     95.4992                54.1426                 1.9665

                     28                     29                     30
                      A                      A                      A
 Frequencies --    799.8533               847.6131               868.1708
 Red. masses --      6.2045                 4.5374                 1.6465
 Frc consts  --      2.3387                 1.9207                 0.7312
 IR Inten    --    105.8058                 3.5622                 0.1895

                     31                     32                     33
                      A                      A                      A
 Frequencies --    958.3726               963.9071               975.6281
 Red. masses --      1.2256                 4.6297                 1.3745
 Frc consts  --      0.6632                 2.5344                 0.7708
 IR Inten    --     51.1615               126.3416                 6.1432

                     34                     35                     36
                      A                      A                      A
 Frequencies --    979.4300               984.2532              1012.5871
 Red. masses --      1.3843                 1.2507                 1.8911
 Frc consts  --      0.7824                 0.7138                 1.1424
 IR Inten    --     49.4049                 0.3072                64.7377

                     37                     38                     39
                      A                      A                      A
 Frequencies --   1025.0864              1043.7048              1097.1597
 Red. masses --      2.0471                 1.4460                 2.3436
 Frc consts  --      1.2674                 0.9281                 1.6622
 IR Inten    --     75.1680                 2.1335               123.7280

                     40                     41                     42
                      A                      A                      A
 Frequencies --   1115.1417              1150.7051              1181.8540
 Red. masses --      2.0654                 2.1552                 1.8308
 Frc consts  --      1.5133                 1.6814                 1.5067
 IR Inten    --    147.7676                29.9194               166.7520

                     43                     44                     45
                      A                      A                      A
 Frequencies --   1214.4356              1254.0476              1311.7854
 Red. masses --      2.9662                 2.4738                 5.0787
 Frc consts  --      2.5775                 2.2922                 5.1490
 IR Inten    --    280.9291                21.2773               436.6911

                     46                     47                     48
                      A                      A                      A
 Frequencies --   1316.2205              1347.4956              1358.3325
 Red. masses --      1.3338                 4.7646                 2.7737
 Frc consts  --      1.3614                 5.0972                 3.0152
 IR Inten    --      7.1546               474.5707               682.1055

                     49                     50                     51
                      A                      A                      A
 Frequencies --   1386.9440              1417.6760              1425.9190
 Red. masses --      1.9020                 2.7411                 3.9230
 Frc consts  --      2.1557                 3.2459                 4.6996
 IR Inten    --    711.4101                 9.2010                19.4880

                     52                     53                     54
                      A                      A                      A
 Frequencies --   1449.1427              1461.6183              1482.2143
 Red. masses --      1.0657                 1.1982                 1.0585
 Frc consts  --      1.3185                 1.5082                 1.3702
 IR Inten    --      2.7935                 8.4171                14.5305

                     55                     56                     57
                      A                      A                      A
 Frequencies --   1487.5508              1497.6709              1505.0214
 Red. masses --      1.1242                 2.8752                 3.4959
 Frc consts  --      1.4656                 3.7997                 4.6654
 IR Inten    --      9.0529                 5.3741               246.9195

                     58                     59                     60
                      A                      A                      A
 Frequencies --   1578.9727              1609.9205              2985.8982
 Red. masses --      7.2596                 5.5359                 1.0474
 Frc consts  --     10.6638                 8.4538                 5.5019
 IR Inten    --     34.2210                 5.8386               220.7436

                     61                     62                     63
                      A                      A                      A
 Frequencies --   3024.3369              3028.7739              3101.1482
 Red. masses --      1.0911                 1.0291                 1.0951
 Frc consts  --      5.8798                 5.5621                 6.2050
 IR Inten    --     86.0747               100.3565                24.9717

                     64                     65                     66
                      A                      A                      A
 Frequencies --   3107.9783              3133.2969              3138.1454
 Red. masses --      1.1055                 1.1059                 1.0848
 Frc consts  --      6.2916                 6.3967                 6.2941
 IR Inten    --     34.1009                 8.4079                17.6316

                     67                     68                     69
                      A                      A                      A
 Frequencies --   3154.0305              3172.4160              3176.9597
 Red. masses --      1.0897                 1.0914                 1.0930
 Frc consts  --      6.3871                 6.4719                 6.4997
 IR Inten    --     39.2594                39.0749                66.2478

 - Thermochemistry -
 -------------------
 Temperature   298.150 Kelvin.  Pressure   1.00000 Atm.
 Atom     1 has atomic number  6 and mass  12.00000

 Molecular mass:   218.04015 amu.
 Principal axes and moments of inertia in atomic units:
                           1         2         3
     Eigenvalues --  2021.511164140.622435933.25586
           X            0.93156  -0.15870   0.32712
           Y            0.18641   0.98093  -0.05497
           Z           -0.31216   0.11219   0.94338
 This molecule is an asymmetric top.
 Rotational symmetry number  1.
 Warning -- assumption of classical behavior for rotation
           may cause significant error
 Rotational temperatures (Kelvin)      0.04285     0.02092     0.01460
 Rotational constants (GHZ):           0.89277     0.43586     0.30417
 Zero-point vibrational energy     484068.6 (Joules/Mol)
                                  115.69517 (Kcal/Mol)
 Warning -- explicit consideration of  20 degrees of freedom as
           vibrations may cause significant error
 Vibrational temperatures:     96.15   110.03   148.96   199.13   205.37
          (Kelvin)            242.87   255.45   287.77   338.53   393.61
                              437.32   476.65   517.16   532.63   572.50
                              616.44   665.08   725.24   760.37   815.13
                              940.90   966.80   977.26   986.51  1004.31
                             1120.74  1143.78  1150.81  1219.53  1249.10
                             1378.88  1386.85  1403.71  1409.18  1416.12
                             1456.89  1474.87  1501.66  1578.57  1604.44
                             1655.61  1700.42  1747.30  1804.29  1887.37
                             1893.75  1938.75  1954.34  1995.50  2039.72
                             2051.58  2084.99  2102.94  2132.58  2140.25
                             2154.81  2165.39  2271.79  2316.32  4296.04
                             4351.35  4357.73  4461.86  4471.69  4508.12
                             4515.09  4537.95  4564.40  4570.94

 Zero-point correction=                           0.184372 (Hartree/Particle)
 Thermal correction to Energy=                    0.198004
 Thermal correction to Enthalpy=                  0.198948
 Thermal correction to Gibbs Free Energy=         0.144303
 Sum of electronic and zero-point Energies=          -1012.190909
 Sum of electronic and thermal Energies=             -1012.177277
 Sum of electronic and thermal Enthalpies=           -1012.176333
 Sum of electronic and thermal Free Energies=        -1012.230978

                     E (Thermal)             CV                S
                      KCal/Mol        Cal/Mol-Kelvin    Cal/Mol-Kelvin
 Total                  124.249             52.256            115.011
 Electronic               0.000              0.000              0.000
 Translational            0.889              2.981             42.042
 Rotational               0.889              2.981             32.274
 Vibrational            122.472             46.295             40.695
 Vibration     1          0.598              1.970              4.245
 Vibration     2          0.599              1.965              3.979
 Vibration     3          0.605              1.946              3.387
 Vibration     4          0.614              1.915              2.826
 Vibration     5          0.616              1.910              2.767
 Vibration     6          0.625              1.881              2.449
 Vibration     7          0.628              1.870              2.354
 Vibration     8          0.638              1.840              2.133
 Vibration     9          0.655              1.787              1.838
 Vibration    10          0.676              1.722              1.574
 Vibration    11          0.695              1.666              1.395
 Vibration    12          0.714              1.613              1.254
 Vibration    13          0.734              1.556              1.125
 Vibration    14          0.742              1.533              1.079
 Vibration    15          0.764              1.475              0.970
 Vibration    16          0.790              1.408              0.864
 Vibration    17          0.820              1.334              0.760
 Vibration    18          0.859              1.241              0.648
 Vibration    19          0.883              1.187              0.591
 Vibration    20          0.922              1.104              0.511

 Optimization completed.
    -- Stationary point found.
 Normal termination of Gaussian 16 at Sun Feb 11 04:10:43 2024.
