 Q-Chem 5.4, Q-Chem, Inc., Pleasanton, CA (2021)
 Q-Chem 5.4.0 for Intel X86 EM64T Linux

User input:
--------------------------------------------------------------
$molecule
-1 2
C                 -0.5023700000      1.1678580000     -0.3632110000
C                 -1.4682240000      0.1396970000     -0.7998210000
C                 -1.2925290000     -1.1778630000     -0.5005800000
C                 -0.1588780000     -1.6742140000      0.2596550000
C                  0.7736630000     -0.6724010000      0.6956900000
C                  0.6302440000      0.6874280000      0.4416500000
O                 -0.6654350000      2.3536240000     -0.7176740000
O                 -0.0110310000     -2.9036000000      0.5208200000
C                  1.6203650000      1.6357660000      1.0033060000
C                  3.0068100000      1.0843860000      1.3713350000
O                  1.4006120000      2.8206540000      1.2105690000
H                  3.4179830000      0.4407390000      0.5898320000
H                  2.9539240000      0.4925840000      2.2911770000
H                  3.6680600000      1.9338600000      1.5451200000
H                  1.6086710000     -1.0433580000      1.2796940000
C                 -2.6428260000      0.6254660000     -1.6057080000
H                 -2.0107510000     -1.9239370000     -0.8342240000
H                 -3.2150060000      1.3748350000     -1.0491860000
H                 -3.3041240000     -0.2035720000     -1.8726700000
H                 -2.3080100000      1.1247080000     -2.5208050000
$end
$rem
MAX_SCF_CYCLES=200
BASIS  =  6-311++G(d,p)
GUI  =  2
JOB_TYPE  =  SP
METHOD  =  B3LYP
SOLVENT_METHOD = COSMO
$end
$solvent
dielectric 37.219
opticaldielectric 1.43
$end

--------------------------------------------------------------

             Standard Nuclear Orientation (Angstroms)
    I     Atom           X                Y                Z
 ----------------------------------------------------------------
    1      C      -0.2399635121    -1.0750508534     0.0504843717
    2      C      -1.6689078544    -0.7037104477     0.0214731125
    3      C      -2.0673768408     0.5982356585    -0.0288961856
    4      C      -1.1358965321     1.7122574188    -0.0569338815
    5      C       0.2541776093     1.3505077642    -0.0421151792
    6      C       0.7167682518     0.0391527506    -0.0176577433
    7      O       0.0802521084    -2.2760346504     0.1661351179
    8      O      -1.5273709808     2.9150133839    -0.0967041458
    9      C       2.1754639398    -0.2136736639    -0.0762044196
   10      C       3.1140463919     0.9203384572     0.3651281954
   11      O       2.6800430286    -1.2555917801    -0.4699244813
   12      H       2.7918652940     1.3851378060     1.3001429231
   13      H       3.1531811878     1.7060247430    -0.3966469482
   14      H       4.1138341699     0.5002597333     0.4792208336
   15      H       0.9473784176     2.1834066708    -0.0828604682
   16      C      -2.6555972206    -1.8392011292     0.0685925697
   17      H      -3.1244220349     0.8555333497    -0.0444180760
   18      H      -2.4957508133    -2.5302049843    -0.7654478282
   19      H      -3.6831295305    -1.4667041584     0.0323831996
   20      H      -2.5226353368    -2.4336845185     0.9783493972
 ----------------------------------------------------------------

    9    -573.6606765871      8.31e-06  Convergence criterion met
 Total energy in the final basis set =     -573.6606765871
    5    -573.7516265482      4.18e-06  Convergence criterion met
 Total energy in the final basis set =     -573.7516265482

                    Orbital Energies (a.u.)
 --------------------------------------------------------------

 Alpha MOs
 -- Occupied --
-19.1083 -19.0878 -19.0874 -10.2602 -10.2356 -10.2273 -10.1809 -10.1786
-10.1748 -10.1667 -10.1613 -10.1577  -1.0424  -1.0145  -1.0075  -0.8354
 -0.7843  -0.7307  -0.7028  -0.6727  -0.6216  -0.5643  -0.5283  -0.4922
 -0.4770  -0.4609  -0.4435  -0.4280  -0.4244  -0.4236  -0.4089  -0.3958
 -0.3941  -0.3849  -0.3790  -0.3692  -0.3655  -0.3556  -0.2904  -0.2712
 -0.2600  -0.2537  -0.2315  -0.1727

 Beta MOs
 -- Occupied --
-19.1074 -19.0818 -19.0806 -10.2601 -10.2346 -10.2260 -10.1797 -10.1775
-10.1722 -10.1667 -10.1614 -10.1578  -1.0407  -1.0049  -0.9948  -0.8295
 -0.7818  -0.7285  -0.6989  -0.6656  -0.6183  -0.5605  -0.5257  -0.4901
 -0.4738  -0.4587  -0.4388  -0.4247  -0.4213  -0.4178  -0.4053  -0.3926
 -0.3845  -0.3791  -0.3676  -0.3654  -0.3572  -0.3486  -0.2684  -0.2596
 -0.2517  -0.2472  -0.2276

          Ground-State Mulliken Net Atomic Charges

     Atom                 Charge (a.u.)    Spin (a.u.)
  --------------------------------------------------------
      1 C                    -1.508211       0.002916
      2 C                     1.275376       0.094756
      3 C                    -0.524134      -0.015641
      4 C                    -0.279511       0.144638
      5 C                    -0.690244       0.189179
      6 C                     1.586948       0.083247
      7 O                    -0.441204       0.208344
      8 O                    -0.528138       0.250158
      9 C                     0.099851       0.016555
     10 C                    -0.645509       0.002088
     11 O                    -0.385732       0.030451
     12 H                     0.171392      -0.000355
     13 H                     0.192579       0.000607
     14 H                     0.191527      -0.000281
     15 H                     0.195969      -0.012941
     16 C                    -0.409018      -0.000341
     17 H                     0.184559      -0.002034
     18 H                     0.176709       0.004015
     19 H                     0.158291      -0.000297
     20 H                     0.178501       0.004937
  --------------------------------------------------------
  Sum of atomic charges =    -1.000000

                    Cartesian Multipole Moments
 -----------------------------------------------------------------
    Charge (ESU x 10^10)
                -4.8032
    Dipole Moment (Debye)
         X      -0.1565      Y       0.9256      Z       1.1246
       Tot       1.4649
    Quadrupole Moments (Debye-Ang)
        XX     -82.7406     XY      24.9498     YY    -112.5288
        XZ       3.0048     YZ      -0.0160     ZZ     -73.4383

 Total job time:  32.63s(wall), 238.47s(cpu)
        *  Thank you very much for using Q-Chem.  Have a nice day.  *
