 Q-Chem 5.4, Q-Chem, Inc., Pleasanton, CA (2021)
 Q-Chem 5.4.0 for Intel X86 EM64T Linux

User input:
--------------------------------------------------------------
$molecule
0 1
C                 -2.9637860000     -2.0529370000     -0.0358190000
C                 -2.3359990000     -0.6799800000     -0.0490140000
C                 -3.1974190000      0.4194560000     -0.0966560000
C                 -2.7267680000      1.7207070000     -0.1127190000
C                 -1.3610370000      2.0155470000     -0.0823040000
C                 -0.9652150000      3.4722970000     -0.1041380000
C                 -0.4608390000      0.9249150000     -0.0335710000
C                  1.0114410000      1.1930230000      0.0006470000
O                  1.4626140000      2.3294420000     -0.0128020000
C                  1.9511900000      0.0382500000      0.0526900000
C                  3.3292190000      0.2814430000      0.0855150000
C                  4.2215290000     -0.7813710000      0.1340010000
C                  3.7457300000     -2.0968270000      0.1500810000
C                  2.3796770000     -2.3437920000      0.1176390000
C                  1.4757470000     -1.2762250000      0.0688070000
C                  0.0143810000     -1.5636240000      0.0346480000
O                 -0.3657820000     -2.7257040000      0.0494750000
C                 -0.9460930000     -0.4166790000     -0.0170070000
H                 -2.6861800000     -2.6185540000      0.8552020000
H                 -2.6386780000     -2.6569830000     -0.8845290000
H                 -4.0512020000     -1.9548050000     -0.0676440000
H                 -4.2674500000      0.2430160000     -0.1217380000
H                 -3.4365810000      2.5401520000     -0.1500940000
H                 -0.3358090000      3.7098370000     -0.9633850000
H                 -0.3827230000      3.7487120000      0.7763100000
H                 -1.8640010000      4.0918480000     -0.1422210000
H                  3.6735180000      1.3077740000      0.0721280000
H                  5.2885420000     -0.5909090000      0.1593980000
H                  4.4442510000     -2.9251240000      0.1879230000
H                  1.9877250000     -3.3529090000      0.1291780000
$end

$rem
BASIS  =  6-311++G(d,p)
GUI  =  2
JOB_TYPE  =  SP
METHOD  =  B3LYP
SCF_CONVERGENCE  = 8
SOLVENT_METHOD = sm12
$end

$smx
solvent dimethylformamide
charges CM5
$end

--------------------------------------------------------------

             Standard Nuclear Orientation (Angstroms)
    I     Atom           X                Y                Z
 ----------------------------------------------------------------
    1      C      -2.9637860000    -2.0529370000    -0.0358190000
    2      C      -2.3359990000    -0.6799800000    -0.0490140000
    3      C      -3.1974190000     0.4194560000    -0.0966560000
    4      C      -2.7267680000     1.7207070000    -0.1127190000
    5      C      -1.3610370000     2.0155470000    -0.0823040000
    6      C      -0.9652150000     3.4722970000    -0.1041380000
    7      C      -0.4608390000     0.9249150000    -0.0335710000
    8      C       1.0114410000     1.1930230000     0.0006470000
    9      O       1.4626140000     2.3294420000    -0.0128020000
   10      C       1.9511900000     0.0382500000     0.0526900000
   11      C       3.3292190000     0.2814430000     0.0855150000
   12      C       4.2215290000    -0.7813710000     0.1340010000
   13      C       3.7457300000    -2.0968270000     0.1500810000
   14      C       2.3796770000    -2.3437920000     0.1176390000
   15      C       1.4757470000    -1.2762250000     0.0688070000
   16      C       0.0143810000    -1.5636240000     0.0346480000
   17      O      -0.3657820000    -2.7257040000     0.0494750000
   18      C      -0.9460930000    -0.4166790000    -0.0170070000
   19      H      -2.6861800000    -2.6185540000     0.8552020000
   20      H      -2.6386780000    -2.6569830000    -0.8845290000
   21      H      -4.0512020000    -1.9548050000    -0.0676440000
   22      H      -4.2674500000     0.2430160000    -0.1217380000
   23      H      -3.4365810000     2.5401520000    -0.1500940000
   24      H      -0.3358090000     3.7098370000    -0.9633850000
   25      H      -0.3827230000     3.7487120000     0.7763100000
   26      H      -1.8640010000     4.0918480000    -0.1422210000
   27      H       3.6735180000     1.3077740000     0.0721280000
   28      H       5.2885420000    -0.5909090000     0.1593980000
   29      H       4.4442510000    -2.9251240000     0.1879230000
   30      H       1.9877250000    -3.3529090000     0.1291780000
 ----------------------------------------------------------------

   14    -767.5981294175      7.76e-09  Convergence criterion met
 Total energy in the final basis set =     -767.6172088543

                    Orbital Energies (a.u.)
 --------------------------------------------------------------

 Alpha MOs
 -- Occupied --
-19.1230 -19.1230 -10.2777 -10.2777 -10.2098 -10.2094 -10.2079 -10.2078
-10.2043 -10.2037 -10.1956 -10.1951 -10.1939 -10.1939 -10.1912 -10.1906
-10.1662 -10.1662  -1.0604  -1.0587  -0.8907  -0.8812  -0.8104  -0.8060
 -0.7745  -0.7668  -0.7279  -0.6979  -0.6585  -0.6582  -0.6416  -0.6021
 -0.5692  -0.5569  -0.5384  -0.4985  -0.4925  -0.4851  -0.4765  -0.4582
 -0.4530  -0.4483  -0.4420  -0.4367  -0.4283  -0.4187  -0.4130  -0.4021
 -0.4007  -0.3844  -0.3801  -0.3753  -0.3702  -0.3673  -0.3609  -0.3576
 -0.2852  -0.2765  -0.2750  -0.2741  -0.2656  -0.2597

          Ground-State Mulliken Net Atomic Charges

     Atom                 Charge (a.u.)
  ----------------------------------------
      1 C                     0.095969
      2 C                     0.628078
      3 C                     0.351720
      4 C                     0.344780
      5 C                     0.629754
      6 C                     0.095473
      7 C                    -0.220616
      8 C                    -1.965530
      9 O                    -0.211544
     10 C                    -0.328207
     11 C                     0.067379
     12 C                     0.278824
     13 C                     0.278102
     14 C                     0.067640
     15 C                    -0.326251
     16 C                    -1.959946
     17 O                    -0.211125
     18 C                    -0.224807
     19 H                     0.148089
     20 H                     0.147998
     21 H                     0.216645
     22 H                     0.268408
     23 H                     0.267690
     24 H                     0.147764
     25 H                     0.147891
     26 H                     0.216816
     27 H                     0.203068
     28 H                     0.321332
     29 H                     0.321218
     30 H                     0.203390
  ----------------------------------------
  Sum of atomic charges =     0.000000

                    Cartesian Multipole Moments
 -----------------------------------------------------------------
    Charge (ESU x 10^10)
                 0.0000
    Dipole Moment (Debye)
         X      -0.5176      Y       0.1852      Z      -0.0152
       Tot       0.5500
    Quadrupole Moments (Debye-Ang)
        XX     -80.6296     XY     -11.4946     YY    -108.2802
        XZ       0.9948     YZ      -0.2981     ZZ    -107.4081

 Total job time:  707.24s(wall), 5544.13s(cpu)
        *  Thank you very much for using Q-Chem.  Have a nice day.  *
