 Gaussian 16, Revision A.03,
 Gaussian 16:  ES64L-G16RevA.03 25-Dec-2016

 --------------------------------------
 #P UB3LYP/6-311++G(d,p) nosym opt freq
 --------------------------------------

 --------
 Oxidized
 --------
 Symbolic Z-matrix:
 Charge =  0 Multiplicity = 1

 SCF Done:  E(UB3LYP) =  -767.599461686     A.U. after   15 cycles
 SCF Done:  E(UB3LYP) =  -767.599461464     A.U. after    9 cycles
 SCF Done:  E(UB3LYP) =  -767.599461791     A.U. after    8 cycles
 SCF Done:  E(UB3LYP) =  -767.599461839     A.U. after    8 cycles
 SCF Done:  E(UB3LYP) =  -767.599461870     A.U. after    7 cycles
 SCF Done:  E(UB3LYP) =  -767.599461893     A.U. after    8 cycles
 SCF Done:  E(UB3LYP) =  -767.599461906     A.U. after    8 cycles
 Optimization completed.
    -- Stationary point found.
 Normal termination of Gaussian 16 at Wed Dec 27 20:36:08 2023.

 ----------------------------------------------------------------------
 #P Geom=AllCheck Guess=TCheck SCRF=Check GenChk UB3LYP/6-311++G(d,p) F
 req
 ----------------------------------------------------------------------

 Structure from the checkpoint file:  "127.chk"
 --------
 Oxidized
 --------
 Charge =  0 Multiplicity = 1

                          Input orientation:
 ---------------------------------------------------------------------
 Center     Atomic      Atomic             Coordinates (Angstroms)
 Number     Number       Type             X           Y           Z
 ---------------------------------------------------------------------
      1          6           0       -2.963786   -2.052937   -0.035819
      2          6           0       -2.335999   -0.679980   -0.049014
      3          6           0       -3.197419    0.419456   -0.096656
      4          6           0       -2.726768    1.720707   -0.112719
      5          6           0       -1.361037    2.015547   -0.082304
      6          6           0       -0.965215    3.472297   -0.104138
      7          6           0       -0.460839    0.924915   -0.033571
      8          6           0        1.011441    1.193023    0.000647
      9          8           0        1.462614    2.329442   -0.012802
     10          6           0        1.951190    0.038250    0.052690
     11          6           0        3.329219    0.281443    0.085515
     12          6           0        4.221529   -0.781371    0.134001
     13          6           0        3.745730   -2.096827    0.150081
     14          6           0        2.379677   -2.343792    0.117639
     15          6           0        1.475747   -1.276225    0.068807
     16          6           0        0.014381   -1.563624    0.034648
     17          8           0       -0.365782   -2.725704    0.049475
     18          6           0       -0.946093   -0.416679   -0.017007
     19          1           0       -2.686180   -2.618554    0.855202
     20          1           0       -2.638678   -2.656983   -0.884529
     21          1           0       -4.051202   -1.954805   -0.067644
     22          1           0       -4.267450    0.243016   -0.121738
     23          1           0       -3.436581    2.540152   -0.150094
     24          1           0       -0.335809    3.709837   -0.963385
     25          1           0       -0.382723    3.748712    0.776310
     26          1           0       -1.864001    4.091848   -0.142221
     27          1           0        3.673518    1.307774    0.072128
     28          1           0        5.288542   -0.590909    0.159398
     29          1           0        4.444251   -2.925124    0.187923
     30          1           0        1.987725   -3.352909    0.129178
 ---------------------------------------------------------------------

 SCF Done:  E(UB3LYP) =  -767.599461906     A.U. after    1 cycles

 Alpha  occ. eigenvalues --  -19.12008 -19.12008 -10.27480 -10.27480 -10.20882
 Alpha  occ. eigenvalues --  -10.20848 -10.20806 -10.20797 -10.20337 -10.20283
 Alpha  occ. eigenvalues --  -10.19863 -10.19810 -10.19457 -10.19456 -10.19347
 Alpha  occ. eigenvalues --  -10.19288 -10.16821 -10.16821  -1.05722  -1.05529
 Alpha  occ. eigenvalues --   -0.89105  -0.88172  -0.81059  -0.80669  -0.77496
 Alpha  occ. eigenvalues --   -0.76782  -0.72955  -0.69720  -0.65980  -0.65915
 Alpha  occ. eigenvalues --   -0.64262  -0.60282  -0.56933  -0.55831  -0.53768
 Alpha  occ. eigenvalues --   -0.49933  -0.49314  -0.48712  -0.47952  -0.45600
 Alpha  occ. eigenvalues --   -0.45045  -0.44841  -0.44252  -0.43665  -0.42729
 Alpha  occ. eigenvalues --   -0.41896  -0.41384  -0.40614  -0.39909  -0.38796
 Alpha  occ. eigenvalues --   -0.38265  -0.37555  -0.37207  -0.36930  -0.36202
 Alpha  occ. eigenvalues --   -0.35770  -0.28448  -0.27506  -0.27459  -0.27305
 Alpha  occ. eigenvalues --   -0.26258  -0.25932
 Alpha virt. eigenvalues --   -0.11093  -0.06752  -0.03637  -0.02380  -0.00975
 Alpha virt. eigenvalues --   -0.00493   0.00484   0.01099   0.01600   0.02929
 Alpha virt. eigenvalues --    0.03272   0.03445   0.03543   0.03808   0.04027

  Beta  occ. eigenvalues --  -19.12008 -19.12008 -10.27480 -10.27480 -10.20882
  Beta  occ. eigenvalues --  -10.20848 -10.20806 -10.20797 -10.20337 -10.20283
  Beta  occ. eigenvalues --  -10.19863 -10.19810 -10.19457 -10.19456 -10.19347
  Beta  occ. eigenvalues --  -10.19288 -10.16821 -10.16821  -1.05722  -1.05529
  Beta  occ. eigenvalues --   -0.89105  -0.88172  -0.81059  -0.80669  -0.77496
  Beta  occ. eigenvalues --   -0.76782  -0.72955  -0.69720  -0.65980  -0.65915
  Beta  occ. eigenvalues --   -0.64262  -0.60282  -0.56933  -0.55831  -0.53768
  Beta  occ. eigenvalues --   -0.49933  -0.49314  -0.48712  -0.47952  -0.45600
  Beta  occ. eigenvalues --   -0.45045  -0.44841  -0.44252  -0.43665  -0.42729
  Beta  occ. eigenvalues --   -0.41896  -0.41384  -0.40614  -0.39909  -0.38796
  Beta  occ. eigenvalues --   -0.38265  -0.37555  -0.37207  -0.36930  -0.36202
  Beta  occ. eigenvalues --   -0.35770  -0.28448  -0.27506  -0.27459  -0.27305
  Beta  occ. eigenvalues --   -0.26258  -0.25932
  Beta virt. eigenvalues --   -0.11093  -0.06752  -0.03637  -0.02380  -0.00975
  Beta virt. eigenvalues --   -0.00493   0.00484   0.01099   0.01600   0.02929
  Beta virt. eigenvalues --    0.03272   0.03445   0.03543   0.03808   0.04027

 Mulliken charges and spin densities:
               1          2
     1  C   -0.310119  -0.000000
     2  C    0.980885  -0.000000
     3  C   -0.485307   0.000000
     4  C   -0.485106  -0.000000
     5  C    0.980938   0.000000
     6  C   -0.310153   0.000000
     7  C    0.295050   0.000000
     8  C   -1.136400   0.000000
     9  O   -0.185458  -0.000000
    10  C    0.185116  -0.000000
    11  C    0.109583   0.000000
    12  C   -0.444213  -0.000000
    13  C   -0.444201  -0.000000
    14  C    0.109659   0.000000
    15  C    0.185148   0.000000
    16  C   -1.136301   0.000000
    17  O   -0.185474  -0.000000
    18  C    0.295429  -0.000000
    19  H    0.179031   0.000000
    20  H    0.179086   0.000000
    21  H    0.142979  -0.000000
    22  H    0.124803   0.000000
    23  H    0.124813  -0.000000
    24  H    0.179101   0.000000
    25  H    0.179036   0.000000
    26  H    0.142972   0.000000
    27  H    0.190766   0.000000
    28  H    0.173790   0.000000
    29  H    0.173791   0.000000
    30  H    0.190758  -0.000000
 Sum of Mulliken charges =  -0.00000   0.00000

 Dipole moment (field-independent basis, Debye):
    X=             -0.4285    Y=              0.1548    Z=             -0.0124  Tot=              0.4557
 Quadrupole moment (field-independent basis, Debye-Ang):
   XX=            -86.1667   YY=           -108.7618   ZZ=           -107.1660
   XY=             -9.3895   XZ=              0.7889   YZ=             -0.2237

  Exact polarizability: 264.591 -14.772 228.886   4.930  -3.338  97.321
 Approx polarizability: 397.610   3.390 405.468   6.469  -5.383 159.494

                      1                      2                      3
                      A                      A                      A
 Frequencies --      8.3800                38.9436               106.3004
 Red. masses --      6.8182                 4.3991                 4.4491
 Frc consts  --      0.0003                 0.0039                 0.0296
 IR Inten    --      5.7748                 0.0002                 0.0000

                      4                      5                      6
                      A                      A                      A
 Frequencies --    114.4228               157.3576               209.5202
 Red. masses --      3.0995                 5.6936                 4.3638
 Frc consts  --      0.0239                 0.0831                 0.1129
 IR Inten    --      0.8344                 0.0594                 0.7440

                      7                      8                      9
                      A                      A                      A
 Frequencies --    235.6756               245.4809               252.2673
 Red. masses --      3.6259                 1.0933                 1.1577
 Frc consts  --      0.1187                 0.0388                 0.0434
 IR Inten    --      0.0191                 0.0010                 1.0926

                     10                     11                     12
                      A                      A                      A
 Frequencies --    313.8066               319.2807               326.7010
 Red. masses --      3.8190                 2.9805                 5.3342
 Frc consts  --      0.2216                 0.1790                 0.3354
 IR Inten    --      0.1351                 0.0000                 0.5541

                     13                     14                     15
                      A                      A                      A
 Frequencies --    368.8092               394.4023               411.0101
 Red. masses --      7.9932                 4.4832                10.7477
 Frc consts  --      0.6406                 0.4109                 1.0697
 IR Inten    --      0.0320                 0.0734                24.2565

                     16                     17                     18
                      A                      A                      A
 Frequencies --    426.0700               431.3185               464.9557
 Red. masses --      3.2952                 5.1879                 6.2989
 Frc consts  --      0.3525                 0.5686                 0.8023
 IR Inten    --      0.0209                 0.0000                 2.7572

                     19                     20                     21
                      A                      A                      A
 Frequencies --    473.6156               498.5926               503.2699
 Red. masses --      3.8460                 4.0212                 6.9547
 Frc consts  --      0.5083                 0.5890                 1.0378
 IR Inten    --      0.0023                 0.0000                 0.0188

                     22                     23                     24
                      A                      A                      A
 Frequencies --    553.6079               606.7677               664.5509
 Red. masses --      3.4853                 5.1816                 6.6108
 Frc consts  --      0.6294                 1.1240                 1.7201
 IR Inten    --     17.6691                 2.4973                10.3109

                     25                     26                     27
                      A                      A                      A
 Frequencies --    669.5254               708.2580               736.1139
 Red. masses --      4.4428                 6.4961                 4.7477
 Frc consts  --      1.1734                 1.9199                 1.5157
 IR Inten    --      0.0000                 0.0288                 0.0000

                     28                     29                     30
                      A                      A                      A
 Frequencies --    744.1935               757.0857               808.8418
 Red. masses --      1.9242                 5.8189                 6.1239
 Frc consts  --      0.6279                 1.9651                 2.3605
 IR Inten    --     59.2168                 0.0129                 0.0000

                     31                     32                     33
                      A                      A                      A
 Frequencies --    816.0358               838.8549               863.3717
 Red. masses --      2.0394                 1.3332                 6.4302
 Frc consts  --      0.8002                 0.5528                 2.8240
 IR Inten    --      4.2694                24.1568                46.9618

                     34                     35                     36
                      A                      A                      A
 Frequencies --    874.8093               914.7996               938.9888
 Red. masses --      6.2140                 1.3854                 6.1693
 Frc consts  --      2.8019                 0.6831                 3.2049
 IR Inten    --      0.5445                 0.0000                 0.6884

                     37                     38                     39
                      A                      A                      A
 Frequencies --    982.7014               991.7671              1003.5093
 Red. masses --      1.3195                 1.8688                 1.3780
 Frc consts  --      0.7508                 1.0830                 0.8176
 IR Inten    --      0.0000                29.4011                 1.8045

                     40                     41                     42
                      A                      A                      A
 Frequencies --   1017.8738              1050.4698              1051.8701
 Red. masses --      1.3222                 2.3023                 1.4084
 Frc consts  --      0.8071                 1.4969                 0.9181
 IR Inten    --      0.0000                13.7188                 1.2655

                     43                     44                     45
                      A                      A                      A
 Frequencies --   1055.0843              1058.9771              1090.9870
 Red. masses --      1.5607                 1.5643                 2.2198
 Frc consts  --      1.0236                 1.0336                 1.5567
 IR Inten    --      0.0014                 5.0679                31.0959

                     46                     47                     48
                      A                      A                      A
 Frequencies --   1115.0123              1181.5300              1188.7129
 Red. masses --      2.2894                 1.1263                 2.7505
 Frc consts  --      1.6770                 0.9264                 2.2899
 IR Inten    --      0.1129                11.5788                14.6817

                     49                     50                     51
                      A                      A                      A
 Frequencies --   1206.1729              1220.4470              1256.8569
 Red. masses --      1.4846                 3.8834                 2.1333
 Frc consts  --      1.2726                 3.4080                 1.9855
 IR Inten    --      0.2540                 1.6950                 4.7967

                     52                     53                     54
                      A                      A                      A
 Frequencies --   1274.8010              1277.5617              1318.7985
 Red. masses --      1.9143                 5.0446                 2.7189
 Frc consts  --      1.8329                 4.8511                 2.7862
 IR Inten    --      1.0084               466.9260                 1.0142

                     55                     56                     57
                      A                      A                      A
 Frequencies --   1339.4727              1362.3030              1402.3517
 Red. masses --      7.0215                 7.4767                 3.2278
 Frc consts  --      7.4225                 8.1754                 3.7400
 IR Inten    --    191.4163                 0.5252                45.2511

                     58                     59                     60
                      A                      A                      A
 Frequencies --   1420.0167              1422.6784              1475.3802
 Red. masses --      1.2077                 1.2688                 1.0450
 Frc consts  --      1.4348                 1.5130                 1.3402
 IR Inten    --     13.9067                 1.9644                 0.9257

                     61                     62                     63
                      A                      A                      A
 Frequencies --   1475.5629              1475.9981              1480.3144
 Red. masses --      1.0450                 1.8801                 1.7077
 Frc consts  --      1.3406                 2.4132                 2.2048
 IR Inten    --     14.3918                 0.2157                 2.8396

                     64                     65                     66
                      A                      A                      A
 Frequencies --   1487.1908              1492.7408              1510.4335
 Red. masses --      1.9864                 1.1442                 2.5762
 Frc consts  --      2.5885                 1.5022                 3.4629
 IR Inten    --      0.6901                12.7686                 2.9780

                     67                     68                     69
                      A                      A                      A
 Frequencies --   1588.4516              1619.6285              1625.9000
 Red. masses --      4.5937                 6.7075                 7.3570
 Frc consts  --      6.8291                10.3667                11.4588
 IR Inten    --     58.9237                 0.9454                 6.9363

                     70                     71                     72
                      A                      A                      A
 Frequencies --   1629.3581              1706.6915              1714.4722
 Red. masses --      5.7910                11.7396                11.6749
 Frc consts  --      9.0581                20.1472                20.2192
 IR Inten    --     66.4425                 0.2036               332.1077

                     73                     74                     75
                      A                      A                      A
 Frequencies --   3039.9506              3040.0611              3103.6386
 Red. masses --      1.0364                 1.0363                 1.0990
 Frc consts  --      5.6430                 5.6431                 6.2373
 IR Inten    --     32.5066                18.4888                 0.0419

                     76                     77                     78
                      A                      A                      A
 Frequencies --   3103.7333              3106.9995              3107.1607
 Red. masses --      1.0990                 1.1022                 1.1022
 Frc consts  --      6.2376                 6.2692                 6.2698
 IR Inten    --     13.9695                 4.2195                48.3523

                     79                     80                     81
                      A                      A                      A
 Frequencies --   3159.5359              3168.9140              3176.5175
 Red. masses --      1.0871                 1.0870                 1.0946
 Frc consts  --      6.3937                 6.4316                 6.5076
 IR Inten    --      8.2541                 3.6924                26.0673

                     82                     83                     84
                      A                      A                      A
 Frequencies --   3183.7796              3202.8999              3205.1164
 Red. masses --      1.0923                 1.0923                 1.0942
 Frc consts  --      6.5235                 6.6019                 6.6229
 IR Inten    --     13.0732                 0.3141                11.3324

 - Thermochemistry -
 -------------------
 Temperature   298.150 Kelvin.  Pressure   1.00000 Atm.
 Atom     1 has atomic number  6 and mass  12.00000

 Molecular mass:   236.08373 amu.
 Principal axes and moments of inertia in atomic units:
                           1         2         3
     Eigenvalues --  2577.248534737.059297292.49502
           X            0.93999   0.34009  -0.02747
           Y           -0.33956   0.94032   0.02226
           Z            0.03341  -0.01160   0.99937
 This molecule is an asymmetric top.
 Rotational symmetry number  1.
 Warning -- assumption of classical behavior for rotation
           may cause significant error
 Rotational temperatures (Kelvin)      0.03361     0.01828     0.01188
 Rotational constants (GHZ):           0.70026     0.38098     0.24748
 Zero-point vibrational energy     615875.7 (Joules/Mol)
                                  147.19782 (Kcal/Mol)
 Warning -- explicit consideration of  23 degrees of freedom as
           vibrations may cause significant error
 Vibrational temperatures:     12.06    56.03   152.94   164.63   226.40
          (Kelvin)            301.45   339.08   353.19   362.96   451.50
                              459.37   470.05   530.63   567.46   591.35
                              613.02   620.57   668.97   681.43   717.36
                              724.09   796.52   873.00   956.14   963.30
                             1019.03  1059.10  1070.73  1089.28  1163.74
                             1174.09  1206.93  1242.20  1258.66  1316.19
                             1351.00  1413.89  1426.93  1443.83  1464.49
                             1511.39  1513.41  1518.03  1523.63  1569.69
                             1604.25  1699.96  1710.29  1735.41  1755.95
                             1808.34  1834.15  1838.13  1897.46  1927.20
                             1960.05  2017.67  2043.09  2046.92  2122.74
                             2123.01  2123.63  2129.84  2139.74  2147.72
                             2173.18  2285.43  2330.28  2339.31  2344.28
                             2455.55  2466.74  4373.81  4373.97  4465.44
                             4465.58  4470.28  4470.51  4545.87  4559.36
                             4570.30  4580.75  4608.26  4611.45

 Zero-point correction=                           0.234575 (Hartree/Particle)
 Thermal correction to Energy=                    0.248884
 Thermal correction to Enthalpy=                  0.249829
 Thermal correction to Gibbs Free Energy=         0.191911
 Sum of electronic and zero-point Energies=           -767.364887
 Sum of electronic and thermal Energies=              -767.350577
 Sum of electronic and thermal Enthalpies=            -767.349633
 Sum of electronic and thermal Free Energies=         -767.407551

                     E (Thermal)             CV                S
                      KCal/Mol        Cal/Mol-Kelvin    Cal/Mol-Kelvin
 Total                  156.177             57.199            121.898
 Electronic               0.000              0.000              0.000
 Translational            0.889              2.981             42.279
 Rotational               0.889              2.981             32.854
 Vibrational            154.400             51.237             46.766
 Vibration     1          0.593              1.987              8.362
 Vibration     2          0.594              1.981              5.312
 Vibration     3          0.605              1.944              3.335
 Vibration     4          0.607              1.937              3.192
 Vibration     5          0.621              1.894              2.581
 Vibration     6          0.642              1.826              2.048
 Vibration     7          0.655              1.786              1.835
 Vibration     8          0.660              1.770              1.763
 Vibration     9          0.664              1.759              1.715
 Vibration    10          0.702              1.647              1.342
 Vibration    11          0.705              1.637              1.314
 Vibration    12          0.710              1.622              1.276
 Vibration    13          0.741              1.536              1.085
 Vibration    14          0.761              1.482              0.983
 Vibration    15          0.775              1.446              0.923
 Vibration    16          0.788              1.414              0.872
 Vibration    17          0.792              1.402              0.854
 Vibration    18          0.822              1.328              0.752
 Vibration    19          0.830              1.309              0.727
 Vibration    20          0.854              1.253              0.662
 Vibration    21          0.859              1.243              0.650
 Vibration    22          0.909              1.132              0.537
 Vibration    23          0.965              1.017              0.438

                           ! Non-Optimized Parameters !
 Normal termination of Gaussian 16 at Wed Dec 27 22:10:15 2023.
