 Q-Chem 5.4, Q-Chem, Inc., Pleasanton, CA (2021)
 Q-Chem 5.4.0 for Intel X86 EM64T Linux

User input:
--------------------------------------------------------------
$molecule
0 1
C                 -3.4280220000     -2.7444960000     -0.3560610000
O                 -2.1340490000     -2.1738160000     -0.1999850000
C                 -1.9880400000     -0.8320830000     -0.2015380000
C                 -3.0886340000      0.0367420000     -0.3547390000
C                 -2.9305040000      1.4045910000     -0.3552190000
C                 -1.6600410000      1.9765900000     -0.2020990000
O                 -1.5816290000      3.3141960000     -0.2124530000
C                 -0.5381430000      1.1311110000     -0.0463840000
C                  0.7824320000      1.7574890000      0.1124420000
O                  0.9119470000      2.9927050000      0.1098290000
C                  1.9687640000      0.8942440000      0.2773340000
C                  3.2328500000      1.4778620000      0.4302900000
C                  4.3531380000      0.6733860000      0.5859250000
C                  4.2187040000     -0.7188940000      0.5898480000
C                  2.9667290000     -1.3019740000      0.4383900000
C                  1.8316310000     -0.5005350000      0.2809400000
C                  0.4976620000     -1.1666260000      0.1203240000
O                  0.4372510000     -2.3848980000      0.1306050000
C                 -0.6961800000     -0.2888220000     -0.0451290000
H                 -3.2711900000     -3.8207550000     -0.3196880000
H                 -4.0994400000     -2.4490480000      0.4570350000
H                 -3.8731580000     -2.4761050000     -1.3199190000
H                 -4.0826700000     -0.3704710000     -0.4751920000
H                 -3.7805630000      2.0654750000     -0.4734560000
H                 -0.6260020000      3.5454080000     -0.0944890000
H                  3.3101270000      2.5576950000      0.4237850000
H                  5.3316410000      1.1245970000      0.7043760000
H                  5.0945610000     -1.3462930000      0.7115470000
H                  2.8408260000     -2.3772760000      0.4385880000
$end
$rem
MAX_SCF_CYCLES=200
BASIS  =  6-311++G(d,p)
GUI  =  2
JOB_TYPE  =  SP
METHOD  =  B3LYP
SOLVENT_METHOD = PCM
$end
$pcm
theory = CPCM
$end
$solvent
dielectric 37.219
opticaldielectric 1.43
$end

--------------------------------------------------------------

             Standard Nuclear Orientation (Angstroms)
    I     Atom           X                Y                Z
 ----------------------------------------------------------------
    1      C      -3.4280220000    -2.7444960000    -0.3560610000
    2      O      -2.1340490000    -2.1738160000    -0.1999850000
    3      C      -1.9880400000    -0.8320830000    -0.2015380000
    4      C      -3.0886340000     0.0367420000    -0.3547390000
    5      C      -2.9305040000     1.4045910000    -0.3552190000
    6      C      -1.6600410000     1.9765900000    -0.2020990000
    7      O      -1.5816290000     3.3141960000    -0.2124530000
    8      C      -0.5381430000     1.1311110000    -0.0463840000
    9      C       0.7824320000     1.7574890000     0.1124420000
   10      O       0.9119470000     2.9927050000     0.1098290000
   11      C       1.9687640000     0.8942440000     0.2773340000
   12      C       3.2328500000     1.4778620000     0.4302900000
   13      C       4.3531380000     0.6733860000     0.5859250000
   14      C       4.2187040000    -0.7188940000     0.5898480000
   15      C       2.9667290000    -1.3019740000     0.4383900000
   16      C       1.8316310000    -0.5005350000     0.2809400000
   17      C       0.4976620000    -1.1666260000     0.1203240000
   18      O       0.4372510000    -2.3848980000     0.1306050000
   19      C      -0.6961800000    -0.2888220000    -0.0451290000
   20      H      -3.2711900000    -3.8207550000    -0.3196880000
   21      H      -4.0994400000    -2.4490480000     0.4570350000
   22      H      -3.8731580000    -2.4761050000    -1.3199190000
   23      H      -4.0826700000    -0.3704710000    -0.4751920000
   24      H      -3.7805630000     2.0654750000    -0.4734560000
   25      H      -0.6260020000     3.5454080000    -0.0944890000
   26      H       3.3101270000     2.5576950000     0.4237850000
   27      H       5.3316410000     1.1245970000     0.7043760000
   28      H       5.0945610000    -1.3462930000     0.7115470000
   29      H       2.8408260000    -2.3772760000     0.4385880000
 ----------------------------------------------------------------

    9    -878.7752565351      2.12e-06  Convergence criterion met
 Total energy in the final basis set =     -878.7752565351

                    Orbital Energies (a.u.)
 --------------------------------------------------------------

 Alpha MOs
 -- Occupied --
-19.1699 -19.1605 -19.1384 -19.1221 -10.2878 -10.2799 -10.2641 -10.2632
-10.2235 -10.2113 -10.2108 -10.2065 -10.2057 -10.2015 -10.1983 -10.1961
-10.1959 -10.1948 -10.1937  -1.0915  -1.0900  -1.0600  -1.0582  -0.8922
 -0.8778  -0.8146  -0.7820  -0.7756  -0.7709  -0.7141  -0.6955  -0.6645
 -0.6534  -0.6142  -0.5986  -0.5660  -0.5612  -0.5457  -0.5247  -0.5025
 -0.4948  -0.4861  -0.4833  -0.4641  -0.4595  -0.4593  -0.4500  -0.4450
 -0.4402  -0.4276  -0.4272  -0.4152  -0.4095  -0.3891  -0.3819  -0.3797
 -0.3715  -0.3665  -0.3519  -0.3226  -0.2920  -0.2918  -0.2773  -0.2767
 -0.2668  -0.2312

          Ground-State Mulliken Net Atomic Charges

     Atom                 Charge (a.u.)
  ----------------------------------------
      1 C                    -0.321062
      2 O                    -0.144614
      3 C                    -0.373534
      4 C                    -0.206921
      5 C                    -0.089963
      6 C                    -0.174776
      7 O                    -0.345063
      8 C                     0.859272
      9 C                    -0.262470
     10 O                    -0.327445
     11 C                     0.065127
     12 C                     0.144040
     13 C                    -0.533914
     14 C                    -0.473359
     15 C                     0.165818
     16 C                    -0.028688
     17 C                    -0.259022
     18 O                    -0.309976
     19 C                     0.349229
     20 H                     0.209753
     21 H                     0.175830
     22 H                     0.175750
     23 H                     0.256590
     24 H                     0.245382
     25 H                     0.366322
     26 H                     0.202176
     27 H                     0.220155
     28 H                     0.225070
     29 H                     0.190296
  ----------------------------------------
  Sum of atomic charges =     0.000000

                    Cartesian Multipole Moments
 -----------------------------------------------------------------
    Charge (ESU x 10^10)
                 0.0000
    Dipole Moment (Debye)
         X      -1.6089      Y      -1.2735      Z      -0.1815
       Tot       2.0599
    Quadrupole Moments (Debye-Ang)
        XX     -68.1489     XY       9.1355     YY    -123.7663
        XZ       5.2961     YZ       1.2982     ZZ    -110.6083

 Total job time:  182.96s(wall), 399.51s(cpu)
        *  Thank you very much for using Q-Chem.  Have a nice day.  *
