 Gaussian 16, Revision A.03,
 Gaussian 16:  ES64L-G16RevA.03 25-Dec-2016

 ----------------------------------------------------------------------
 #P UB3LYP/6-311++G(d,p) nosym opt freq SCRF=(PCM,Solvent=n,n-DiMethylF
 ormamide)
 ----------------------------------------------------------------------

 -------
 Reduced
 -------
 Symbolic Z-matrix:
 Charge = -2 Multiplicity = 1

 SCF Done:  E(UB3LYP) =  -590.889525325     A.U. after   18 cycles
 SCF Done:  E(UB3LYP) =  -590.890832684     A.U. after   14 cycles
 SCF Done:  E(UB3LYP) =  -590.891105886     A.U. after   13 cycles
 SCF Done:  E(UB3LYP) =  -590.891134290     A.U. after   13 cycles
 SCF Done:  E(UB3LYP) =  -590.891169592     A.U. after   12 cycles
 SCF Done:  E(UB3LYP) =  -590.891176716     A.U. after   12 cycles
 SCF Done:  E(UB3LYP) =  -590.891180299     A.U. after   11 cycles
 Optimization completed.
    -- Stationary point found.
 Normal termination of Gaussian 16 at Sun Feb 11 02:35:43 2024.

 ----------------------------------------------------------------------
 #P Geom=AllCheck Guess=TCheck SCRF=Check GenChk UB3LYP/6-311++G(d,p) F
 req
 ----------------------------------------------------------------------

 Structure from the checkpoint file:  "269-an.chk"
 -------
 Reduced
 -------
 Charge = -2 Multiplicity = 1

                          Input orientation:
 ---------------------------------------------------------------------
 Center     Atomic      Atomic             Coordinates (Angstroms)
 Number     Number       Type             X           Y           Z
 ---------------------------------------------------------------------
      1          7           0       -3.357348   -0.884054    0.070236
      2          6           0       -2.053103   -0.318951    0.109236
      3          6           0       -1.885324    1.053126    0.401224
      4          6           0       -0.635876    1.703009    0.419320
      5          8           0       -0.491672    2.974467    0.694199
      6          6           0        0.500041    0.850602    0.099808
      7          6           0        1.811847    1.381217    0.080133
      8          6           0        2.920149    0.607451   -0.211183
      9          6           0        2.748420   -0.769918   -0.500734
     10          6           0        1.485114   -1.323982   -0.493021
     11          6           0        0.320649   -0.557124   -0.201279
     12          6           0       -0.976375   -1.178046   -0.199557
     13          8           0       -1.172926   -2.461551   -0.452434
     14          1           0       -3.964667   -0.546370    0.808191
     15          1           0       -3.273698   -1.896644    0.105292
     16          1           0       -2.771667    1.648061    0.620956
     17          1           0        1.923782    2.436275    0.308106
     18          1           0        3.912831    1.047303   -0.217413
     19          1           0        3.612604   -1.387462   -0.729066
     20          1           0        1.347220   -2.377411   -0.712013
 ---------------------------------------------------------------------

 SCF Done:  E(UB3LYP) =  -590.891180299     A.U. after    1 cycles

 Alpha  occ. eigenvalues --  -19.01382 -19.01135 -14.28318 -10.17020 -10.15777
 Alpha  occ. eigenvalues --  -10.15641 -10.14719 -10.14409 -10.14335 -10.14205
 Alpha  occ. eigenvalues --  -10.13607 -10.13326 -10.11555  -0.92345  -0.91804
 Alpha  occ. eigenvalues --   -0.86489  -0.82066  -0.75337  -0.71906  -0.69139
 Alpha  occ. eigenvalues --   -0.63731  -0.58387  -0.57287  -0.52569  -0.49478
 Alpha  occ. eigenvalues --   -0.47517  -0.44671  -0.43147  -0.40809  -0.39913
 Alpha  occ. eigenvalues --   -0.38753  -0.37314  -0.36951  -0.35283  -0.33988
 Alpha  occ. eigenvalues --   -0.32848  -0.31693  -0.31189  -0.29764  -0.27357
 Alpha  occ. eigenvalues --   -0.22592  -0.21750  -0.19625  -0.19238  -0.18685
 Alpha  occ. eigenvalues --   -0.10901
 Alpha virt. eigenvalues --   -0.00341   0.00103   0.00940   0.01606   0.01719
 Alpha virt. eigenvalues --    0.03047   0.03149   0.05102   0.05561   0.05767
 Alpha virt. eigenvalues --    0.06050   0.07308   0.07649   0.08606   0.09302

  Beta  occ. eigenvalues --  -19.01382 -19.01135 -14.28318 -10.17020 -10.15777
  Beta  occ. eigenvalues --  -10.15641 -10.14719 -10.14409 -10.14335 -10.14205
  Beta  occ. eigenvalues --  -10.13607 -10.13326 -10.11555  -0.92345  -0.91804
  Beta  occ. eigenvalues --   -0.86489  -0.82066  -0.75337  -0.71906  -0.69139
  Beta  occ. eigenvalues --   -0.63731  -0.58387  -0.57287  -0.52569  -0.49478
  Beta  occ. eigenvalues --   -0.47517  -0.44671  -0.43147  -0.40809  -0.39913
  Beta  occ. eigenvalues --   -0.38753  -0.37314  -0.36951  -0.35283  -0.33988
  Beta  occ. eigenvalues --   -0.32848  -0.31693  -0.31189  -0.29764  -0.27357
  Beta  occ. eigenvalues --   -0.22592  -0.21750  -0.19625  -0.19238  -0.18685
  Beta  occ. eigenvalues --   -0.10901
  Beta virt. eigenvalues --   -0.00341   0.00103   0.00940   0.01606   0.01719
  Beta virt. eigenvalues --    0.03047   0.03149   0.05102   0.05561   0.05767
  Beta virt. eigenvalues --    0.06050   0.07308   0.07649   0.08606   0.09302

 Mulliken charges and spin densities:
               1          2
     1  N   -0.449222   0.000000
     2  C    0.059416  -0.000000
     3  C    0.465320  -0.000000
     4  C   -0.694512   0.000000
     5  O   -0.724116  -0.000000
     6  C    0.283883   0.000000
     7  C    0.044206  -0.000000
     8  C   -0.434015  -0.000000
     9  C   -0.398856  -0.000000
    10  C   -0.034468  -0.000000
    11  C    0.313095   0.000000
    12  C   -0.900596   0.000000
    13  O   -0.759551  -0.000000
    14  H    0.243056  -0.000000
    15  H    0.263638  -0.000000
    16  H    0.129454   0.000000
    17  H    0.140828   0.000000
    18  H    0.153971  -0.000000
    19  H    0.156976   0.000000
    20  H    0.141492   0.000000
 Sum of Mulliken charges =  -2.00000  -0.00000

 Dipole moment (field-independent basis, Debye):
    X=              5.1670    Y=             -2.6819    Z=              0.6746  Tot=              5.8605
 Quadrupole moment (field-independent basis, Debye-Ang):
   XX=            -97.2308   YY=           -140.5731   ZZ=            -89.9501
   XY=             -3.3620   XZ=             -6.1713   YZ=            -12.7282

  Exact polarizability: 354.672   7.866 269.276 -21.678  30.715 138.138
 Approx polarizability: 395.710  10.035 305.338 -24.833  36.855 148.658

                      1                      2                      3
                      A                      A                      A
 Frequencies --    100.1343               142.2961               179.3234
 Red. masses --      5.6659                 4.2184                 7.7158
 Frc consts  --      0.0335                 0.0503                 0.1462
 IR Inten    --     25.7206                 2.0795                 5.2188

                      4                      5                      6
                      A                      A                      A
 Frequencies --    255.0474               259.2286               290.0747
 Red. masses --      4.3012                 4.2345                 2.1853
 Frc consts  --      0.1648                 0.1677                 0.1083
 IR Inten    --      8.2627                31.3188                36.4349

                      7                      8                      9
                      A                      A                      A
 Frequencies --    347.4087               354.9842               384.9719
 Red. masses --      2.2408                 3.5035                 6.3920
 Frc consts  --      0.1593                 0.2601                 0.5581
 IR Inten    --     45.6286                67.9683                 2.7793

                     10                     11                     12
                      A                      A                      A
 Frequencies --    427.8445               444.7951               477.3609
 Red. masses --      7.3694                 3.3409                 8.6953
 Frc consts  --      0.7948                 0.3894                 1.1674
 IR Inten    --      2.6313                 7.6635                 3.0274

                     13                     14                     15
                      A                      A                      A
 Frequencies --    516.6385               532.2778               640.6576
 Red. masses --      3.2891                 8.3458                 5.6443
 Frc consts  --      0.5173                 1.3931                 1.3649
 IR Inten    --     16.0384                 3.5256                31.0290

                     16                     17                     18
                      A                      A                      A
 Frequencies --    647.0318               660.3680               693.0789
 Red. masses --      2.9039                 5.1137                 2.7667
 Frc consts  --      0.7163                 1.3139                 0.7830
 IR Inten    --      2.2514                53.5008               136.5090

                     19                     20                     21
                      A                      A                      A
 Frequencies --    719.5830               764.2477               772.8006
 Red. masses --      6.0640                 1.5050                 2.9216
 Frc consts  --      1.8500                 0.5179                 1.0280
 IR Inten    --     84.2195               104.4896                31.6993

                     22                     23                     24
                      A                      A                      A
 Frequencies --    805.5773               824.9616               825.6290
 Red. masses --      1.7035                 3.4620                 2.2084
 Frc consts  --      0.6513                 1.3882                 0.8870
 IR Inten    --    292.3187               180.5545               206.6021

                     25                     26                     27
                      A                      A                      A
 Frequencies --    851.0840               966.5749               975.3098
 Red. masses --      1.5968                 1.3620                 1.2383
 Frc consts  --      0.6815                 0.7497                 0.6940
 IR Inten    --      0.3073                 4.6289                 0.1562

                     28                     29                     30
                      A                      A                      A
 Frequencies --    977.1231              1023.3412              1077.4761
 Red. masses --      4.9222                 2.0238                 3.3786
 Frc consts  --      2.7689                 1.2487                 2.3110
 IR Inten    --    136.1676                41.2454               123.2062

                     31                     32                     33
                      A                      A                      A
 Frequencies --   1114.9682              1130.2490              1148.5239
 Red. masses --      1.6301                 1.5973                 1.6613
 Frc consts  --      1.1940                 1.2022                 1.2912
 IR Inten    --     93.3639                41.7970                65.6307

                     34                     35                     36
                      A                      A                      A
 Frequencies --   1180.4070              1207.8782              1241.1653
 Red. masses --      1.9576                 1.9184                 3.0313
 Frc consts  --      1.6071                 1.6490                 2.7513
 IR Inten    --     21.6180               807.7191               183.5224

                     37                     38                     39
                      A                      A                      A
 Frequencies --   1291.4033              1322.3228              1368.9062
 Red. masses --      2.2977                 4.6302                 5.7151
 Frc consts  --      2.2577                 4.7701                 6.3099
 IR Inten    --    159.7494               439.1795              1408.7390

                     40                     41                     42
                      A                      A                      A
 Frequencies --   1394.7448              1439.5600              1453.7548
 Red. masses --      6.0070                 2.8750                 2.6217
 Frc consts  --      6.8849                 3.5104                 3.2645
 IR Inten    --     25.2424                48.6775                70.5193

                     43                     44                     45
                      A                      A                      A
 Frequencies --   1512.8092              1539.6580              1583.0786
 Red. masses --      3.6239                 4.7876                 1.7631
 Frc consts  --      4.8865                 6.6868                 2.6033
 IR Inten    --     49.2590               524.8285                79.2271

                     46                     47                     48
                      A                      A                      A
 Frequencies --   1590.7898              1606.3518              3102.9792
 Red. masses --      2.3301                 5.3858                 1.0873
 Frc consts  --      3.4742                 8.1881                 6.1684
 IR Inten    --     66.1873                42.8537               130.3650

                     49                     50                     51
                      A                      A                      A
 Frequencies --   3133.8269              3148.2912              3162.3283
 Red. masses --      1.0843                 1.0877                 1.0923
 Frc consts  --      6.2739                 6.3522                 6.4357
 IR Inten    --     16.4530                21.0391                64.4150

                     52                     53                     54
                      A                      A                      A
 Frequencies --   3169.0970              3477.3708              3580.1414
 Red. masses --      1.0941                 1.0488                 1.0945
 Frc consts  --      6.4741                 7.4721                 8.2654
 IR Inten    --     69.3022                22.3029                17.9263

 - Thermochemistry -
 -------------------
 Temperature   298.150 Kelvin.  Pressure   1.00000 Atm.
 Atom     1 has atomic number  7 and mass  14.00307

 Molecular mass:   173.04768 amu.
 Principal axes and moments of inertia in atomic units:
                           1         2         3
     Eigenvalues --  1470.023752284.156263751.55960
           X            0.97165  -0.21208   0.10450
           Y            0.23046   0.94824  -0.21847
           Z           -0.05276   0.23636   0.97023
 This molecule is an asymmetric top.
 Rotational symmetry number  1.
 Warning -- assumption of classical behavior for rotation
           may cause significant error
 Rotational temperatures (Kelvin)      0.05892     0.03792     0.02309
 Rotational constants (GHZ):           1.22770     0.79011     0.48106
 Zero-point vibrational energy     381835.1 (Joules/Mol)
                                   91.26077 (Kcal/Mol)
 Warning -- explicit consideration of  14 degrees of freedom as
           vibrations may cause significant error
 Vibrational temperatures:    144.07   204.73   258.01   366.96   372.97
          (Kelvin)            417.35   499.84   510.74   553.89   615.57
                              639.96   686.82   743.33   765.83   921.76
                              930.93   950.12   997.19  1035.32  1099.58
                             1111.89  1159.05  1186.94  1187.90  1224.52
                             1390.69  1403.25  1405.86  1472.36  1550.25
                             1604.19  1626.18  1652.47  1698.34  1737.87
                             1785.76  1858.04  1902.53  1969.55  2006.73
                             2071.21  2091.63  2176.59  2215.22  2277.70
                             2288.79  2311.18  4464.49  4508.88  4529.69
                             4549.89  4559.62  5003.16  5151.02

 Zero-point correction=                           0.145433 (Hartree/Particle)
 Thermal correction to Energy=                    0.155340
 Thermal correction to Enthalpy=                  0.156284
 Thermal correction to Gibbs Free Energy=         0.110460
 Sum of electronic and zero-point Energies=           -590.745747
 Sum of electronic and thermal Energies=              -590.735840
 Sum of electronic and thermal Enthalpies=            -590.734896
 Sum of electronic and thermal Free Energies=         -590.780720

                     E (Thermal)             CV                S
                      KCal/Mol        Cal/Mol-Kelvin    Cal/Mol-Kelvin
 Total                   97.477             40.498             96.444
 Electronic               0.000              0.000              0.000
 Translational            0.889              2.981             41.353
 Rotational               0.889              2.981             30.911
 Vibrational             95.700             34.536             24.181
 Vibration     1          0.604              1.949              3.452
 Vibration     2          0.616              1.911              2.773
 Vibration     3          0.629              1.868              2.335
 Vibration     4          0.665              1.754              1.695
 Vibration     5          0.668              1.747              1.667
 Vibration     6          0.686              1.692              1.474
 Vibration     7          0.725              1.581              1.178
 Vibration     8          0.731              1.565              1.144
 Vibration     9          0.754              1.502              1.020
 Vibration    10          0.789              1.410              0.866
 Vibration    11          0.804              1.372              0.812
 Vibration    12          0.834              1.300              0.717
 Vibration    13          0.872              1.213              0.618
 Vibration    14          0.887              1.179              0.582

                           ! Non-Optimized Parameters !
 Normal termination of Gaussian 16 at Sun Feb 11 02:54:52 2024.
