 Gaussian 16, Revision A.03,
 Gaussian 16:  ES64L-G16RevA.03 25-Dec-2016

 --------------------------------------
 #P UB3LYP/6-311++G(d,p) nosym opt freq
 --------------------------------------

 --------
 Oxidized
 --------
 Symbolic Z-matrix:
 Charge =  0 Multiplicity = 1

 SCF Done:  E(UB3LYP) =  -685.749685153     A.U. after   16 cycles
 SCF Done:  E(UB3LYP) =  -685.763922922     A.U. after   14 cycles
 SCF Done:  E(UB3LYP) =  -685.765448005     A.U. after   13 cycles
 SCF Done:  E(UB3LYP) =  -685.765506574     A.U. after   12 cycles
 SCF Done:  E(UB3LYP) =  -685.765511285     A.U. after   11 cycles
 SCF Done:  E(UB3LYP) =  -685.765511711     A.U. after   10 cycles
 Optimization completed.
    -- Stationary point found.
 Normal termination of Gaussian 16 at Thu Dec 28 19:53:55 2023.

 ----------------------------------------------------------------------
 #P Geom=AllCheck Guess=TCheck SCRF=Check GenChk UB3LYP/6-311++G(d,p) F
 req
 ----------------------------------------------------------------------

 Structure from the checkpoint file:  "309.chk"
 --------
 Oxidized
 --------
 Charge =  0 Multiplicity = 1

                          Input orientation:
 ---------------------------------------------------------------------
 Center     Atomic      Atomic             Coordinates (Angstroms)
 Number     Number       Type             X           Y           Z
 ---------------------------------------------------------------------
      1          8           0        1.679442    2.363009    0.379450
      2          6           0        1.400536    1.193411    0.199023
      3          6           0       -0.017353    0.703674    0.208369
      4          6           0       -1.047671    1.615025    0.430323
      5          6           0       -2.372801    1.181432    0.443291
      6          6           0       -2.674551   -0.164016    0.234650
      7          6           0       -1.650642   -1.082418    0.011856
      8          6           0       -0.324006   -0.652807   -0.001865
      9          6           0        0.768867   -1.625083   -0.238217
     10          8           0        0.591842   -2.825306   -0.430249
     11          6           0        2.146419   -1.120540   -0.242113
     12          8           0        3.126737   -2.028185   -0.459998
     13          6           0        2.460472    0.182930   -0.041305
     14          8           0        3.724363    0.640660   -0.045889
     15          1           0       -0.794721    2.655889    0.590454
     16          1           0       -3.170272    1.894878    0.616486
     17          1           0       -3.705810   -0.497318    0.245478
     18          1           0       -1.861566   -2.132019   -0.152550
     19          1           0        2.683186   -2.888057   -0.577285
     20          1           0        4.324447   -0.100214   -0.210776
 ---------------------------------------------------------------------

 SCF Done:  E(UB3LYP) =  -685.765511711     A.U. after    1 cycles

 Alpha  occ. eigenvalues --  -19.18818 -19.18683 -19.14656 -19.13603 -10.29445
 Alpha  occ. eigenvalues --  -10.28902 -10.27155 -10.26645 -10.21914 -10.21805
 Alpha  occ. eigenvalues --  -10.20934 -10.20906 -10.20851 -10.20663  -1.11985
 Alpha  occ. eigenvalues --   -1.09765  -1.06855  -1.06383  -0.90088  -0.84037
 Alpha  occ. eigenvalues --   -0.78898  -0.77948  -0.71309  -0.67003  -0.65855
 Alpha  occ. eigenvalues --   -0.61789  -0.59626  -0.56934  -0.55549  -0.51444
 Alpha  occ. eigenvalues --   -0.50411  -0.48611  -0.47568  -0.46586  -0.46113
 Alpha  occ. eigenvalues --   -0.45700  -0.43589  -0.42671  -0.42487  -0.40917
 Alpha  occ. eigenvalues --   -0.39334  -0.38790  -0.38159  -0.38023  -0.30417
 Alpha  occ. eigenvalues --   -0.29612  -0.28785  -0.28555  -0.25231
 Alpha virt. eigenvalues --   -0.12859  -0.06191  -0.03058  -0.02030  -0.01048
 Alpha virt. eigenvalues --    0.00891   0.01612   0.02015   0.02064   0.03893
 Alpha virt. eigenvalues --    0.04177   0.04685   0.06253   0.06500   0.06753

  Beta  occ. eigenvalues --  -19.18818 -19.18683 -19.14656 -19.13603 -10.29445
  Beta  occ. eigenvalues --  -10.28902 -10.27155 -10.26645 -10.21914 -10.21805
  Beta  occ. eigenvalues --  -10.20934 -10.20906 -10.20851 -10.20663  -1.11985
  Beta  occ. eigenvalues --   -1.09765  -1.06855  -1.06383  -0.90088  -0.84037
  Beta  occ. eigenvalues --   -0.78898  -0.77948  -0.71309  -0.67003  -0.65855
  Beta  occ. eigenvalues --   -0.61789  -0.59626  -0.56934  -0.55549  -0.51444
  Beta  occ. eigenvalues --   -0.50411  -0.48611  -0.47568  -0.46586  -0.46113
  Beta  occ. eigenvalues --   -0.45700  -0.43589  -0.42671  -0.42487  -0.40917
  Beta  occ. eigenvalues --   -0.39334  -0.38790  -0.38159  -0.38023  -0.30417
  Beta  occ. eigenvalues --   -0.29612  -0.28785  -0.28555  -0.25231
  Beta virt. eigenvalues --   -0.12859  -0.06191  -0.03058  -0.02030  -0.01048
  Beta virt. eigenvalues --    0.00891   0.01612   0.02015   0.02064   0.03893
  Beta virt. eigenvalues --    0.04177   0.04685   0.06253   0.06500   0.06753

 Mulliken charges and spin densities:
               1          2
     1  O   -0.210797   0.000000
     2  C   -0.574239  -0.000000
     3  C    0.420749   0.000000
     4  C    0.261932  -0.000000
     5  C   -0.339590  -0.000000
     6  C   -0.280372  -0.000000
     7  C    0.222738   0.000000
     8  C    0.364568   0.000000
     9  C   -0.558949  -0.000000
    10  O   -0.292245   0.000000
    11  C    0.011208   0.000000
    12  O   -0.282848   0.000000
    13  C    0.147270   0.000000
    14  O   -0.210737  -0.000000
    15  H    0.182288  -0.000000
    16  H    0.181758   0.000000
    17  H    0.183880   0.000000
    18  H    0.182240   0.000000
    19  H    0.297937  -0.000000
    20  H    0.293210   0.000000
 Sum of Mulliken charges =  -0.00000   0.00000

 Dipole moment (field-independent basis, Debye):
    X=             -2.2655    Y=             -1.3825    Z=             -0.0873  Tot=              2.6555
 Quadrupole moment (field-independent basis, Debye-Ang):
   XX=            -70.1069   YY=            -88.1629   ZZ=            -80.7962
   XY=            -10.3897   XZ=             -2.6654   YZ=             -0.6849

  Exact polarizability: 172.162   0.117 162.374  -7.048  16.728  67.069
 Approx polarizability: 261.819  25.054 335.104  -6.308  38.288 106.822

                      1                      2                      3
                      A                      A                      A
 Frequencies --     63.9231               109.3102               123.1699
 Red. masses --      9.5962                 6.4398                 6.4837
 Frc consts  --      0.0231                 0.0453                 0.0580
 IR Inten    --      4.4321                 0.0097                 0.0217

                      4                      5                      6
                      A                      A                      A
 Frequencies --    166.4658               254.2241               287.8707
 Red. masses --      6.6291                 5.6137                 5.3595
 Frc consts  --      0.1082                 0.2138                 0.2617
 IR Inten    --      0.0830                 1.0577                 4.3216

                      7                      8                      9
                      A                      A                      A
 Frequencies --    301.3281               313.8594               377.4353
 Red. masses --      5.5223                 7.3043                10.4016
 Frc consts  --      0.2954                 0.4239                 0.8730
 IR Inten    --      0.3077                12.4601                17.0820

                     10                     11                     12
                      A                      A                      A
 Frequencies --    408.7710               420.7071               422.8392
 Red. masses --     10.0157                 2.1818                 9.2589
 Frc consts  --      0.9860                 0.2275                 0.9753
 IR Inten    --      8.7431                29.4938                 7.8917

                     13                     14                     15
                      A                      A                      A
 Frequencies --    431.3879               462.7569               509.2193
 Red. masses --      3.4604                 1.6686                10.8001
 Frc consts  --      0.3794                 0.2105                 1.6500
 IR Inten    --     24.9170               105.1065                 0.2424

                     16                     17                     18
                      A                      A                      A
 Frequencies --    564.2510               570.3165               636.1516
 Red. masses --      1.1552                 5.6282                 8.5300
 Frc consts  --      0.2167                 1.0786                 2.0339
 IR Inten    --     46.8061                11.7719                 0.9120

                     19                     20                     21
                      A                      A                      A
 Frequencies --    674.9989               682.9660               713.9662
 Red. masses --      6.6545                 6.4236                 4.3782
 Frc consts  --      1.7864                 1.7653                 1.3149
 IR Inten    --      4.9010                 1.3978                21.6944

                     22                     23                     24
                      A                      A                      A
 Frequencies --    727.1031               731.8635               802.7282
 Red. masses --      6.7139                 3.1357                 1.7306
 Frc consts  --      2.0913                 0.9896                 0.6570
 IR Inten    --      6.8518                40.6388                21.7092

                     25                     26                     27
                      A                      A                      A
 Frequencies --    888.4367               911.6189               984.3751
 Red. masses --      5.4517                 1.3016                 7.7218
 Frc consts  --      2.5353                 0.6373                 4.4085
 IR Inten    --     45.4690                 0.0012               144.3809

                     28                     29                     30
                      A                      A                      A
 Frequencies --    996.4215              1015.2743              1057.8390
 Red. masses --      1.3785                 1.3215                 2.0980
 Frc consts  --      0.8064                 0.8025                 1.3833
 IR Inten    --      1.8561                 0.0626                18.7005

                     31                     32                     33
                      A                      A                      A
 Frequencies --   1060.7972              1111.6636              1180.6107
 Red. masses --      4.0626                 2.0963                 1.2985
 Frc consts  --      2.6935                 1.5263                 1.0664
 IR Inten    --     46.0361                 0.2933                41.0188

                     34                     35                     36
                      A                      A                      A
 Frequencies --   1192.6618              1219.9884              1269.9866
 Red. masses --      1.7243                 2.3742                 2.2163
 Frc consts  --      1.4451                 2.0820                 2.1061
 IR Inten    --     64.2490                29.5394               363.8892

                     37                     38                     39
                      A                      A                      A
 Frequencies --   1300.2791              1313.5141              1356.0286
 Red. masses --      1.8389                 2.6193                 6.0113
 Frc consts  --      1.8318                 2.6626                 6.5126
 IR Inten    --     43.6190               339.0050                23.5591

                     40                     41                     42
                      A                      A                      A
 Frequencies --   1400.3469              1421.6770              1485.1199
 Red. masses --      4.8489                 2.2574                 2.4121
 Frc consts  --      5.6023                 2.6882                 3.1345
 IR Inten    --     54.3398               180.7020                 5.2460

                     43                     44                     45
                      A                      A                      A
 Frequencies --   1505.1413              1612.4352              1627.7256
 Red. masses --      2.6874                 6.4700                 5.9757
 Frc consts  --      3.5871                 9.9110                 9.3282
 IR Inten    --      5.5184                11.2239                86.5584

                     46                     47                     48
                      A                      A                      A
 Frequencies --   1687.0280              1709.5903              1732.9634
 Red. masses --     11.3778                 8.5470                12.6030
 Frc consts  --     19.0790                14.7180                22.3000
 IR Inten    --    267.7351               245.6838               229.8922

                     49                     50                     51
                      A                      A                      A
 Frequencies --   3172.9034              3186.6230              3199.2624
 Red. masses --      1.0870                 1.0914                 1.0928
 Frc consts  --      6.4475                 6.5296                 6.5902
 IR Inten    --      3.0120                 6.8665                 0.4341

                     52                     53                     54
                      A                      A                      A
 Frequencies --   3202.3217              3650.6038              3774.1468
 Red. masses --      1.0955                 1.0645                 1.0656
 Frc consts  --      6.6193                 8.3584                 8.9431
 IR Inten    --      8.2338               122.4555               123.4376

 - Thermochemistry -
 -------------------
 Temperature   298.150 Kelvin.  Pressure   1.00000 Atm.
 Atom     1 has atomic number  8 and mass  15.99491

 Molecular mass:   190.02661 amu.
 Principal axes and moments of inertia in atomic units:
                           1         2         3
     Eigenvalues --  1590.220122769.848394360.06848
           X            0.97348   0.21959   0.06413
           Y           -0.20647   0.96410  -0.16699
           Z           -0.09850   0.14932   0.98387
 This molecule is an asymmetric top.
 Rotational symmetry number  1.
 Warning -- assumption of classical behavior for rotation
           may cause significant error
 Rotational temperatures (Kelvin)      0.05447     0.03127     0.01987
 Rotational constants (GHZ):           1.13490     0.65157     0.41392
 Zero-point vibrational energy     370752.6 (Joules/Mol)
                                   88.61200 (Kcal/Mol)
 Warning -- explicit consideration of  17 degrees of freedom as
           vibrations may cause significant error
 Vibrational temperatures:     91.97   157.27   177.21   239.51   365.77
          (Kelvin)            414.18   433.54   451.57   543.05   588.13
                              605.30   608.37   620.67   665.80   732.65
                              811.83   820.56   915.28   971.17   982.64
                             1027.24  1046.14  1052.99  1154.95  1278.26
                             1311.62  1416.30  1433.63  1460.75  1521.99
                             1526.25  1599.44  1698.64  1715.97  1755.29
                             1827.23  1870.81  1889.85  1951.02  2014.79
                             2045.48  2136.76  2165.56  2319.93  2341.93
                             2427.26  2459.72  2493.35  4565.10  4584.84
                             4603.02  4607.43  5252.40  5430.16

 Zero-point correction=                           0.141212 (Hartree/Particle)
 Thermal correction to Energy=                    0.152134
 Thermal correction to Enthalpy=                  0.153078
 Thermal correction to Gibbs Free Energy=         0.104500
 Sum of electronic and zero-point Energies=           -685.624299
 Sum of electronic and thermal Energies=              -685.613377
 Sum of electronic and thermal Enthalpies=            -685.612433
 Sum of electronic and thermal Free Energies=         -685.661011

                     E (Thermal)             CV                S
                      KCal/Mol        Cal/Mol-Kelvin    Cal/Mol-Kelvin
 Total                   95.466             42.932            102.241
 Electronic               0.000              0.000              0.000
 Translational            0.889              2.981             41.632
 Rotational               0.889              2.981             31.330
 Vibrational             93.688             36.970             29.280
 Vibration     1          0.597              1.972              4.332
 Vibration     2          0.606              1.942              3.281
 Vibration     3          0.610              1.930              3.050
 Vibration     4          0.624              1.884              2.475
 Vibration     5          0.665              1.756              1.701
 Vibration     6          0.685              1.696              1.486
 Vibration     7          0.693              1.671              1.410
 Vibration     8          0.702              1.647              1.342
 Vibration     9          0.748              1.518              1.049
 Vibration    10          0.773              1.451              0.931
 Vibration    11          0.783              1.425              0.890
 Vibration    12          0.785              1.421              0.882
 Vibration    13          0.792              1.402              0.854
 Vibration    14          0.820              1.333              0.758
 Vibration    15          0.864              1.230              0.635
 Vibration    16          0.920              1.109              0.515
 Vibration    17          0.926              1.095              0.504

 Optimization completed.
    -- Stationary point found.
 Normal termination of Gaussian 16 at Thu Dec 28 20:05:35 2023.
