 Q-Chem 5.4, Q-Chem, Inc., Pleasanton, CA (2021)
 Q-Chem 5.4.0 for Intel X86 EM64T Linux

User input:
--------------------------------------------------------------
$molecule
-1 2
C                  5.0428730000     -2.2495910000      0.7203280000
C                  5.8689310000     -1.4205440000     -0.0114600000
C                  5.3165950000     -0.5500460000     -0.9776570000
C                  3.6435620000     -2.2490420000      0.5246980000
C                  3.0862760000     -1.3703400000     -0.4504040000
C                  3.9522040000     -0.5315250000     -1.1865520000
C                  2.8104730000     -3.1479670000      1.3258130000
C                  1.3709880000     -3.0904560000      1.0667860000
C                  0.8145720000     -2.2116750000      0.0930690000
C                  1.6457330000     -1.3129330000     -0.7088260000
C                  0.5053370000     -3.9296430000      1.8027010000
C                 -0.5840980000     -2.2187310000     -0.0997530000
C                 -1.4053550000     -3.0478980000      0.6352010000
O                  3.3017600000     -3.9216180000      2.1864900000
O                  1.1530710000     -0.5383120000     -1.5668860000
H                  5.4391290000     -2.9274970000      1.4676480000
H                  6.9423210000     -1.4361840000      0.1537460000
H                  5.9658420000      0.1025240000     -1.5540870000
H                 -2.4788440000     -3.0396090000      0.4622010000
H                  3.5006270000      0.1257490000     -1.9208430000
H                  0.9640490000     -4.5892780000      2.5324390000
H                 -0.9861930000     -1.5490430000     -0.8514530000
C                 -0.8643170000     -3.9242260000      1.6102800000
C                 -1.7783460000     -4.7938570000      2.4469560000
C                 -2.3027550000     -4.0530010000      3.6736740000
O                 -3.2013510000     -4.9200920000      4.3898200000
H                 -1.2493810000     -5.6901410000      2.7844630000
H                 -2.6383330000     -5.1278460000      1.8555280000
H                 -2.8249510000     -3.1394400000      3.3615180000
H                 -1.4605000000     -3.7617690000      4.3131390000
H                 -3.4721520000     -4.4715300000      5.1958430000
$end
$rem
MAX_SCF_CYCLES=200
BASIS  =  6-311++G(d,p)
GUI  =  2
JOB_TYPE  =  SP
METHOD  =  B3LYP
SOLVENT_METHOD = PCM
$end
$pcm
theory = CPCM
$end
$solvent
dielectric 37.219
opticaldielectric 1.43
$end

--------------------------------------------------------------

             Standard Nuclear Orientation (Angstroms)
    I     Atom           X                Y                Z
 ----------------------------------------------------------------
    1      C       5.0428730000    -2.2495910000     0.7203280000
    2      C       5.8689310000    -1.4205440000    -0.0114600000
    3      C       5.3165950000    -0.5500460000    -0.9776570000
    4      C       3.6435620000    -2.2490420000     0.5246980000
    5      C       3.0862760000    -1.3703400000    -0.4504040000
    6      C       3.9522040000    -0.5315250000    -1.1865520000
    7      C       2.8104730000    -3.1479670000     1.3258130000
    8      C       1.3709880000    -3.0904560000     1.0667860000
    9      C       0.8145720000    -2.2116750000     0.0930690000
   10      C       1.6457330000    -1.3129330000    -0.7088260000
   11      C       0.5053370000    -3.9296430000     1.8027010000
   12      C      -0.5840980000    -2.2187310000    -0.0997530000
   13      C      -1.4053550000    -3.0478980000     0.6352010000
   14      O       3.3017600000    -3.9216180000     2.1864900000
   15      O       1.1530710000    -0.5383120000    -1.5668860000
   16      H       5.4391290000    -2.9274970000     1.4676480000
   17      H       6.9423210000    -1.4361840000     0.1537460000
   18      H       5.9658420000     0.1025240000    -1.5540870000
   19      H      -2.4788440000    -3.0396090000     0.4622010000
   20      H       3.5006270000     0.1257490000    -1.9208430000
   21      H       0.9640490000    -4.5892780000     2.5324390000
   22      H      -0.9861930000    -1.5490430000    -0.8514530000
   23      C      -0.8643170000    -3.9242260000     1.6102800000
   24      C      -1.7783460000    -4.7938570000     2.4469560000
   25      C      -2.3027550000    -4.0530010000     3.6736740000
   26      O      -3.2013510000    -4.9200920000     4.3898200000
   27      H      -1.2493810000    -5.6901410000     2.7844630000
   28      H      -2.6383330000    -5.1278460000     1.8555280000
   29      H      -2.8249510000    -3.1394400000     3.3615180000
   30      H      -1.4605000000    -3.7617690000     4.3131390000
   31      H      -3.4721520000    -4.4715300000     5.1958430000
 ----------------------------------------------------------------

    8    -842.9958172111      6.26e-06  Convergence criterion met
 Total energy in the final basis set =     -842.9958172111

                    Orbital Energies (a.u.)
 --------------------------------------------------------------

 Alpha MOs
 -- Occupied --
-19.1259 -19.0774 -19.0772 -10.2257 -10.2250 -10.2147 -10.1809 -10.1728
-10.1725 -10.1724 -10.1718 -10.1713 -10.1713 -10.1703 -10.1693 -10.1693
-10.1692 -10.1685 -10.1669  -1.0221  -1.0050  -1.0025  -0.8630  -0.8525
 -0.7977  -0.7667  -0.7507  -0.7453  -0.7215  -0.6662  -0.6412  -0.6228
 -0.5968  -0.5846  -0.5559  -0.5317  -0.5261  -0.5059  -0.4796  -0.4696
 -0.4569  -0.4492  -0.4404  -0.4257  -0.4232  -0.4213  -0.4159  -0.4148
 -0.4084  -0.3993  -0.3823  -0.3703  -0.3648  -0.3613  -0.3475  -0.3421
 -0.3417  -0.3320  -0.3303  -0.2832  -0.2667  -0.2580  -0.2546  -0.2488
 -0.2446  -0.2390  -0.1422

 Beta MOs
 -- Occupied --
-19.1259 -19.0724 -19.0721 -10.2237 -10.2230 -10.2147 -10.1804 -10.1721
-10.1717 -10.1716 -10.1713 -10.1708 -10.1707 -10.1699 -10.1693 -10.1692
-10.1691 -10.1685 -10.1668  -1.0221  -0.9958  -0.9932  -0.8605  -0.8512
 -0.7951  -0.7645  -0.7483  -0.7436  -0.7200  -0.6591  -0.6397  -0.6210
 -0.5953  -0.5839  -0.5534  -0.5296  -0.5253  -0.5046  -0.4789  -0.4667
 -0.4556  -0.4486  -0.4394  -0.4227  -0.4212  -0.4198  -0.4096  -0.4072
 -0.4067  -0.3971  -0.3693  -0.3622  -0.3607  -0.3591  -0.3449  -0.3413
 -0.3404  -0.3292  -0.3224  -0.2831  -0.2539  -0.2477  -0.2455  -0.2441
 -0.2390  -0.2342

          Ground-State Mulliken Net Atomic Charges

     Atom                 Charge (a.u.)    Spin (a.u.)
  --------------------------------------------------------
      1 C                     0.055816       0.030461
      2 C                    -0.482317       0.035640
      3 C                    -0.491100       0.040411
      4 C                     0.324346       0.032150
      5 C                     0.123603       0.032288
      6 C                     0.096755       0.028522
      7 C                    -0.614844       0.115306
      8 C                     0.253314       0.048825
      9 C                     0.061373       0.028277
     10 C                    -0.641675       0.108488
     11 C                    -0.242704       0.025671
     12 C                     0.062593       0.027926
     13 C                    -0.542870       0.037779
     14 O                    -0.477760       0.198451
     15 O                    -0.480880       0.192866
     16 H                     0.168313      -0.001680
     17 H                     0.198546      -0.003050
     18 H                     0.196958      -0.003305
     19 H                     0.200489      -0.003004
     20 H                     0.170838      -0.001429
     21 H                     0.170956      -0.001849
     22 H                     0.178607      -0.001514
     23 C                     0.575792       0.032032
     24 C                     0.050760      -0.000373
     25 C                    -0.534097      -0.000708
     26 O                    -0.375941       0.000273
     27 H                     0.176625       0.000104
     28 H                     0.178600       0.001286
     29 H                     0.171914      -0.000410
     30 H                     0.171953       0.000529
     31 H                     0.296031       0.000037
  --------------------------------------------------------
  Sum of atomic charges =    -1.000007

                    Cartesian Multipole Moments
 -----------------------------------------------------------------
    Charge (ESU x 10^10)
                -4.8032
    Dipole Moment (Debye)
         X     -10.3178      Y      12.5696      Z      -0.7273
       Tot      16.2782
    Quadrupole Moments (Debye-Ang)
        XX    -139.9229     XY      26.2847     YY    -170.0092
        XZ     -14.2863     YZ      20.5102     ZZ    -123.9935

 Total job time:  74.46s(wall), 498.96s(cpu)
        *  Thank you very much for using Q-Chem.  Have a nice day.  *
