 Gaussian 16, Revision A.03,
 Gaussian 16:  ES64L-G16RevA.03 25-Dec-2016

 ----------------------------------------------------------------
 #P UB3LYP/6-311++G(d,p) SCRF=(PCM,Solvent=n,n-DiMethylFormamide)
 ----------------------------------------------------------------

 ------------------
 Radical PCM in DMF
 ------------------
 Symbolic Z-matrix:
 Charge = -1 Multiplicity = 2

                         Standard orientation:
 ---------------------------------------------------------------------
 Center     Atomic      Atomic             Coordinates (Angstroms)
 Number     Number       Type             X           Y           Z
 ---------------------------------------------------------------------
      1          6           0        3.246657   -1.781774    0.039316
      2          6           0        4.554263   -1.370345    0.200860
      3          6           0        4.851075    0.006647    0.311201
      4          6           0        2.186426   -0.849656   -0.019084
      5          6           0        2.486159    0.540034    0.092409
      6          6           0        3.831990    0.936209    0.257154
      7          6           0        0.816516   -1.336721   -0.192296
      8          6           0       -0.227515   -0.312071   -0.243403
      9          6           0        0.072366    1.076246   -0.131030
     10          6           0        1.440964    1.564842    0.041641
     11          6           0       -1.573162   -0.708432   -0.408596
     12          6           0       -0.991464    2.002446   -0.193691
     13          6           0       -2.296548    1.586118   -0.353585
     14          8           0        0.552207   -2.562046   -0.289158
     15          8           0        1.703399    2.789704    0.140943
     16          1           0        2.989998   -2.831307   -0.048269
     17          1           0        5.355214   -2.102738    0.243075
     18          1           0        5.879720    0.331327    0.438144
     19          1           0       -3.097061    2.320126   -0.406383
     20          1           0        4.029900    1.998865    0.339058
     21          1           0       -1.764192   -1.773332   -0.495485
     22          1           0       -0.740859    3.054217   -0.115004
     23          6           0       -2.608646    0.206922   -0.462509
     24          6           0       -4.048744   -0.242872   -0.587155
     25          6           0       -4.719038   -0.389666    0.775881
     26          8           0       -6.093866   -0.767675    0.578031
     27          1           0       -4.105034   -1.204818   -1.105354
     28          1           0       -4.626701    0.477755   -1.176710
     29          1           0       -4.661448    0.560101    1.323010
     30          1           0       -4.192595   -1.152567    1.362366
     31          1           0       -6.488641   -0.925052    1.440353
 ---------------------------------------------------------------------

 SCF Done:  E(UB3LYP) =  -842.989472165     A.U. after   18 cycles

 The electronic state is 2-A.
 Alpha  occ. eigenvalues --  -19.12904 -19.07537 -19.07511 -10.22338 -10.22272
 Alpha  occ. eigenvalues --  -10.21875 -10.18181 -10.17261 -10.17221 -10.17214
 Alpha  occ. eigenvalues --  -10.17192 -10.17192 -10.17177 -10.17137 -10.17077
 Alpha  occ. eigenvalues --  -10.16957 -10.16950 -10.16939 -10.16731  -1.02552
 Alpha  occ. eigenvalues --   -1.00263  -1.00013  -0.86282  -0.85261  -0.79857
 Alpha  occ. eigenvalues --   -0.76744  -0.75041  -0.74540  -0.72269  -0.66580
 Alpha  occ. eigenvalues --   -0.64219  -0.62376  -0.59796  -0.58524  -0.55558
 Alpha  occ. eigenvalues --   -0.53256  -0.52761  -0.50738  -0.48151  -0.46921
 Alpha  occ. eigenvalues --   -0.45763  -0.45077  -0.44103  -0.42595  -0.42330
 Alpha  occ. eigenvalues --   -0.42156  -0.41697  -0.41225  -0.40833  -0.39886
 Alpha  occ. eigenvalues --   -0.38004  -0.37166  -0.36526  -0.36368  -0.34890
 Alpha  occ. eigenvalues --   -0.34264  -0.34245  -0.33239  -0.33051  -0.28604
 Alpha  occ. eigenvalues --   -0.26591  -0.25771  -0.25423  -0.24620  -0.24465
 Alpha  occ. eigenvalues --   -0.23663  -0.14085
 Alpha virt. eigenvalues --   -0.05347  -0.02112  -0.00474  -0.00376   0.00013
 Alpha virt. eigenvalues --    0.00877   0.01329   0.01946   0.02153   0.03078
 Alpha virt. eigenvalues --    0.03948   0.04297   0.04557   0.05067   0.05221

  Beta  occ. eigenvalues --  -19.12903 -19.06997 -19.06957 -10.22162 -10.22088
  Beta  occ. eigenvalues --  -10.21869 -10.18131 -10.17214 -10.17196 -10.17165
  Beta  occ. eigenvalues --  -10.17142 -10.17114 -10.17097 -10.17095 -10.17010
  Beta  occ. eigenvalues --  -10.16949 -10.16949 -10.16934 -10.16723  -1.02549
  Beta  occ. eigenvalues --   -0.99308  -0.99030  -0.86042  -0.85131  -0.79599
  Beta  occ. eigenvalues --   -0.76516  -0.74807  -0.74371  -0.72120  -0.65874
  Beta  occ. eigenvalues --   -0.64069  -0.62196  -0.59644  -0.58460  -0.55309
  Beta  occ. eigenvalues --   -0.53071  -0.52671  -0.50605  -0.48096  -0.46618
  Beta  occ. eigenvalues --   -0.45627  -0.45011  -0.44008  -0.42307  -0.42275
  Beta  occ. eigenvalues --   -0.42068  -0.40747  -0.40645  -0.40574  -0.39641
  Beta  occ. eigenvalues --   -0.37066  -0.36392  -0.36180  -0.35657  -0.34656
  Beta  occ. eigenvalues --   -0.34208  -0.34108  -0.32917  -0.32204  -0.28594
  Beta  occ. eigenvalues --   -0.25387  -0.24599  -0.24492  -0.24116  -0.23897
  Beta  occ. eigenvalues --   -0.23158
  Beta virt. eigenvalues --   -0.08204  -0.04411  -0.01103  -0.00466  -0.00153
  Beta virt. eigenvalues --    0.00027   0.00887   0.01345   0.01980   0.02156
  Beta virt. eigenvalues --    0.03089   0.03951   0.04317   0.04700   0.05194

 Mulliken charges and spin densities:
               1          2
     1  C    0.056584   0.028614
     2  C   -0.461787   0.035433
     3  C   -0.463939   0.040494
     4  C    0.341019   0.034646
     5  C    0.140632   0.035425
     6  C    0.101422   0.026947
     7  C   -0.661110   0.105674
     8  C    0.271422   0.052424
     9  C    0.072012   0.031412
    10  C   -0.711832   0.098557
    11  C   -0.225035   0.022692
    12  C    0.080279   0.025531
    13  C   -0.518998   0.038482
    14  O   -0.455339   0.206272
    15  O   -0.458223   0.200602
    16  H    0.161441  -0.001629
    17  H    0.181925  -0.003023
    18  H    0.180840  -0.003308
    19  H    0.184180  -0.003023
    20  H    0.164446  -0.001349
    21  H    0.165748  -0.001737
    22  H    0.172464  -0.001415
    23  C    0.562414   0.031655
    24  C    0.051112  -0.000559
    25  C   -0.526175  -0.000600
    26  O   -0.353275   0.000266
    27  H    0.168025   0.000093
    28  H    0.169610   0.001317
    29  H    0.164731  -0.000415
    30  H    0.164677   0.000481
    31  H    0.280730   0.000040
 Sum of Mulliken charges =  -1.00000   1.00000

 Dipole moment (field-independent basis, Debye):
    X=             -4.6552    Y=             -0.3615    Z=              2.1741  Tot=              5.1506
 Quadrupole moment (field-independent basis, Debye-Ang):
   XX=           -126.4359   YY=           -145.8075   ZZ=           -114.4750
   XY=            -10.0485   XZ=            -10.6528   YZ=             -4.1131

 Normal termination of Gaussian 16 at Tue Jan 16 05:58:52 2024.
