 Gaussian 16, Revision A.03,
 Gaussian 16:  ES64L-G16RevA.03 25-Dec-2016

 ----------------------------------------------------------------------
 #P UB3LYP/6-311++G(d,p) nosym opt freq SCRF=(PCM,Solvent=n,n-DiMethylF
 ormamide)
 ----------------------------------------------------------------------

 -------
 Radical
 -------
 Symbolic Z-matrix:
 Charge = -1 Multiplicity = 2

 SCF Done:  E(UB3LYP) =  -5891.55026614     A.U. after   19 cycles
 SCF Done:  E(UB3LYP) =  -5891.55047702     A.U. after   15 cycles
 SCF Done:  E(UB3LYP) =  -5891.55051480     A.U. after   15 cycles
 SCF Done:  E(UB3LYP) =  -5891.55057063     A.U. after   13 cycles
 SCF Done:  E(UB3LYP) =  -5891.55057997     A.U. after   13 cycles
 SCF Done:  E(UB3LYP) =  -5891.55059124     A.U. after   14 cycles
 SCF Done:  E(UB3LYP) =  -5891.55063113     A.U. after   15 cycles
 SCF Done:  E(UB3LYP) =  -5891.55064221     A.U. after   15 cycles
 SCF Done:  E(UB3LYP) =  -5891.55064377     A.U. after   13 cycles
 SCF Done:  E(UB3LYP) =  -5891.55065424     A.U. after   14 cycles
 SCF Done:  E(UB3LYP) =  -5891.55065357     A.U. after   12 cycles
 SCF Done:  E(UB3LYP) =  -5891.55065443     A.U. after   12 cycles
 SCF Done:  E(UB3LYP) =  -5891.55065457     A.U. after   11 cycles
 Optimization completed.
    -- Stationary point found.
 Normal termination of Gaussian 16 at Sat Feb 10 17:38:58 2024.

 ----------------------------------------------------------------------
 #P Geom=AllCheck Guess=TCheck SCRF=Check GenChk UB3LYP/6-311++G(d,p) F
 req
 ----------------------------------------------------------------------

 Structure from the checkpoint file:  "159-rad.chk"
 -------
 Radical
 -------
 Charge = -1 Multiplicity = 2

                          Input orientation:
 ---------------------------------------------------------------------
 Center     Atomic      Atomic             Coordinates (Angstroms)
 Number     Number       Type             X           Y           Z
 ---------------------------------------------------------------------
      1          7           0       -2.836071    1.506595    1.208671
      2          6           0       -2.485282    0.521454    0.335729
      3          6           0       -3.457313   -0.200819   -0.365860
      4         35           0       -5.321363    0.238176   -0.146091
      5          6           0       -3.134653   -1.235295   -1.238992
      6          6           0       -1.816751   -1.606199   -1.412798
      7         35           0       -1.601342   -3.021500   -2.722495
      8          6           0       -0.754227   -0.950899   -0.735269
      9          6           0        0.643753   -1.376096   -0.869025
     10          8           0        0.982090   -2.420019   -1.483211
     11          6           0        1.668101   -0.536130   -0.248549
     12          6           0        3.031438   -0.861061   -0.429594
     13          6           0        4.028374   -0.091990    0.137141
     14          6           0        3.690783    1.033660    0.916708
     15          6           0        2.364024    1.363059    1.111534
     16          6           0        1.330284    0.590017    0.535989
     17          6           0       -0.061656    0.955757    0.774915
     18          8           0       -0.315123    1.952048    1.526072
     19          6           0       -1.099333    0.163914    0.125565
     20          1           0       -2.063555    2.072675    1.556106
     21          1           0       -3.775631    1.869096    1.175358
     22          1           0       -3.919812   -1.744293   -1.779840
     23          1           0        3.272595   -1.729611   -1.029353
     24          1           0        5.070139   -0.351798   -0.016373
     25          1           0        4.472969    1.638027    1.362990
     26          1           0        2.087563    2.221237    1.710672
 ---------------------------------------------------------------------

 SCF Done:  E(UB3LYP) =  -5891.55065457     A.U. after    1 cycles

 Alpha  occ. eigenvalues -- -482.83662-482.82178 -62.48945 -62.47453 -56.30967
 Alpha  occ. eigenvalues --  -56.30599 -56.30590 -56.29491 -56.29116 -56.29076
 Alpha  occ. eigenvalues --  -19.08312 -19.07657 -14.31564 -10.23659 -10.23451
 Alpha  occ. eigenvalues --  -10.23088 -10.22641 -10.22511 -10.19436 -10.19060
 Alpha  occ. eigenvalues --  -10.19011 -10.17662 -10.17591 -10.17536 -10.17487
 Alpha  occ. eigenvalues --  -10.17266 -10.17219  -8.69916  -8.68419  -6.53010
 Alpha  occ. eigenvalues --   -6.51782  -6.51771  -6.51556  -6.50314  -6.50199
 Alpha  occ. eigenvalues --   -2.64112  -2.63758  -2.63750  -2.62774  -2.62772
 Alpha  occ. eigenvalues --   -2.62648  -2.62316  -2.62230  -2.61240  -2.61239
 Alpha  occ. eigenvalues --   -1.01027  -1.00516  -0.93259  -0.86952  -0.85877
 Alpha  occ. eigenvalues --   -0.81987  -0.80089  -0.76799  -0.75312  -0.73906
 Alpha  occ. eigenvalues --   -0.72075  -0.67104  -0.64120  -0.62793  -0.58805
 Alpha  occ. eigenvalues --   -0.56489  -0.55751  -0.52562  -0.51592  -0.48769
 Alpha  occ. eigenvalues --   -0.47613  -0.45780  -0.45395  -0.44816  -0.43481
 Alpha  occ. eigenvalues --   -0.42623  -0.41943  -0.41479  -0.40371  -0.39849
 Alpha  occ. eigenvalues --   -0.38804  -0.38571  -0.36915  -0.35588  -0.35324
 Alpha  occ. eigenvalues --   -0.34212  -0.33966  -0.31794  -0.30274  -0.29207
 Alpha  occ. eigenvalues --   -0.28967  -0.26741  -0.25855  -0.25273  -0.25077
 Alpha  occ. eigenvalues --   -0.23246  -0.21713  -0.14532
 Alpha virt. eigenvalues --   -0.05435  -0.03199  -0.02835  -0.00669  -0.00372
 Alpha virt. eigenvalues --   -0.00172   0.00457   0.01399   0.02175   0.02486
 Alpha virt. eigenvalues --    0.03624   0.03740   0.04449   0.04543   0.04677

  Beta  occ. eigenvalues -- -482.83662-482.82176 -62.48945 -62.47452 -56.30969
  Beta  occ. eigenvalues --  -56.30595 -56.30590 -56.29490 -56.29110 -56.29075
  Beta  occ. eigenvalues --  -19.07813 -19.07079 -14.31550 -10.23670 -10.23268
  Beta  occ. eigenvalues --  -10.22938 -10.22598 -10.22363 -10.19322 -10.19011
  Beta  occ. eigenvalues --  -10.18978 -10.17605 -10.17531 -10.17501 -10.17451
  Beta  occ. eigenvalues --  -10.17262 -10.17215  -8.69915  -8.68416  -6.53013
  Beta  occ. eigenvalues --   -6.51777  -6.51767  -6.51556  -6.50304  -6.50198
  Beta  occ. eigenvalues --   -2.64113  -2.63758  -2.63748  -2.62770  -2.62768
  Beta  occ. eigenvalues --   -2.62647  -2.62311  -2.62231  -2.61235  -2.61234
  Beta  occ. eigenvalues --   -1.00170  -0.99515  -0.93155  -0.86731  -0.85731
  Beta  occ. eigenvalues --   -0.81817  -0.79865  -0.76642  -0.75119  -0.73749
  Beta  occ. eigenvalues --   -0.71818  -0.66499  -0.63907  -0.62565  -0.58708
  Beta  occ. eigenvalues --   -0.56297  -0.55583  -0.52405  -0.51474  -0.48542
  Beta  occ. eigenvalues --   -0.47387  -0.45658  -0.45296  -0.44727  -0.42608
  Beta  occ. eigenvalues --   -0.42552  -0.41814  -0.40918  -0.40092  -0.39121
  Beta  occ. eigenvalues --   -0.38501  -0.37052  -0.36744  -0.35427  -0.34569
  Beta  occ. eigenvalues --   -0.33964  -0.33270  -0.31416  -0.30262  -0.29080
  Beta  occ. eigenvalues --   -0.28435  -0.25271  -0.25034  -0.24807  -0.24613
  Beta  occ. eigenvalues --   -0.22787  -0.20901
  Beta virt. eigenvalues --   -0.08887  -0.04441  -0.02855  -0.02021  -0.00525
  Beta virt. eigenvalues --   -0.00280  -0.00031   0.00463   0.01419   0.02192
  Beta virt. eigenvalues --    0.02502   0.03753   0.03842   0.04495   0.04666

 Mulliken charges and spin densities:
               1          2
     1  N   -0.335874   0.007989
     2  C   -0.412535   0.005173
     3  C    0.336821   0.090646
     4  Br  -0.196685   0.003128
     5  C    0.029556   0.044345
     6  C    0.079367   0.048642
     7  Br  -0.189538   0.004317
     8  C    0.614364   0.076036
     9  C   -1.193184   0.077851
    10  O   -0.362436   0.212183
    11  C   -0.060940   0.018029
    12  C    0.124737   0.030905
    13  C   -0.376371   0.027034
    14  C   -0.512943   0.028094
    15  C    0.175268   0.032263
    16  C    0.091069   0.008598
    17  C   -0.420196   0.101881
    18  O   -0.439760   0.182921
    19  C    0.472448   0.014454
    20  H    0.326841  -0.002538
    21  H    0.258262  -0.000726
    22  H    0.287095  -0.003279
    23  H    0.169753  -0.002056
    24  H    0.182406  -0.002261
    25  H    0.183499  -0.002398
    26  H    0.168977  -0.001234
 Sum of Mulliken charges =  -1.00000   1.00000

 Dipole moment (field-independent basis, Debye):
    X=              1.2122    Y=              4.6541    Z=              2.3813  Tot=              5.3666
 Quadrupole moment (field-independent basis, Debye-Ang):
   XX=           -143.7889   YY=           -161.3017   ZZ=           -154.0380
   XY=             -0.4065   XZ=              0.5102   YZ=            -14.4334

  Exact polarizability: 573.544  -3.118 341.082  22.353 136.593 275.789
 Approx polarizability: 571.665 -14.965 400.561  11.832 160.012 317.870

                      1                      2                      3
                      A                      A                      A
 Frequencies --     28.0063                38.6351                82.4035
 Red. masses --      8.6300                11.5589                 7.6756
 Frc consts  --      0.0040                 0.0102                 0.0307
 IR Inten    --      5.3885                 3.8960                 3.1464

                      4                      5                      6
                      A                      A                      A
 Frequencies --    116.2571               121.2429               129.4548
 Red. masses --      5.9817                 6.8723                20.5607
 Frc consts  --      0.0476                 0.0595                 0.2030
 IR Inten    --      0.4444                 2.4655                 0.5925

                      7                      8                      9
                      A                      A                      A
 Frequencies --    138.4039               174.9790               216.4894
 Red. masses --     14.0002                 6.3957                14.8409
 Frc consts  --      0.1580                 0.1154                 0.4098
 IR Inten    --      2.4255                 1.1810                 5.7996

                     10                     11                     12
                      A                      A                      A
 Frequencies --    238.7295               269.1007               292.8672
 Red. masses --     11.1444                 3.8776                 6.8448
 Frc consts  --      0.3742                 0.1654                 0.3459
 IR Inten    --      1.2989                26.1703                 8.6387

                     13                     14                     15
                      A                      A                      A
 Frequencies --    316.9955               331.3126               358.6179
 Red. masses --      4.7199                 1.9417                 3.6350
 Frc consts  --      0.2794                 0.1256                 0.2754
 IR Inten    --     43.2460               220.2121                66.8469

                     16                     17                     18
                      A                      A                      A
 Frequencies --    389.8763               417.5739               425.3670
 Red. masses --      5.9979                 6.8040                 5.8548
 Frc consts  --      0.5372                 0.6990                 0.6242
 IR Inten    --     22.4726                 3.0196                13.3451

                     19                     20                     21
                      A                      A                      A
 Frequencies --    438.1699               452.7560               489.9067
 Red. masses --      3.9370                 8.6791                 7.9168
 Frc consts  --      0.4453                 1.0482                 1.1195
 IR Inten    --     17.9913                42.0748                 3.4901

                     22                     23                     24
                      A                      A                      A
 Frequencies --    495.4966               524.2548               575.7325
 Red. masses --      4.4109                 5.8988                 5.7499
 Frc consts  --      0.6381                 0.9552                 1.1229
 IR Inten    --     22.8567                 6.5907                11.8833

                     25                     26                     27
                      A                      A                      A
 Frequencies --    617.1010               651.3000               662.2071
 Red. masses --      5.6292                 5.5153                 4.8447
 Frc consts  --      1.2630                 1.3784                 1.2517
 IR Inten    --      0.1836                 6.0651                51.8406

                     28                     29                     30
                      A                      A                      A
 Frequencies --    682.2854               699.4238               713.7901
 Red. masses --      6.5833                 1.3837                 3.2477
 Frc consts  --      1.8056                 0.3988                 0.9749
 IR Inten    --    184.9150                24.6298                54.4823

                     31                     32                     33
                      A                      A                      A
 Frequencies --    719.0867               738.4512               792.4695
 Red. masses --      6.1639                 3.5123                 2.2144
 Frc consts  --      1.8779                 1.1285                 0.8194
 IR Inten    --     10.9297                71.9743                31.9485

                     34                     35                     36
                      A                      A                      A
 Frequencies --    797.1258               808.8882               869.7562
 Red. masses --      4.2506                 7.3557                 1.3366
 Frc consts  --      1.5913                 2.8357                 0.5957
 IR Inten    --      3.1226                76.2031                23.2083

                     37                     38                     39
                      A                      A                      A
 Frequencies --    886.6963               897.5654               940.8861
 Red. masses --      1.4701                 7.8397                 6.8348
 Frc consts  --      0.6810                 3.7212                 3.5649
 IR Inten    --      0.1750                21.1157                 8.7217

                     40                     41                     42
                      A                      A                      A
 Frequencies --    989.6644              1003.4079              1021.9941
 Red. masses --      1.3666                 1.2927                 4.0341
 Frc consts  --      0.7886                 0.7668                 2.4825
 IR Inten    --      2.3633                 0.2390                59.8980

                     43                     44                     45
                      A                      A                      A
 Frequencies --   1044.7895              1102.8335              1115.2407
 Red. masses --      1.9680                 2.6041                 2.0284
 Frc consts  --      1.2657                 1.8661                 1.4864
 IR Inten    --     15.5513               244.5926                17.3883

                     46                     47                     48
                      A                      A                      A
 Frequencies --   1150.4256              1166.2426              1202.8414
 Red. masses --      1.3978                 3.6106                 2.0465
 Frc consts  --      1.0900                 2.8934                 1.7445
 IR Inten    --     34.0072                 2.3769                 6.2084

                     49                     50                     51
                      A                      A                      A
 Frequencies --   1222.9664              1242.6539              1292.5577
 Red. masses --      2.8855                 1.9717                 3.3742
 Frc consts  --      2.5427                 1.7939                 3.3214
 IR Inten    --     42.9743               300.0746                60.6258

                     52                     53                     54
                      A                      A                      A
 Frequencies --   1310.3330              1360.0560              1361.1351
 Red. masses --      3.3683                 3.3202                 4.8108
 Frc consts  --      3.4074                 3.6185                 5.2513
 IR Inten    --     51.5640                38.6027               208.2136

                     55                     56                     57
                      A                      A                      A
 Frequencies --   1375.0577              1378.5833              1472.3347
 Red. masses --      7.6112                 3.0927                 3.9315
 Frc consts  --      8.4790                 3.4631                 5.0214
 IR Inten    --     85.4355               306.6406               603.9135

                     58                     59                     60
                      A                      A                      A
 Frequencies --   1474.8877              1484.9524              1507.2808
 Red. masses --      4.2205                 2.7544                 5.5023
 Frc consts  --      5.4092                 3.5785                 7.3652
 IR Inten    --     72.1817               184.2966              1759.0454

                     61                     62                     63
                      A                      A                      A
 Frequencies --   1549.1881              1558.2154              1576.7128
 Red. masses --      5.1285                 5.3882                 1.6093
 Frc consts  --      7.2519                 7.7082                 2.3572
 IR Inten    --     48.2384                22.9553               319.8602

                     64                     65                     66
                      A                      A                      A
 Frequencies --   1608.8530              1629.3700              3161.4639
 Red. masses --      8.2843                 5.8538                 1.0864
 Frc consts  --     12.6339                 9.1564                 6.3977
 IR Inten    --     52.1441                 0.5056                13.7233

                     67                     68                     69
                      A                      A                      A
 Frequencies --   3175.8492              3195.6704              3198.3612
 Red. masses --      1.0913                 1.0917                 1.0939
 Frc consts  --      6.4850                 6.5689                 6.5928
 IR Inten    --     28.0307                10.8618                42.3853

                     70                     71                     72
                      A                      A                      A
 Frequencies --   3211.4183              3390.8007              3649.5993
 Red. masses --      1.0918                 1.0615                 1.0898
 Frc consts  --      6.6343                 7.1911                 8.5522
 IR Inten    --      2.5758               270.5325               170.5732

 - Thermochemistry -
 -------------------
 Temperature   298.150 Kelvin.  Pressure   1.00000 Atm.
 Atom     1 has atomic number  7 and mass  14.00307

 Molecular mass:   378.88435 amu.
 Principal axes and moments of inertia in atomic units:
                           1         2         3
     Eigenvalues --  5688.28628********************
           X            0.99645  -0.06725  -0.05068
           Y            0.01952   0.76990  -0.63787
           Z            0.08192   0.63461   0.76848
 This molecule is an asymmetric top.
 Rotational symmetry number  1.
 Warning -- assumption of classical behavior for rotation
           may cause significant error
 Rotational temperatures (Kelvin)      0.01523     0.00822     0.00535
 Rotational constants (GHZ):           0.31727     0.17131     0.11144
 Zero-point vibrational energy     452938.5 (Joules/Mol)
                                  108.25490 (Kcal/Mol)
 Warning -- explicit consideration of  25 degrees of freedom as
           vibrations may cause significant error
 Vibrational temperatures:     40.29    55.59   118.56   167.27   174.44
          (Kelvin)            186.26   199.13   251.76   311.48   343.48
                              387.18   421.37   456.09   476.68   515.97
                              560.95   600.80   612.01   630.43   651.41
                              704.87   712.91   754.29   828.35   887.87
                              937.08   952.77   981.66  1006.31  1026.98
                             1034.61  1062.47  1140.19  1146.89  1163.81
                             1251.39  1275.76  1291.40  1353.73  1423.91
                             1443.68  1470.42  1503.22  1586.73  1604.58
                             1655.21  1677.96  1730.62  1759.58  1787.90
                             1859.70  1885.28  1956.82  1958.37  1978.40
                             1983.47  2118.36  2122.03  2136.52  2168.64
                             2228.94  2241.92  2268.54  2314.78  2344.30
                             4548.64  4569.34  4597.86  4601.73  4620.51
                             4878.61  5250.96

 Zero-point correction=                           0.172515 (Hartree/Particle)
 Thermal correction to Energy=                    0.188312
 Thermal correction to Enthalpy=                  0.189257
 Thermal correction to Gibbs Free Energy=         0.126563
 Sum of electronic and zero-point Energies=          -5891.378139
 Sum of electronic and thermal Energies=             -5891.362342
 Sum of electronic and thermal Enthalpies=           -5891.361398
 Sum of electronic and thermal Free Energies=        -5891.424092

                     E (Thermal)             CV                S
                      KCal/Mol        Cal/Mol-Kelvin    Cal/Mol-Kelvin
 Total                  118.168             60.417            131.950
 Electronic               0.000              0.000              1.377
 Translational            0.889              2.981             43.689
 Rotational               0.889              2.981             35.227
 Vibrational            116.390             54.456             51.657
 Vibration     1          0.593              1.984              5.966
 Vibration     2          0.594              1.981              5.328
 Vibration     3          0.600              1.961              3.833
 Vibration     4          0.608              1.936              3.162
 Vibration     5          0.609              1.931              3.080
 Vibration     6          0.612              1.924              2.954
 Vibration     7          0.614              1.915              2.826
 Vibration     8          0.627              1.873              2.381
 Vibration     9          0.645              1.816              1.988
 Vibration    10          0.657              1.781              1.812
 Vibration    11          0.673              1.730              1.602
 Vibration    12          0.688              1.687              1.457
 Vibration    13          0.704              1.641              1.326
 Vibration    14          0.714              1.613              1.254
 Vibration    15          0.733              1.558              1.128
 Vibration    16          0.758              1.492              1.001
 Vibration    17          0.781              1.432              0.900
 Vibration    18          0.787              1.415              0.874
 Vibration    19          0.798              1.387              0.832
 Vibration    20          0.811              1.355              0.787
 Vibration    21          0.846              1.272              0.684
 Vibration    22          0.851              1.260              0.669
 Vibration    23          0.879              1.196              0.600
 Vibration    24          0.932              1.084              0.493
 Vibration    25          0.977              0.996              0.421

                           ! Non-Optimized Parameters !
 Normal termination of Gaussian 16 at Sat Feb 10 18:26:54 2024.
