 Gaussian 16, Revision A.03,
 Gaussian 16:  ES64L-G16RevA.03 25-Dec-2016

 ----------------------------------------------------------------------
 #P UB3LYP/6-311++G(d,p) nosym opt freq SCRF=(PCM,Solvent=n,n-DiMethylF
 ormamide)
 ----------------------------------------------------------------------

 -------
 Radical
 -------
 Symbolic Z-matrix:
 Charge = -1 Multiplicity = 2

 SCF Done:  E(UB3LYP) =  -655.771004326     A.U. after   19 cycles
 SCF Done:  E(UB3LYP) =  -655.771432460     A.U. after   15 cycles
 SCF Done:  E(UB3LYP) =  -655.771515262     A.U. after   15 cycles
 SCF Done:  E(UB3LYP) =  -655.771534132     A.U. after   14 cycles
 SCF Done:  E(UB3LYP) =  -655.771545478     A.U. after   12 cycles
 SCF Done:  E(UB3LYP) =  -655.771552758     A.U. after   13 cycles
 SCF Done:  E(UB3LYP) =  -655.771556064     A.U. after   13 cycles
 SCF Done:  E(UB3LYP) =  -655.771557818     A.U. after   12 cycles
 SCF Done:  E(UB3LYP) =  -655.771559248     A.U. after   13 cycles
 SCF Done:  E(UB3LYP) =  -655.771559887     A.U. after   13 cycles
 SCF Done:  E(UB3LYP) =  -655.771559962     A.U. after   12 cycles
 SCF Done:  E(UB3LYP) =  -655.771559994     A.U. after   11 cycles
 SCF Done:  E(UB3LYP) =  -655.771560010     A.U. after   11 cycles
 SCF Done:  E(UB3LYP) =  -655.771560010     A.U. after    9 cycles
 Optimization completed.
    -- Stationary point found.
 Normal termination of Gaussian 16 at Sat Feb 10 11:39:56 2024.

 ----------------------------------------------------------------------
 #P Geom=AllCheck Guess=TCheck SCRF=Check GenChk UB3LYP/6-311++G(d,p) F
 req
 ----------------------------------------------------------------------

 Structure from the checkpoint file:  "040-rad.chk"
 -------
 Radical
 -------
 Charge = -1 Multiplicity = 2

                          Input orientation:
 ---------------------------------------------------------------------
 Center     Atomic      Atomic             Coordinates (Angstroms)
 Number     Number       Type             X           Y           Z
 ---------------------------------------------------------------------
      1          6           0        0.631577    1.457721   -0.328762
      2          6           0       -0.489789    0.600963   -0.032727
      3          6           0       -0.357598   -0.716718    0.316092
      4          6           0        0.967422   -1.316571    0.396212
      5          6           0        2.113286   -0.464297    0.105058
      6          6           0        1.957623    0.864472   -0.241322
      7          6           0        3.151470    1.736907   -0.540625
      8          6           0        3.488465   -1.080385    0.193067
      9          8           0        0.452147    2.678811   -0.651730
     10          8           0        1.106468   -2.543549    0.707452
     11          6           0       -1.545052   -1.616292    0.613322
     12          6           0       -2.855939   -0.910720    0.824362
     13          6           0       -3.973707   -0.989937    0.088318
     14          6           0       -4.124141   -1.814581   -1.165928
     15          6           0       -5.214326   -0.222370    0.479297
     16          1           0       -1.474661    1.052868   -0.102054
     17          1           0        3.834978    1.793844    0.314247
     18          1           0        2.825134    2.746615   -0.787471
     19          1           0        3.736253    1.347675   -1.382002
     20          1           0        3.414622   -2.129347    0.476729
     21          1           0        4.113596   -0.565437    0.931459
     22          1           0        4.020035   -1.017468   -0.763329
     23          1           0       -1.300791   -2.190017    1.516054
     24          1           0       -1.621620   -2.369014   -0.177872
     25          1           0       -2.885856   -0.262969    1.700204
     26          1           0       -3.212229   -2.339104   -1.450111
     27          1           0       -4.423076   -1.177003   -2.006173
     28          1           0       -4.920014   -2.558942   -1.044043
     29          1           0       -5.061686    0.360124    1.390383
     30          1           0       -6.059657   -0.901355    0.643932
     31          1           0       -5.518593    0.463609   -0.320291
 ---------------------------------------------------------------------

 SCF Done:  E(UB3LYP) =  -655.771560010     A.U. after    1 cycles

 Alpha  occ. eigenvalues --  -19.06864 -19.06809 -10.20985 -10.20965 -10.17397
 Alpha  occ. eigenvalues --  -10.16510 -10.16365 -10.16177 -10.16058 -10.15943
 Alpha  occ. eigenvalues --  -10.15888 -10.15725 -10.15044 -10.15020 -10.14928
 Alpha  occ. eigenvalues --   -0.98800  -0.98424  -0.82672  -0.81130  -0.77914
 Alpha  occ. eigenvalues --   -0.72477  -0.71808  -0.68984  -0.66415  -0.65648
 Alpha  occ. eigenvalues --   -0.62082  -0.55745  -0.53750  -0.51254  -0.48426
 Alpha  occ. eigenvalues --   -0.46358  -0.44991  -0.43089  -0.43007  -0.42888
 Alpha  occ. eigenvalues --   -0.41565  -0.39995  -0.39125  -0.39035  -0.38675
 Alpha  occ. eigenvalues --   -0.38342  -0.38239  -0.37920  -0.37127  -0.36673
 Alpha  occ. eigenvalues --   -0.36001  -0.35183  -0.34228  -0.33663  -0.32274
 Alpha  occ. eigenvalues --   -0.26737  -0.24191  -0.23664  -0.23189  -0.22535
 Alpha  occ. eigenvalues --   -0.15308
 Alpha virt. eigenvalues --   -0.00658  -0.00011   0.00342   0.01164   0.01394
 Alpha virt. eigenvalues --    0.01858   0.02164   0.03113   0.03176   0.03676
 Alpha virt. eigenvalues --    0.04041   0.04288   0.04700   0.05025   0.05227

  Beta  occ. eigenvalues --  -19.06190 -19.06122 -10.20807 -10.20805 -10.17398
  Beta  occ. eigenvalues --  -10.16394 -10.16368 -10.16089 -10.15954 -10.15943
  Beta  occ. eigenvalues --  -10.15888 -10.15724 -10.15053 -10.15028 -10.14837
  Beta  occ. eigenvalues --   -0.97609  -0.97195  -0.82271  -0.80969  -0.77747
  Beta  occ. eigenvalues --   -0.72297  -0.71538  -0.68983  -0.66090  -0.65243
  Beta  occ. eigenvalues --   -0.61686  -0.55413  -0.53347  -0.51204  -0.48253
  Beta  occ. eigenvalues --   -0.46279  -0.44663  -0.43037  -0.42806  -0.42437
  Beta  occ. eigenvalues --   -0.41155  -0.39629  -0.38780  -0.38731  -0.38443
  Beta  occ. eigenvalues --   -0.38259  -0.38117  -0.37803  -0.36757  -0.36041
  Beta  occ. eigenvalues --   -0.35166  -0.33982  -0.33663  -0.32748  -0.32123
  Beta  occ. eigenvalues --   -0.24126  -0.23602  -0.23046  -0.22376  -0.22027
  Beta virt. eigenvalues --   -0.08112  -0.00630   0.00019   0.01134   0.01217
  Beta virt. eigenvalues --    0.01602   0.02178   0.02182   0.03190   0.03397
  Beta virt. eigenvalues --    0.03810   0.04311   0.04579   0.04919   0.05187

 Mulliken charges and spin densities:
               1          2
     1  C   -1.024549   0.105449
     2  C   -0.989544   0.029752
     3  C    1.277285   0.068754
     4  C   -1.022551   0.130122
     5  C    0.285981   0.034119
     6  C    1.092337   0.113888
     7  C   -0.443300   0.008893
     8  C   -0.493438  -0.007087
     9  O   -0.510520   0.242639
    10  O   -0.483947   0.245978
    11  C   -0.617990   0.017254
    12  C    0.403907  -0.002024
    13  C    0.209768  -0.002052
    14  C   -0.615310  -0.000270
    15  C   -0.608407  -0.000048
    16  H    0.166301  -0.007336
    17  H    0.147370   0.003617
    18  H    0.180292  -0.001876
    19  H    0.148324   0.003617
    20  H    0.187426  -0.001721
    21  H    0.146424   0.002897
    22  H    0.146881   0.002870
    23  H    0.189990   0.004060
    24  H    0.175181   0.008774
    25  H    0.174639   0.000291
    26  H    0.130655  -0.000423
    27  H    0.151588  -0.000011
    28  H    0.148231  -0.000018
    29  H    0.151333  -0.000092
    30  H    0.144082  -0.000029
    31  H    0.151557   0.000010
 Sum of Mulliken charges =  -1.00000   1.00000

 Dipole moment (field-independent basis, Debye):
    X=             -3.4984    Y=             -0.9569    Z=             -0.3212  Tot=              3.6411
 Quadrupole moment (field-independent basis, Debye-Ang):
   XX=            -92.8897   YY=           -133.4194   ZZ=            -97.4042
   XY=              5.1592   XZ=              0.0111   YZ=             10.9612

  Exact polarizability: 280.717  -2.552 303.649  10.166 -33.773 174.098
 Approx polarizability: 273.763 -10.241 344.663  15.359 -41.325 196.327

                      1                      2                      3
                      A                      A                      A
 Frequencies --     19.5547                26.1879                59.2381
 Red. masses --      3.4129                 3.1997                 1.0617
 Frc consts  --      0.0008                 0.0013                 0.0022
 IR Inten    --      1.6191                 1.4779                 0.0370

                      4                      5                      6
                      A                      A                      A
 Frequencies --     73.4626                85.3350               116.9406
 Red. masses --      3.2063                 4.5916                 1.0798
 Frc consts  --      0.0102                 0.0197                 0.0087
 IR Inten    --      4.7775                18.4205                 0.0977

                      7                      8                      9
                      A                      A                      A
 Frequencies --    127.9841               139.6219               167.5341
 Red. masses --      3.0521                 1.0595                 4.6777
 Frc consts  --      0.0295                 0.0122                 0.0774
 IR Inten    --      0.6593                 0.0834                 2.2116

                     10                     11                     12
                      A                      A                      A
 Frequencies --    184.8826               218.0562               267.4375
 Red. masses --      1.3735                 2.5283                 3.3015
 Frc consts  --      0.0277                 0.0708                 0.1391
 IR Inten    --      1.0876                 5.8645                 0.7969

                     13                     14                     15
                      A                      A                      A
 Frequencies --    284.3406               299.7856               320.2843
 Red. masses --      3.1003                 2.2748                 2.5697
 Frc consts  --      0.1477                 0.1205                 0.1553
 IR Inten    --      0.7894                 2.1325                 2.6870

                     16                     17                     18
                      A                      A                      A
 Frequencies --    333.1600               376.8526               398.7354
 Red. masses --      3.8297                 4.4583                 3.6050
 Frc consts  --      0.2504                 0.3730                 0.3377
 IR Inten    --      5.5010                 0.9374                17.5460

                     19                     20                     21
                      A                      A                      A
 Frequencies --    406.5795               446.5055               480.9280
 Red. masses --      3.7853                 2.8220                 5.1869
 Frc consts  --      0.3687                 0.3315                 0.7068
 IR Inten    --     19.9482                 6.4635                 4.4448

                     22                     23                     24
                      A                      A                      A
 Frequencies --    497.2864               508.0112               531.4797
 Red. masses --      5.1586                 3.3453                 3.0989
 Frc consts  --      0.7516                 0.5087                 0.5157
 IR Inten    --      2.7873                 2.3122                 5.8688

                     25                     26                     27
                      A                      A                      A
 Frequencies --    601.7345               665.3931               685.5459
 Red. masses --      3.9965                 3.6317                 3.9059
 Frc consts  --      0.8526                 0.9474                 1.0815
 IR Inten    --      7.5272                 4.4366                 4.6146

                     28                     29                     30
                      A                      A                      A
 Frequencies --    706.3166               758.5039               782.7333
 Red. masses --      5.3306                 4.5231                 2.7242
 Frc consts  --      1.5668                 1.5332                 0.9834
 IR Inten    --     38.6895                 3.3626                 3.9240

                     31                     32                     33
                      A                      A                      A
 Frequencies --    851.6266               871.6260               884.0540
 Red. masses --      1.7996                 1.5788                 1.8738
 Frc consts  --      0.7690                 0.7067                 0.8629
 IR Inten    --     47.1603                26.2123                16.1682

                     34                     35                     36
                      A                      A                      A
 Frequencies --    927.9955               952.4974               959.5172
 Red. masses --      2.7518                 1.9626                 1.3978
 Frc consts  --      1.3963                 1.0491                 0.7582
 IR Inten    --      2.3139                 6.3647                 0.3363

                     37                     38                     39
                      A                      A                      A
 Frequencies --    996.2134              1012.4841              1022.8610
 Red. masses --      1.8255                 1.2512                 1.4184
 Frc consts  --      1.0674                 0.7557                 0.8743
 IR Inten    --     33.3846                 7.0886                 0.3138

                     40                     41                     42
                      A                      A                      A
 Frequencies --   1041.1851              1054.3800              1098.8814
 Red. masses --      2.0257                 1.5305                 1.6745
 Frc consts  --      1.2938                 1.0025                 1.1913
 IR Inten    --      1.4384                 0.0508                 0.0853

                     43                     44                     45
                      A                      A                      A
 Frequencies --   1105.6351              1119.0873              1129.8354
 Red. masses --      2.5798                 3.2372                 2.1968
 Frc consts  --      1.8581                 2.3887                 1.6523
 IR Inten    --     44.9611                43.3563                14.5415

                     46                     47                     48
                      A                      A                      A
 Frequencies --   1179.2786              1187.9916              1229.0704
 Red. masses --      1.5386                 2.1691                 6.1485
 Frc consts  --      1.2607                 1.8037                 5.4723
 IR Inten    --      8.9433                94.6482                13.0299

                     49                     50                     51
                      A                      A                      A
 Frequencies --   1242.6759              1273.3584              1339.8516
 Red. masses --      1.5856                 1.7011                 1.9344
 Frc consts  --      1.4426                 1.6251                 2.0461
 IR Inten    --     12.3866                22.1167                 0.1471

                     52                     53                     54
                      A                      A                      A
 Frequencies --   1376.2171              1383.7482              1388.6648
 Red. masses --      1.3230                 1.4322                 1.2708
 Frc consts  --      1.4764                 1.6158                 1.4438
 IR Inten    --     13.6565                44.6606                 5.7344

                     55                     56                     57
                      A                      A                      A
 Frequencies --   1404.2462              1410.6151              1427.6103
 Red. masses --      1.3751                 1.2676                 3.2159
 Frc consts  --      1.5977                 1.4862                 3.8617
 IR Inten    --     13.0259                 2.5461               134.3404

                     58                     59                     60
                      A                      A                      A
 Frequencies --   1453.3229              1463.7662              1467.3559
 Red. masses --      1.2338                 1.0463                 1.2325
 Frc consts  --      1.5354                 1.3208                 1.5636
 IR Inten    --      4.0083                 0.5145                 4.2647

                     61                     62                     63
                      A                      A                      A
 Frequencies --   1474.4694              1477.8742              1479.6775
 Red. masses --      2.5924                 1.8733                 1.1370
 Frc consts  --      3.3207                 2.4106                 1.4667
 IR Inten    --   1124.3640                91.2394                16.0941

                     64                     65                     66
                      A                      A                      A
 Frequencies --   1480.7741              1482.1390              1485.1737
 Red. masses --      1.0566                 1.2236                 1.3615
 Frc consts  --      1.3650                 1.5837                 1.7693
 IR Inten    --      4.6286                11.8578               114.5070

                     67                     68                     69
                      A                      A                      A
 Frequencies --   1485.7366              1493.0493              1528.5063
 Red. masses --      1.4446                 1.0483                 5.2134
 Frc consts  --      1.8787                 1.3768                 7.1763
 IR Inten    --     66.2401                24.2548                37.0700

                     70                     71                     72
                      A                      A                      A
 Frequencies --   1636.3069              1721.6504              3001.0570
 Red. masses --      7.5215                 6.4775                 1.0382
 Frc consts  --     11.8655                11.3122                 5.5092
 IR Inten    --     10.5409                 5.0106                51.9528

                     73                     74                     75
                      A                      A                      A
 Frequencies --   3005.9398              3007.4292              3007.6165
 Red. masses --      1.0413                 1.0447                 1.0554
 Frc consts  --      5.5433                 5.5671                 5.6250
 IR Inten    --    148.4993                 4.6667                80.4080

                     76                     77                     78
                      A                      A                      A
 Frequencies --   3009.0213              3040.4036              3041.3177
 Red. masses --      1.0509                 1.0993                 1.0994
 Frc consts  --      5.6059                 5.9875                 5.9912
 IR Inten    --     54.1516                86.3389                28.5435

                     79                     80                     81
                      A                      A                      A
 Frequencies --   3042.6749              3044.9740              3045.5046
 Red. masses --      1.0896                 1.0988                 1.0995
 Frc consts  --      5.9432                 6.0025                 6.0084
 IR Inten    --     31.1886                49.0550                 0.5874

                     82                     83                     84
                      A                      A                      A
 Frequencies --   3092.1191              3104.8534              3116.0391
 Red. masses --      1.0991                 1.0874                 1.0950
 Frc consts  --      6.1914                 6.1760                 6.2645
 IR Inten    --     29.0614                60.0320                42.3037

                     85                     86                     87
                      A                      A                      A
 Frequencies --   3121.6044              3123.7102              3152.9367
 Red. masses --      1.0945                 1.0946                 1.0889
 Frc consts  --      6.2841                 6.2931                 6.3779
 IR Inten    --     14.8706                17.9296                24.6146

 - Thermochemistry -
 -------------------
 Temperature   298.150 Kelvin.  Pressure   1.00000 Atm.
 Atom     1 has atomic number  6 and mass  12.00000

 Molecular mass:   204.11503 amu.
 Principal axes and moments of inertia in atomic units:
                           1         2         3
     Eigenvalues --  1721.007375665.268186979.99305
           X            0.97689  -0.21276  -0.02055
           Y            0.21214   0.95328   0.21508
           Z           -0.02617  -0.21447   0.97638
 This molecule is an asymmetric top.
 Rotational symmetry number  1.
 Warning -- assumption of classical behavior for rotation
           may cause significant error
 Rotational temperatures (Kelvin)      0.05033     0.01529     0.01241
 Rotational constants (GHZ):           1.04865     0.31856     0.25856
 Zero-point vibrational energy     667089.3 (Joules/Mol)
                                  159.43817 (Kcal/Mol)
 Warning -- explicit consideration of  25 degrees of freedom as
           vibrations may cause significant error
 Vibrational temperatures:     28.13    37.68    85.23   105.70   122.78
          (Kelvin)            168.25   184.14   200.88   241.04   266.00
                              313.73   384.78   409.10   431.32   460.82
                              479.34   542.21   573.69   584.98   642.42
                              691.95   715.48   730.91   764.68   865.76
                              957.35   986.35  1016.23  1091.32  1126.18
                             1225.30  1254.08  1271.96  1335.18  1370.43
                             1380.53  1433.33  1456.74  1471.67  1498.03
                             1517.02  1581.05  1590.76  1610.12  1625.58
                             1696.72  1709.25  1768.36  1787.93  1832.08
                             1927.75  1980.07  1990.91  1997.98  2020.40
                             2029.56  2054.01  2091.01  2106.03  2111.20
                             2121.43  2126.33  2128.93  2130.50  2132.47
                             2136.83  2137.64  2148.16  2199.18  2354.28
                             2477.07  4317.85  4324.88  4327.02  4327.29
                             4329.31  4374.46  4375.78  4377.73  4381.04
                             4381.80  4448.87  4467.19  4483.29  4491.29
                             4494.32  4536.37

 Zero-point correction=                           0.254081 (Hartree/Particle)
 Thermal correction to Energy=                    0.270510
 Thermal correction to Enthalpy=                  0.271454
 Thermal correction to Gibbs Free Energy=         0.207858
 Sum of electronic and zero-point Energies=           -655.517479
 Sum of electronic and thermal Energies=              -655.501050
 Sum of electronic and thermal Enthalpies=            -655.500106
 Sum of electronic and thermal Free Energies=         -655.563702

                     E (Thermal)             CV                S
                      KCal/Mol        Cal/Mol-Kelvin    Cal/Mol-Kelvin
 Total                  169.748             59.846            133.849
 Electronic               0.000              0.000              1.377
 Translational            0.889              2.981             41.845
 Rotational               0.889              2.981             32.587
 Vibrational            167.970             53.884             58.040
 Vibration     1          0.593              1.986              6.679
 Vibration     2          0.593              1.985              6.099
 Vibration     3          0.597              1.974              4.482
 Vibration     4          0.599              1.967              4.058
 Vibration     5          0.601              1.959              3.764
 Vibration     6          0.608              1.935              3.150
 Vibration     7          0.611              1.925              2.976
 Vibration     8          0.615              1.914              2.809
 Vibration     9          0.624              1.882              2.463
 Vibration    10          0.631              1.860              2.279
 Vibration    11          0.646              1.814              1.975
 Vibration    12          0.673              1.733              1.613
 Vibration    13          0.683              1.703              1.507
 Vibration    14          0.692              1.674              1.418
 Vibration    15          0.706              1.635              1.309
 Vibration    16          0.715              1.609              1.245
 Vibration    17          0.747              1.519              1.052
 Vibration    18          0.765              1.473              0.967
 Vibration    19          0.771              1.456              0.939
 Vibration    20          0.806              1.369              0.806
 Vibration    21          0.837              1.292              0.708
 Vibration    22          0.853              1.256              0.665
 Vibration    23          0.863              1.232              0.638
 Vibration    24          0.886              1.180              0.584
 Vibration    25          0.960              1.028              0.447

 Optimization completed.
    -- Stationary point found.
 Normal termination of Gaussian 16 at Sat Feb 10 12:52:22 2024.
