 Q-Chem 5.4, Q-Chem, Inc., Pleasanton, CA (2021)
 Q-Chem 5.4.0 for Intel X86 EM64T Linux

User input:
--------------------------------------------------------------
$molecule
-2 1
C                 -1.3928500000      0.2610430000     -0.2008680000
C                 -0.9349420000     -1.0479310000     -0.3315330000
C                  0.4289150000     -1.4079870000     -0.0224150000
C                  1.3110810000     -0.3237500000      0.3402100000
C                  0.8895100000      1.0034880000      0.3085870000
C                 -0.4926650000      1.3543260000      0.0812590000
O                 -0.9018880000      2.5803930000      0.1275760000
O                  0.8379290000     -2.6341450000     -0.0679870000
C                  1.8619380000      2.1494900000      0.4850190000
C                  2.7083640000     -0.7022330000      0.7810080000
C                  3.6582920000      0.4635580000      0.9662900000
C                  3.2587160000      1.7435470000      0.9091250000
C                 -2.8616980000      0.6038570000     -0.3228310000
C                 -3.7446910000     -0.5280550000     -0.8073230000
C                 -3.2981690000     -1.7845300000     -0.9597190000
C                 -1.8354520000     -2.1576480000     -0.8292160000
H                  1.4472750000      2.8356710000      1.2405430000
C                  1.9439600000      2.9795920000     -0.8284970000
H                  3.1298780000     -1.3870130000      0.0280300000
C                  2.6415270000     -1.5259880000      2.0992980000
C                  5.0954320000      0.0838030000      1.2816250000
C                  4.2031610000      2.8944760000      1.2126870000
C                 -5.1965210000     -0.1553790000     -1.0565930000
C                 -4.2265810000     -2.9273270000     -1.3351560000
C                 -1.3154760000     -2.6861820000     -2.1971460000
H                  2.3797990000      2.3685760000     -1.6267980000
H                  2.5627830000      3.8792990000     -0.7064420000
H                  0.9340420000      3.2828400000     -1.1071320000
H                  2.2568190000     -0.8975970000      2.9102730000
H                  3.6293350000     -1.9048480000      2.3959890000
H                  1.9729570000     -2.3731710000      1.9416610000
H                  5.3359200000     -0.8891200000      0.8405560000
H                  5.2824240000     -0.0073070000      2.3619050000
H                  5.8147020000      0.8094170000      0.8910540000
H                  4.9410100000      2.6387790000      1.9785640000
H                  3.6401420000      3.7615170000      1.5735860000
H                  4.7607150000      3.2303180000      0.3257800000
H                 -5.2733440000      0.8985890000     -1.3433320000
H                 -5.8262510000     -0.2836510000     -0.1637060000
H                 -5.6485940000     -0.7483620000     -1.8568350000
H                 -5.2302680000     -2.8046610000     -0.9181030000
H                 -3.8284610000     -3.8769930000     -0.9628020000
H                 -4.3402300000     -3.0407370000     -2.4234880000
C                 -3.3970810000      1.1262980000      1.0415410000
H                 -2.9574200000      1.4515920000     -1.0197960000
H                 -1.7468430000     -3.0070720000     -0.1333420000
H                 -1.4008810000     -1.8996610000     -2.9552210000
H                 -1.8850970000     -3.5603040000     -2.5418100000
H                 -0.2694960000     -2.9721110000     -2.0800830000
H                 -3.3619730000      0.3229300000      1.7858130000
H                 -4.4343460000      1.4808830000      0.9659520000
H                 -2.7651840000      1.9545980000      1.3643030000
$end
$rem
MAX_SCF_CYCLES=200
BASIS  =  6-311++G(d,p)
GUI  =  2
JOB_TYPE  =  SP
METHOD  =  B3LYP
SOLVENT_METHOD = PCM
$end
$pcm
theory = CPCM
$end
$solvent
dielectric 37.219
opticaldielectric 1.43
$end

--------------------------------------------------------------

             Standard Nuclear Orientation (Angstroms)
    I     Atom           X                Y                Z
 ----------------------------------------------------------------
    1      C      -1.3928500000     0.2610430000    -0.2008680000
    2      C      -0.9349420000    -1.0479310000    -0.3315330000
    3      C       0.4289150000    -1.4079870000    -0.0224150000
    4      C       1.3110810000    -0.3237500000     0.3402100000
    5      C       0.8895100000     1.0034880000     0.3085870000
    6      C      -0.4926650000     1.3543260000     0.0812590000
    7      O      -0.9018880000     2.5803930000     0.1275760000
    8      O       0.8379290000    -2.6341450000    -0.0679870000
    9      C       1.8619380000     2.1494900000     0.4850190000
   10      C       2.7083640000    -0.7022330000     0.7810080000
   11      C       3.6582920000     0.4635580000     0.9662900000
   12      C       3.2587160000     1.7435470000     0.9091250000
   13      C      -2.8616980000     0.6038570000    -0.3228310000
   14      C      -3.7446910000    -0.5280550000    -0.8073230000
   15      C      -3.2981690000    -1.7845300000    -0.9597190000
   16      C      -1.8354520000    -2.1576480000    -0.8292160000
   17      H       1.4472750000     2.8356710000     1.2405430000
   18      C       1.9439600000     2.9795920000    -0.8284970000
   19      H       3.1298780000    -1.3870130000     0.0280300000
   20      C       2.6415270000    -1.5259880000     2.0992980000
   21      C       5.0954320000     0.0838030000     1.2816250000
   22      C       4.2031610000     2.8944760000     1.2126870000
   23      C      -5.1965210000    -0.1553790000    -1.0565930000
   24      C      -4.2265810000    -2.9273270000    -1.3351560000
   25      C      -1.3154760000    -2.6861820000    -2.1971460000
   26      H       2.3797990000     2.3685760000    -1.6267980000
   27      H       2.5627830000     3.8792990000    -0.7064420000
   28      H       0.9340420000     3.2828400000    -1.1071320000
   29      H       2.2568190000    -0.8975970000     2.9102730000
   30      H       3.6293350000    -1.9048480000     2.3959890000
   31      H       1.9729570000    -2.3731710000     1.9416610000
   32      H       5.3359200000    -0.8891200000     0.8405560000
   33      H       5.2824240000    -0.0073070000     2.3619050000
   34      H       5.8147020000     0.8094170000     0.8910540000
   35      H       4.9410100000     2.6387790000     1.9785640000
   36      H       3.6401420000     3.7615170000     1.5735860000
   37      H       4.7607150000     3.2303180000     0.3257800000
   38      H      -5.2733440000     0.8985890000    -1.3433320000
   39      H      -5.8262510000    -0.2836510000    -0.1637060000
   40      H      -5.6485940000    -0.7483620000    -1.8568350000
   41      H      -5.2302680000    -2.8046610000    -0.9181030000
   42      H      -3.8284610000    -3.8769930000    -0.9628020000
   43      H      -4.3402300000    -3.0407370000    -2.4234880000
   44      C      -3.3970810000     1.1262980000     1.0415410000
   45      H      -2.9574200000     1.4515920000    -1.0197960000
   46      H      -1.7468430000    -3.0070720000    -0.1333420000
   47      H      -1.4008810000    -1.8996610000    -2.9552210000
   48      H      -1.8850970000    -3.5603040000    -2.5418100000
   49      H      -0.2694960000    -2.9721110000    -2.0800830000
   50      H      -3.3619730000     0.3229300000     1.7858130000
   51      H      -4.4343460000     1.4808830000     0.9659520000
   52      H      -2.7651840000     1.9545980000     1.3643030000
 ----------------------------------------------------------------

    8   -1006.1359499888      6.89e-06  Convergence criterion met
 Total energy in the final basis set =    -1006.1359499888

                    Orbital Energies (a.u.)
 --------------------------------------------------------------

 Alpha MOs
 -- Occupied --
-19.0026 -19.0025 -10.1499 -10.1498 -10.1464 -10.1464 -10.1464 -10.1464
-10.1463 -10.1463 -10.1463 -10.1463 -10.1460 -10.1460 -10.1452 -10.1452
-10.1321 -10.1321 -10.1321 -10.1321 -10.1117 -10.1115 -10.1111 -10.1110
 -0.9224  -0.9187  -0.8211  -0.8199  -0.7624  -0.7592  -0.7569  -0.7389
 -0.7003  -0.6887  -0.6883  -0.6690  -0.6484  -0.6352  -0.6305  -0.6129
 -0.5813  -0.5734  -0.5509  -0.5351  -0.4995  -0.4688  -0.4651  -0.4516
 -0.4405  -0.4301  -0.4297  -0.4180  -0.4124  -0.4056  -0.4024  -0.3928
 -0.3881  -0.3873  -0.3831  -0.3825  -0.3800  -0.3755  -0.3727  -0.3652
 -0.3649  -0.3618  -0.3585  -0.3557  -0.3476  -0.3434  -0.3404  -0.3360
 -0.3219  -0.3218  -0.3215  -0.3184  -0.3031  -0.3018  -0.2938  -0.2827
 -0.2826  -0.2715  -0.2120  -0.2110  -0.2053  -0.1858  -0.1824  -0.1742
 -0.1013

          Ground-State Mulliken Net Atomic Charges

     Atom                 Charge (a.u.)
  ----------------------------------------
      1 C                     0.284486
      2 C                     0.266585
      3 C                    -0.524141
      4 C                     0.269995
      5 C                     0.270024
      6 C                    -0.529206
      7 O                    -0.690274
      8 O                    -0.690257
      9 C                     0.076186
     10 C                     0.075246
     11 C                     0.112397
     12 C                     0.117113
     13 C                     0.072200
     14 C                     0.112262
     15 C                     0.116473
     16 C                     0.071315
     17 H                     0.165924
     18 C                    -0.801641
     19 H                     0.165124
     20 C                    -0.799735
     21 C                    -0.677120
     22 C                    -0.681405
     23 C                    -0.677586
     24 C                    -0.681502
     25 C                    -0.799084
     26 H                     0.133885
     27 H                     0.131441
     28 H                     0.187690
     29 H                     0.133595
     30 H                     0.131486
     31 H                     0.188397
     32 H                     0.161530
     33 H                     0.188355
     34 H                     0.159001
     35 H                     0.158987
     36 H                     0.161419
     37 H                     0.188112
     38 H                     0.161678
     39 H                     0.188421
     40 H                     0.159120
     41 H                     0.158980
     42 H                     0.161425
     43 H                     0.188259
     44 C                    -0.799428
     45 H                     0.163481
     46 H                     0.164617
     47 H                     0.133470
     48 H                     0.131587
     49 H                     0.187910
     50 H                     0.133285
     51 H                     0.131133
     52 H                     0.188775
  ----------------------------------------
  Sum of atomic charges =    -2.000010

                    Cartesian Multipole Moments
 -----------------------------------------------------------------
    Charge (ESU x 10^10)
                -9.6065
    Dipole Moment (Debye)
         X       0.3062      Y       0.2570      Z      -0.2925
       Tot       0.4953
    Quadrupole Moments (Debye-Ang)
        XX    -173.6804     XY      14.7998     YY    -212.9651
        XZ      -0.5512     YZ      -2.1990     ZZ    -164.1282

 Total job time:  163.21s(wall), 1139.83s(cpu)
        *  Thank you very much for using Q-Chem.  Have a nice day.  *
