 Q-Chem 5.4, Q-Chem, Inc., Pleasanton, CA (2021)
 Q-Chem 5.4.0 for Intel X86 EM64T Linux

User input:
--------------------------------------------------------------
$molecule
0 1
C                 -3.1102520000     -3.1753350000     -0.8321460000
C                 -2.0715450000     -2.0937120000     -0.9780740000
C                 -2.4639930000     -0.8035050000     -0.8278200000
C                 -3.8413120000     -0.4062430000     -0.5033620000
C                 -4.8552650000     -1.4842220000     -0.3871110000
C                 -4.5100470000     -2.7659620000     -0.5501720000
O                 -2.8290500000     -4.3578220000     -0.9176320000
O                 -4.1529330000      0.7678660000     -0.3489660000
C                 -0.6746550000     -2.4527160000     -1.2106840000
C                 -0.0801230000     -3.4451720000     -2.0892910000
C                  0.3774980000     -1.7949770000     -0.6031460000
C                  1.3261540000     -3.3126360000     -1.9620760000
N                  1.5679800000     -2.3040560000     -1.0449680000
C                 -0.5787450000     -4.3912660000     -2.9999230000
C                  0.3134540000     -5.1642760000     -3.7269780000
C                  1.7050580000     -5.0205780000     -3.5716550000
C                  2.2304790000     -4.0906720000     -2.6872580000
H                 -1.7655980000      0.0157500000     -0.9571360000
H                 -5.8697200000     -1.1703170000     -0.1669990000
H                 -5.2214960000     -3.5809270000     -0.4740170000
H                  0.3504150000     -1.0170810000      0.1438510000
H                  2.4752690000     -2.0290910000     -0.7063340000
H                 -1.6440300000     -4.5341590000     -3.1168810000
H                 -0.0671420000     -5.9010280000     -4.4249750000
H                  2.3751550000     -5.6444650000     -4.1517420000
H                  3.3014850000     -3.9695170000     -2.5682540000
$end
$rem
MAX_SCF_CYCLES=200
BASIS  =  6-311++G(d,p)
GUI  =  2
JOB_TYPE  =  SP
METHOD  =  B3LYP
SOLVENT_METHOD = PCM
$end
$pcm
theory = CPCM
$end
$solvent
dielectric 37.219
opticaldielectric 1.43
$end

--------------------------------------------------------------

             Standard Nuclear Orientation (Angstroms)
    I     Atom           X                Y                Z
 ----------------------------------------------------------------
    1      C      -3.1102520000    -3.1753350000    -0.8321460000
    2      C      -2.0715450000    -2.0937120000    -0.9780740000
    3      C      -2.4639930000    -0.8035050000    -0.8278200000
    4      C      -3.8413120000    -0.4062430000    -0.5033620000
    5      C      -4.8552650000    -1.4842220000    -0.3871110000
    6      C      -4.5100470000    -2.7659620000    -0.5501720000
    7      O      -2.8290500000    -4.3578220000    -0.9176320000
    8      O      -4.1529330000     0.7678660000    -0.3489660000
    9      C      -0.6746550000    -2.4527160000    -1.2106840000
   10      C      -0.0801230000    -3.4451720000    -2.0892910000
   11      C       0.3774980000    -1.7949770000    -0.6031460000
   12      C       1.3261540000    -3.3126360000    -1.9620760000
   13      N       1.5679800000    -2.3040560000    -1.0449680000
   14      C      -0.5787450000    -4.3912660000    -2.9999230000
   15      C       0.3134540000    -5.1642760000    -3.7269780000
   16      C       1.7050580000    -5.0205780000    -3.5716550000
   17      C       2.2304790000    -4.0906720000    -2.6872580000
   18      H      -1.7655980000     0.0157500000    -0.9571360000
   19      H      -5.8697200000    -1.1703170000    -0.1669990000
   20      H      -5.2214960000    -3.5809270000    -0.4740170000
   21      H       0.3504150000    -1.0170810000     0.1438510000
   22      H       2.4752690000    -2.0290910000    -0.7063340000
   23      H      -1.6440300000    -4.5341590000    -3.1168810000
   24      H      -0.0671420000    -5.9010280000    -4.4249750000
   25      H       2.3751550000    -5.6444650000    -4.1517420000
   26      H       3.3014850000    -3.9695170000    -2.5682540000
 ----------------------------------------------------------------

    9    -744.3003480394      4.10e-06  Convergence criterion met
 Total energy in the final basis set =     -744.3003480394

                    Orbital Energies (a.u.)
 --------------------------------------------------------------

 Alpha MOs
 -- Occupied --
-19.1434 -19.1360 -14.3690 -10.2893 -10.2806 -10.2239 -10.2212 -10.2158
-10.2088 -10.2079 -10.1979 -10.1897 -10.1861 -10.1808 -10.1772 -10.1761
-10.1721  -1.0756  -1.0653  -0.9960  -0.8660  -0.8532  -0.8191  -0.7767
 -0.7480  -0.7316  -0.7072  -0.6533  -0.6344  -0.6163  -0.6011  -0.5712
 -0.5497  -0.5224  -0.5080  -0.4936  -0.4879  -0.4791  -0.4587  -0.4488
 -0.4474  -0.4403  -0.4366  -0.4356  -0.4271  -0.4191  -0.4070  -0.4011
 -0.3695  -0.3514  -0.3500  -0.3216  -0.3084  -0.2911  -0.2809  -0.2777
 -0.2411  -0.2196

          Ground-State Mulliken Net Atomic Charges

     Atom                 Charge (a.u.)
  ----------------------------------------
      1 C                    -1.174649
      2 C                     1.354019
      3 C                    -0.645004
      4 C                    -0.306161
      5 C                     0.013375
      6 C                     0.132000
      7 O                    -0.260683
      8 O                    -0.333679
      9 C                     0.567863
     10 C                     1.215910
     11 C                    -0.267714
     12 C                     0.066560
     13 N                    -0.106838
     14 C                    -0.996623
     15 C                    -0.546767
     16 C                    -0.292146
     17 C                    -0.571360
     18 H                     0.242383
     19 H                     0.259213
     20 H                     0.259950
     21 H                     0.239716
     22 H                     0.369844
     23 H                     0.168830
     24 H                     0.204736
     25 H                     0.200987
     26 H                     0.206240
  ----------------------------------------
  Sum of atomic charges =     0.000000

                    Cartesian Multipole Moments
 -----------------------------------------------------------------
    Charge (ESU x 10^10)
                -0.0000
    Dipole Moment (Debye)
         X       4.3643      Y       0.1819      Z       0.8686
       Tot       4.4536
    Quadrupole Moments (Debye-Ang)
        XX     -83.9158     XY       1.9762     YY    -119.2780
        XZ      -2.5012     YZ      -0.0186     ZZ     -99.5197

 Total job time:  48.79s(wall), 319.35s(cpu)
        *  Thank you very much for using Q-Chem.  Have a nice day.  *
