 Q-Chem 5.4, Q-Chem, Inc., Pleasanton, CA (2021)
 Q-Chem 5.4.0 for Intel X86 EM64T Linux

User input:
--------------------------------------------------------------
$molecule
-2 1
O                 -2.1875350000     -2.0968160000      0.2074190000
C                 -1.6755620000     -0.8374440000      0.1000150000
C                 -2.4994020000      0.2712910000      0.0326640000
C                 -1.9537740000      1.5804290000     -0.0793720000
C                 -0.5857440000      1.7775510000     -0.1237860000
O                 -0.0522020000      3.0283940000     -0.2310890000
C                  0.3013150000      0.6489120000     -0.0562030000
C                  1.7337230000      0.8628440000     -0.1031810000
O                  2.2228270000      2.0956410000     -0.2080370000
C                  2.5284030000     -0.2867190000     -0.0320360000
C                  1.9849660000     -1.5904170000      0.0795050000
C                  0.6084480000     -1.8365900000      0.1277660000
O                  0.0767580000     -3.0519500000      0.2322550000
C                 -0.2486360000     -0.6705560000      0.0567400000
H                 -1.3161370000     -2.6979760000      0.2347800000
H                 -3.5765850000      0.1236840000      0.0669960000
H                 -2.6078400000      2.4480040000     -0.1318720000
H                  0.9874620000      2.8351790000     -0.2384170000
H                  3.6091320000     -0.1517300000     -0.0654340000
H                  2.6503830000     -2.4517290000      0.1312870000
$end

$rem
BASIS  =  6-311++G(d,p)
GUI  =  2
JOB_TYPE  =  SP
METHOD  =  B3LYP
SCF_CONVERGENCE  = 8
SOLVENT_METHOD = sm12
$end

$smx
solvent dimethylformamide
charges CM5
$end

--------------------------------------------------------------

             Standard Nuclear Orientation (Angstroms)
    I     Atom           X                Y                Z
 ----------------------------------------------------------------
    1      O      -2.1875350000    -2.0968160000     0.2074190000
    2      C      -1.6755620000    -0.8374440000     0.1000150000
    3      C      -2.4994020000     0.2712910000     0.0326640000
    4      C      -1.9537740000     1.5804290000    -0.0793720000
    5      C      -0.5857440000     1.7775510000    -0.1237860000
    6      O      -0.0522020000     3.0283940000    -0.2310890000
    7      C       0.3013150000     0.6489120000    -0.0562030000
    8      C       1.7337230000     0.8628440000    -0.1031810000
    9      O       2.2228270000     2.0956410000    -0.2080370000
   10      C       2.5284030000    -0.2867190000    -0.0320360000
   11      C       1.9849660000    -1.5904170000     0.0795050000
   12      C       0.6084480000    -1.8365900000     0.1277660000
   13      O       0.0767580000    -3.0519500000     0.2322550000
   14      C      -0.2486360000    -0.6705560000     0.0567400000
   15      H      -1.3161370000    -2.6979760000     0.2347800000
   16      H      -3.5765850000     0.1236840000     0.0669960000
   17      H      -2.6078400000     2.4480040000    -0.1318720000
   18      H       0.9874620000     2.8351790000    -0.2384170000
   19      H       3.6091320000    -0.1517300000    -0.0654340000
   20      H       2.6503830000    -2.4517290000     0.1312870000
 ----------------------------------------------------------------

   17    -685.7794708632      2.99e-09  Convergence criterion met
 Total energy in the final basis set =     -686.0629755036

                    Orbital Energies (a.u.)
 --------------------------------------------------------------

 Alpha MOs
 -- Occupied --
-19.1012 -19.1009 -19.0502 -19.0500 -10.2143 -10.2143 -10.1985 -10.1985
-10.1649 -10.1645 -10.1616 -10.1612 -10.1495 -10.1491  -1.0183  -1.0169
 -0.9509  -0.9485  -0.8349  -0.7873  -0.7278  -0.7172  -0.6675  -0.6181
 -0.5981  -0.5575  -0.5009  -0.4914  -0.4858  -0.4783  -0.4538  -0.4138
 -0.4129  -0.4046  -0.3935  -0.3843  -0.3719  -0.3693  -0.3609  -0.3551
 -0.3440  -0.3237  -0.3234  -0.2830  -0.2462  -0.2407  -0.2297  -0.2218
 -0.1959  -0.1375

          Ground-State Mulliken Net Atomic Charges

     Atom                 Charge (a.u.)
  ----------------------------------------
      1 O                    -0.316629
      2 C                    -0.396795
      3 C                     1.411229
      4 C                     1.416783
      5 C                    -0.386992
      6 O                    -0.315626
      7 C                    -1.467198
      8 C                    -0.766218
      9 O                    -0.411348
     10 C                     0.069280
     11 C                     0.072835
     12 C                    -0.757445
     13 O                    -0.411549
     14 C                    -1.463957
     15 H                     0.393919
     16 H                     0.286215
     17 H                     0.286390
     18 H                     0.393278
     19 H                     0.181816
     20 H                     0.182011
  ----------------------------------------
  Sum of atomic charges =    -2.000000

                    Cartesian Multipole Moments
 -----------------------------------------------------------------
    Charge (ESU x 10^10)
                -9.6064
    Dipole Moment (Debye)
         X      -2.7527      Y       1.1447      Z      -0.0296
       Tot       2.9814
    Quadrupole Moments (Debye-Ang)
        XX    -123.2217     XY     -11.7541     YY    -146.3881
        XZ       1.5567     YZ       4.4067     ZZ     -92.5630

 Total job time:  294.10s(wall), 2292.29s(cpu)
        *  Thank you very much for using Q-Chem.  Have a nice day.  *
