 Gaussian 16, Revision A.03,
 Gaussian 16:  ES64L-G16RevA.03 25-Dec-2016

 ----------------------------------------------------------------------
 #P UB3LYP/6-311++G(d,p) nosym opt freq SCRF=(PCM,Solvent=n,n-DiMethylF
 ormamide)
 ----------------------------------------------------------------------

 --------
 Oxidized
 --------
 Symbolic Z-matrix:
 Charge =  0 Multiplicity = 1

 SCF Done:  E(UB3LYP) =  -1239.97719097     A.U. after   17 cycles
 SCF Done:  E(UB3LYP) =  -1239.97730534     A.U. after   17 cycles
 SCF Done:  E(UB3LYP) =  -1239.97753229     A.U. after   18 cycles
 SCF Done:  E(UB3LYP) =  -1239.97770909     A.U. after   14 cycles
 SCF Done:  E(UB3LYP) =  -1239.97775667     A.U. after   14 cycles
 SCF Done:  E(UB3LYP) =  -1239.97775577     A.U. after   13 cycles
 SCF Done:  E(UB3LYP) =  -1239.97776635     A.U. after   13 cycles
 SCF Done:  E(UB3LYP) =  -1239.97777027     A.U. after   11 cycles
 SCF Done:  E(UB3LYP) =  -1239.97777102     A.U. after   12 cycles
 SCF Done:  E(UB3LYP) =  -1239.97777126     A.U. after   11 cycles
 SCF Done:  E(UB3LYP) =  -1239.97777805     A.U. after   12 cycles
 SCF Done:  E(UB3LYP) =  -1239.97777809     A.U. after   11 cycles
 SCF Done:  E(UB3LYP) =  -1239.97777817     A.U. after   11 cycles
 SCF Done:  E(UB3LYP) =  -1239.97777828     A.U. after   11 cycles
 SCF Done:  E(UB3LYP) =  -1239.97777843     A.U. after   11 cycles
 SCF Done:  E(UB3LYP) =  -1239.97777856     A.U. after   10 cycles
 SCF Done:  E(UB3LYP) =  -1239.97777871     A.U. after   11 cycles
 SCF Done:  E(UB3LYP) =  -1239.97777879     A.U. after   11 cycles
 SCF Done:  E(UB3LYP) =  -1239.97777883     A.U. after   11 cycles
 Optimization completed.
    -- Stationary point found.
 Normal termination of Gaussian 16 at Sat Feb 10 13:35:34 2024.

 ----------------------------------------------------------------------
 #P Geom=AllCheck Guess=TCheck SCRF=Check GenChk UB3LYP/6-311++G(d,p) F
 req
 ----------------------------------------------------------------------

 Structure from the checkpoint file:  "070.chk"
 --------
 Oxidized
 --------
 Charge =  0 Multiplicity = 1

                          Input orientation:
 ---------------------------------------------------------------------
 Center     Atomic      Atomic             Coordinates (Angstroms)
 Number     Number       Type             X           Y           Z
 ---------------------------------------------------------------------
      1          6           0        1.043145    1.715332   -0.531258
      2          6           0       -0.217151    1.218878    0.106257
      3          6           0       -0.505875   -0.106416    0.130134
      4          6           0        0.431189   -1.080089   -0.498346
      5          6           0        1.676159   -0.584223   -1.145587
      6          6           0        1.951943    0.719440   -1.165970
      7          8           0        1.328059    2.900983   -0.522092
      8          8           0        0.204136   -2.280831   -0.497536
      9         16           0        3.449705    1.278889   -2.041828
     10          6           0        4.484104    2.061630   -0.801508
     11          6           0        4.493335    3.451464   -0.702859
     12          6           0        5.275961    1.254567    0.016426
     13          6           0        6.093744    1.865008    0.963811
     14          6           0        5.323508    4.046563    0.244085
     15          6           0        6.117800    3.256014    1.075395
     16          8           0        3.046852    2.278207   -3.041186
     17          8           0        4.125976    0.051423   -2.492741
     18          1           0        3.867461    4.047369   -1.352756
     19          1           0        5.261381    0.177331   -0.090008
     20          1           0        5.349225    5.126090    0.330728
     21          1           0        2.328363   -1.325201   -1.592260
     22          1           0        6.716476    1.254956    1.606816
     23          6           0       -1.722436   -0.726883    0.752203
     24          6           0       -1.067222    2.307142    0.694841
     25          1           0        6.759429    3.725338    1.811962
     26          1           0       -2.360726    0.001658    1.243653
     27          1           0       -1.424492   -1.480429    1.485922
     28          1           0       -2.309896   -1.248967   -0.008525
     29          1           0       -1.282519    3.066300   -0.061151
     30          1           0       -0.527858    2.813989    1.500270
     31          1           0       -2.007628    1.933358    1.089469
 ---------------------------------------------------------------------

 SCF Done:  E(UB3LYP) =  -1239.97777883     A.U. after    2 cycles

 Alpha  occ. eigenvalues --  -89.07558 -19.15330 -19.15313 -19.13903 -19.13846
 Alpha  occ. eigenvalues --  -10.30381 -10.29813 -10.25059 -10.23619 -10.22962
 Alpha  occ. eigenvalues --  -10.22623 -10.22438 -10.20848 -10.20664 -10.20020
 Alpha  occ. eigenvalues --  -10.19820 -10.19773 -10.18041 -10.18019  -8.13931
 Alpha  occ. eigenvalues --   -6.10195  -6.10120  -6.10033  -1.13296  -1.08668
 Alpha  occ. eigenvalues --   -1.08278  -1.02781  -0.89132  -0.88537  -0.83831
 Alpha  occ. eigenvalues --   -0.79579  -0.77681  -0.76291  -0.73128  -0.70727
 Alpha  occ. eigenvalues --   -0.68175  -0.63556  -0.63028  -0.61241  -0.59233
 Alpha  occ. eigenvalues --   -0.55985  -0.55139  -0.52989  -0.50218  -0.49625
 Alpha  occ. eigenvalues --   -0.49242  -0.47731  -0.47577  -0.46765  -0.46664
 Alpha  occ. eigenvalues --   -0.45856  -0.45014  -0.44310  -0.43738  -0.42278
 Alpha  occ. eigenvalues --   -0.41827  -0.40914  -0.40464  -0.39901  -0.39214
 Alpha  occ. eigenvalues --   -0.38692  -0.37406  -0.36399  -0.35072  -0.33768
 Alpha  occ. eigenvalues --   -0.32788  -0.32709  -0.30530  -0.29429  -0.28751
 Alpha  occ. eigenvalues --   -0.28331  -0.28075
 Alpha virt. eigenvalues --   -0.14803  -0.06538  -0.04041  -0.03561  -0.01857
 Alpha virt. eigenvalues --   -0.01068  -0.00329   0.00597   0.01220   0.01770
 Alpha virt. eigenvalues --    0.02354   0.02695   0.02879   0.03334   0.03833

  Beta  occ. eigenvalues --  -89.07558 -19.15330 -19.15313 -19.13903 -19.13846
  Beta  occ. eigenvalues --  -10.30381 -10.29813 -10.25059 -10.23619 -10.22962
  Beta  occ. eigenvalues --  -10.22623 -10.22438 -10.20848 -10.20664 -10.20020
  Beta  occ. eigenvalues --  -10.19820 -10.19773 -10.18041 -10.18019  -8.13931
  Beta  occ. eigenvalues --   -6.10195  -6.10120  -6.10033  -1.13296  -1.08668
  Beta  occ. eigenvalues --   -1.08278  -1.02781  -0.89132  -0.88537  -0.83831
  Beta  occ. eigenvalues --   -0.79579  -0.77681  -0.76291  -0.73128  -0.70727
  Beta  occ. eigenvalues --   -0.68175  -0.63556  -0.63028  -0.61241  -0.59233
  Beta  occ. eigenvalues --   -0.55985  -0.55139  -0.52989  -0.50218  -0.49625
  Beta  occ. eigenvalues --   -0.49242  -0.47731  -0.47577  -0.46765  -0.46664
  Beta  occ. eigenvalues --   -0.45856  -0.45014  -0.44310  -0.43738  -0.42278
  Beta  occ. eigenvalues --   -0.41827  -0.40914  -0.40464  -0.39901  -0.39214
  Beta  occ. eigenvalues --   -0.38692  -0.37406  -0.36399  -0.35072  -0.33768
  Beta  occ. eigenvalues --   -0.32788  -0.32709  -0.30530  -0.29429  -0.28751
  Beta  occ. eigenvalues --   -0.28331  -0.28075
  Beta virt. eigenvalues --   -0.14803  -0.06538  -0.04041  -0.03561  -0.01857
  Beta virt. eigenvalues --   -0.01068  -0.00329   0.00597   0.01220   0.01770
  Beta virt. eigenvalues --    0.02354   0.02695   0.02879   0.03334   0.03833

 Mulliken charges and spin densities:
               1          2
     1  C   -0.499673  -0.000000
     2  C   -0.210604  -0.000000
     3  C    0.690040   0.000000
     4  C   -0.700885   0.000000
     5  C    0.078976   0.000000
     6  C    0.311571  -0.000000
     7  O   -0.200199   0.000000
     8  O   -0.241573   0.000000
     9  S    0.499062   0.000000
    10  C    0.595585  -0.000000
    11  C   -0.238401  -0.000000
    12  C   -0.083003   0.000000
    13  C   -0.507278  -0.000000
    14  C   -0.387307  -0.000000
    15  C   -0.320730   0.000000
    16  O   -0.198371  -0.000000
    17  O   -0.197404   0.000000
    18  H    0.264833  -0.000000
    19  H    0.250800   0.000000
    20  H    0.222861   0.000000
    21  H    0.282626  -0.000000
    22  H    0.218143  -0.000000
    23  C   -0.351606   0.000000
    24  C   -0.534959   0.000000
    25  H    0.199886   0.000000
    26  H    0.137606   0.000000
    27  H    0.190353   0.000000
    28  H    0.196193   0.000000
    29  H    0.192666   0.000000
    30  H    0.202426   0.000000
    31  H    0.138367   0.000000
 Sum of Mulliken charges =   0.00000  -0.00000

 Dipole moment (field-independent basis, Debye):
    X=             -1.6208    Y=              1.5841    Z=              7.6452  Tot=              7.9740
 Quadrupole moment (field-independent basis, Debye-Ang):
   XX=           -102.7286   YY=           -122.6248   ZZ=           -134.8516
   XY=              5.8902   XZ=             28.1384   YZ=             11.2610

  Exact polarizability: 254.559  42.598 346.497  11.457  10.594 206.852
 Approx polarizability: 263.611  40.698 458.358  22.543   4.400 237.958

                      1                      2                      3
                      A                      A                      A
 Frequencies --     21.4282                28.5326                34.8559
 Red. masses --      4.0362                 3.8447                 2.2371
 Frc consts  --      0.0011                 0.0018                 0.0016
 IR Inten    --      0.3719                 0.7563                 1.6940

                      4                      5                      6
                      A                      A                      A
 Frequencies --     37.6479                69.5249                74.6398
 Red. masses --      2.1324                 3.8897                 1.1724
 Frc consts  --      0.0018                 0.0111                 0.0038
 IR Inten    --      1.3565                 3.0778                 1.9565

                      7                      8                      9
                      A                      A                      A
 Frequencies --    108.9909               132.6158               141.6179
 Red. masses --      2.4285                 6.5450                 7.4426
 Frc consts  --      0.0170                 0.0678                 0.0879
 IR Inten    --      0.0277                17.9710                 1.9019

                     10                     11                     12
                      A                      A                      A
 Frequencies --    176.2594               203.5447               232.6099
 Red. masses --      6.6064                 5.4566                 9.0907
 Frc consts  --      0.1209                 0.1332                 0.2898
 IR Inten    --      1.1428                 1.0497                 2.7466

                     13                     14                     15
                      A                      A                      A
 Frequencies --    260.0775               271.7261               302.3446
 Red. masses --      3.4838                10.6270                 8.2767
 Frc consts  --      0.1388                 0.4623                 0.4458
 IR Inten    --      0.5301                 0.4361                 4.3646

                     16                     17                     18
                      A                      A                      A
 Frequencies --    321.6817               354.4809               362.0983
 Red. masses --      3.9217                 6.2555                 2.8060
 Frc consts  --      0.2391                 0.4631                 0.2168
 IR Inten    --      3.6399                 4.3816                 3.0558

                     19                     20                     21
                      A                      A                      A
 Frequencies --    405.6042               408.1000               421.6406
 Red. masses --      8.5976                 2.8770                 8.2579
 Frc consts  --      0.8334                 0.2823                 0.8650
 IR Inten    --     41.6105                 0.6283                 1.1334

                     22                     23                     24
                      A                      A                      A
 Frequencies --    447.2865               461.4204               484.2623
 Red. masses --      5.6844                 6.2964                 3.9284
 Frc consts  --      0.6700                 0.7898                 0.5428
 IR Inten    --     19.1909                 5.5602                 8.4739

                     25                     26                     27
                      A                      A                      A
 Frequencies --    492.0627               530.4352               581.5866
 Red. masses --      6.6511                 8.2072                 7.9004
 Frc consts  --      0.9488                 1.3605                 1.5745
 IR Inten    --     22.5174                99.0911               291.7357

                     28                     29                     30
                      A                      A                      A
 Frequencies --    624.5527               649.4950               686.5466
 Red. masses --      6.4548                 4.3180                 5.3702
 Frc consts  --      1.4834                 1.0732                 1.4914
 IR Inten    --      0.0746                 7.3680                18.4453

                     31                     32                     33
                      A                      A                      A
 Frequencies --    695.5468               696.6088               721.8074
 Red. masses --      2.1424                 4.7900                 6.7951
 Frc consts  --      0.6107                 1.3695                 2.0859
 IR Inten    --     62.4287                24.4164               105.5165

                     34                     35                     36
                      A                      A                      A
 Frequencies --    762.7545               790.6705               805.1104
 Red. masses --      1.6110                 6.2279                 5.0464
 Frc consts  --      0.5522                 2.2940                 1.9273
 IR Inten    --     35.9297                17.1743                24.3573

                     37                     38                     39
                      A                      A                      A
 Frequencies --    850.9814               854.1986               942.6407
 Red. masses --      1.2486                 3.0397                 1.4143
 Frc consts  --      0.5327                 1.3068                 0.7405
 IR Inten    --      0.0643                26.1852                14.5627

                     40                     41                     42
                      A                      A                      A
 Frequencies --    946.2903               954.4251               996.7029
 Red. masses --      1.3482                 2.0821                 1.3793
 Frc consts  --      0.7113                 1.1174                 0.8073
 IR Inten    --      4.2503                13.0588                 0.1085

                     43                     44                     45
                      A                      A                      A
 Frequencies --   1011.6472              1020.4586              1030.0236
 Red. masses --      6.2638                 1.3215                 1.4956
 Frc consts  --      3.7770                 0.8108                 0.9349
 IR Inten    --     15.0505                 0.1060                 0.7695

                     46                     47                     48
                      A                      A                      A
 Frequencies --   1034.9597              1057.2578              1059.0397
 Red. masses --      4.2299                 3.2257                 1.5903
 Frc consts  --      2.6695                 2.1244                 1.0509
 IR Inten    --     49.4882               120.5739                 0.2524

                     49                     50                     51
                      A                      A                      A
 Frequencies --   1093.1037              1100.2240              1103.3907
 Red. masses --      2.3063                 1.5804                 4.2852
 Frc consts  --      1.6237                 1.1271                 3.0738
 IR Inten    --    118.1659                19.6328               223.1524

                     52                     53                     54
                      A                      A                      A
 Frequencies --   1114.5554              1141.1906              1182.4666
 Red. masses --      2.2469                 2.8950                 1.1106
 Frc consts  --      1.6445                 2.2214                 0.9149
 IR Inten    --     55.5577                56.1855                 0.4287

                     55                     56                     57
                      A                      A                      A
 Frequencies --   1195.5988              1235.0888              1242.4185
 Red. masses --      1.1571                15.5842                 4.9949
 Frc consts  --      0.9745                14.0065                 4.5427
 IR Inten    --      3.9759               348.0614               229.4509

                     58                     59                     60
                      A                      A                      A
 Frequencies --   1311.9892              1330.8220              1343.4269
 Red. masses --      2.5560                 2.8738                 3.2687
 Frc consts  --      2.5922                 2.9988                 3.4758
 IR Inten    --    126.4804                 0.0902                19.6373

                     61                     62                     63
                      A                      A                      A
 Frequencies --   1344.4542              1406.5470              1412.3082
 Red. masses --      1.9581                 1.3762                 1.1942
 Frc consts  --      2.0853                 1.6041                 1.4034
 IR Inten    --      2.3980                45.1652                 5.9342

                     64                     65                     66
                      A                      A                      A
 Frequencies --   1462.6079              1463.3632              1465.5785
 Red. masses --      1.0520                 1.0455                 1.0430
 Frc consts  --      1.3259                 1.3191                 1.3200
 IR Inten    --     17.4604                 2.2929                26.0344

                     67                     68                     69
                      A                      A                      A
 Frequencies --   1475.3198              1481.2659              1503.4733
 Red. masses --      2.1268                 1.1105                 2.0080
 Frc consts  --      2.7274                 1.4356                 2.6743
 IR Inten    --     27.6525                 5.7264                 3.9768

                     70                     71                     72
                      A                      A                      A
 Frequencies --   1616.2394              1621.4073              1648.9401
 Red. masses --      5.3662                 5.7844                 7.2976
 Frc consts  --      8.2590                 8.9596                11.6907
 IR Inten    --      7.8904                 0.0880                83.0605

                     73                     74                     75
                      A                      A                      A
 Frequencies --   1686.7658              1692.7765              1704.4079
 Red. masses --      9.3711                11.5473                11.4844
 Frc consts  --     15.7091                19.4954                19.6565
 IR Inten    --     38.9295              1025.7223                75.0673

                     76                     77                     78
                      A                      A                      A
 Frequencies --   3042.1028              3044.2905              3087.0122
 Red. masses --      1.0408                 1.0425                 1.0986
 Frc consts  --      5.6751                 5.6926                 6.1684
 IR Inten    --      9.1369                 6.9087                10.4564

                     79                     80                     81
                      A                      A                      A
 Frequencies --   3089.1614              3153.1708              3168.6126
 Red. masses --      1.0980                 1.0996                 1.0944
 Frc consts  --      6.1737                 6.4415                 6.4737
 IR Inten    --     10.0839                 2.7823                28.4834

                     82                     83                     84
                      A                      A                      A
 Frequencies --   3178.3893              3188.6776              3196.4975
 Red. masses --      1.0870                 1.0899                 1.0941
 Frc consts  --      6.4701                 6.5290                 6.5863
 IR Inten    --      0.8252                11.6119                10.3552

                     85                     86                     87
                      A                      A                      A
 Frequencies --   3201.6144              3205.0139              3219.3587
 Red. masses --      1.0930                 1.0960                 1.0935
 Frc consts  --      6.6011                 6.6329                 6.6773
 IR Inten    --      7.8418                 7.7087                 3.9143

 - Thermochemistry -
 -------------------
 Temperature   298.150 Kelvin.  Pressure   1.00000 Atm.
 Atom     1 has atomic number  6 and mass  12.00000

 Molecular mass:   276.04563 amu.
 Principal axes and moments of inertia in atomic units:
                           1         2         3
     Eigenvalues --  3007.468297825.769738622.93825
           X            0.89293  -0.33913   0.29609
           Y            0.44693   0.74692  -0.49231
           Z           -0.05420   0.57193   0.81851
 This molecule is an asymmetric top.
 Rotational symmetry number  1.
 Warning -- assumption of classical behavior for rotation
           may cause significant error
 Rotational temperatures (Kelvin)      0.02880     0.01107     0.01004
 Rotational constants (GHZ):           0.60009     0.23062     0.20930
 Zero-point vibrational energy     602394.1 (Joules/Mol)
                                  143.97564 (Kcal/Mol)
 Warning -- explicit consideration of  27 degrees of freedom as
           vibrations may cause significant error
 Vibrational temperatures:     30.83    41.05    50.15    54.17   100.03
          (Kelvin)            107.39   156.81   190.80   203.76   253.60
                              292.86   334.67   374.19   390.95   435.01
                              462.83   510.02   520.98   583.57   587.16
                              606.65   643.55   663.88   696.75   707.97
                              763.18   836.77   898.59   934.48   987.79
                             1000.74  1002.26  1038.52  1097.43  1137.60
                             1158.37  1224.37  1229.00  1356.25  1361.50
                             1373.20  1434.03  1455.53  1468.21  1481.97
                             1489.08  1521.16  1523.72  1572.73  1582.98
                             1587.53  1603.60  1641.92  1701.31  1720.20
                             1777.02  1787.56  1887.66  1914.76  1932.89
                             1934.37  2023.71  2032.00  2104.37  2105.45
                             2108.64  2122.66  2131.21  2163.16  2325.41
                             2332.84  2372.46  2426.88  2435.53  2452.26
                             4376.91  4380.05  4441.52  4444.61  4536.71
                             4558.93  4572.99  4587.80  4599.05  4606.41
                             4611.30  4631.94

 Zero-point correction=                           0.229440 (Hartree/Particle)
 Thermal correction to Energy=                    0.247530
 Thermal correction to Enthalpy=                  0.248474
 Thermal correction to Gibbs Free Energy=         0.180593
 Sum of electronic and zero-point Energies=          -1239.748339
 Sum of electronic and thermal Energies=             -1239.730249
 Sum of electronic and thermal Enthalpies=           -1239.729305
 Sum of electronic and thermal Free Energies=        -1239.797186

                     E (Thermal)             CV                S
                      KCal/Mol        Cal/Mol-Kelvin    Cal/Mol-Kelvin
 Total                  155.327             66.580            142.867
 Electronic               0.000              0.000              0.000
 Translational            0.889              2.981             42.745
 Rotational               0.889              2.981             33.673
 Vibrational            153.550             60.619             66.450
 Vibration     1          0.593              1.985              6.497
 Vibration     2          0.593              1.984              5.929
 Vibration     3          0.594              1.983              5.532
 Vibration     4          0.594              1.982              5.379
 Vibration     5          0.598              1.969              4.167
 Vibration     6          0.599              1.966              4.027
 Vibration     7          0.606              1.942              3.287
 Vibration     8          0.613              1.921              2.908
 Vibration     9          0.615              1.912              2.782
 Vibration    10          0.628              1.872              2.368
 Vibration    11          0.639              1.835              2.101
 Vibration    12          0.653              1.791              1.859
 Vibration    13          0.668              1.746              1.661
 Vibration    14          0.675              1.725              1.585
 Vibration    15          0.694              1.669              1.404
 Vibration    16          0.707              1.632              1.302
 Vibration    17          0.730              1.566              1.146
 Vibration    18          0.736              1.550              1.113
 Vibration    19          0.771              1.458              0.942
 Vibration    20          0.773              1.453              0.933
 Vibration    21          0.784              1.423              0.886
 Vibration    22          0.806              1.367              0.804
 Vibration    23          0.819              1.336              0.762
 Vibration    24          0.840              1.285              0.699
 Vibration    25          0.848              1.268              0.678
 Vibration    26          0.885              1.183              0.586
 Vibration    27          0.938              1.071              0.482

 Optimization completed.
    -- Stationary point found.
 Normal termination of Gaussian 16 at Sat Feb 10 15:17:55 2024.
