 Gaussian 16, Revision A.03,
 Gaussian 16:  ES64L-G16RevA.03 25-Dec-2016

 --------------------------------------
 #P UB3LYP/6-311++G(d,p) nosym opt freq
 --------------------------------------

 -------
 Radical
 -------
 Symbolic Z-matrix:
 Charge = -1 Multiplicity = 2

 SCF Done:  E(UB3LYP) =  -1305.34768910     A.U. after   24 cycles
 Optimization completed.
    -- Stationary point found.
 Normal termination of Gaussian 16 at Mon Jan  8 22:00:18 2024.

 ----------------------------------------------------------------------
 #P Geom=AllCheck Guess=TCheck SCRF=Check GenChk UB3LYP/6-311++G(d,p) F
 req
 ----------------------------------------------------------------------

 Structure from the checkpoint file:  "293-rad.chk"
 -------
 Radical
 -------
 Charge = -1 Multiplicity = 2

                          Input orientation:
 ---------------------------------------------------------------------
 Center     Atomic      Atomic             Coordinates (Angstroms)
 Number     Number       Type             X           Y           Z
 ---------------------------------------------------------------------
      1          6           0       -0.068373    0.749827   -1.021219
      2          6           0       -0.967423   -0.123609   -0.437990
      3          6           0       -0.520702   -1.358385    0.074378
      4          6           0        1.301796    0.422655   -1.113416
      5          6           0        1.755137   -0.824653   -0.595933
      6          6           0        0.820817   -1.694729   -0.007495
      7          6           0        2.242451    1.338331   -1.724076
      8          6           0        3.623101    0.915594   -1.772209
      9          6           0        4.093038   -0.287508   -1.289528
     10          6           0        3.178500   -1.217710   -0.664017
     11          8           0        1.946030    2.476321   -2.215909
     12          8           0        3.570591   -2.318956   -0.196146
     13          8           0        4.451492    1.829381   -2.356600
     14          1           0       -0.388004    1.705049   -1.422273
     15          1           0       -2.018908    0.141157   -0.373930
     16          1           0       -1.227683   -2.043784    0.532225
     17          1           0        1.192151   -2.637132    0.379000
     18          1           0        3.824057    2.548123   -2.593508
     19          6           0        5.550737   -0.658793   -1.374478
     20          6           0        6.325115   -0.354308   -0.077801
     21          1           0        6.018303   -0.125398   -2.208073
     22          1           0        5.619603   -1.733756   -1.571191
     23          1           0        5.830488   -0.874760    0.748925
     24          1           0        6.261563    0.719874    0.134162
     25          6           0        7.795504   -0.777533   -0.145661
     26          6           0        8.566410   -0.486537    1.158038
     27          6           0       10.017295   -0.904803    1.103541
     28          6           0       11.011765   -0.016457    0.675956
     29          6           0       10.407637   -2.205532    1.445584
     30          6           0       11.738082   -2.611568    1.361149
     31          6           0       12.700492   -1.707582    0.925828
     32          6           0       12.346760   -0.406444    0.586763
     33          8           0       14.043474   -2.086356    0.910587
     34          6           0       14.596246   -2.588550   -0.243010
     35          6           0       13.884646   -2.787771   -1.427300
     36          6           0       15.955948   -2.909025   -0.176521
     37          6           0       16.598851   -3.426955   -1.294577
     38          6           0       14.545171   -3.308449   -2.540888
     39          6           0       15.898637   -3.630546   -2.485663
     40          1           0        8.293243   -0.263563   -0.977919
     41          1           0        7.857949   -1.850387   -0.365706
     42          1           0        8.067934   -1.002953    1.985434
     43          1           0        8.503906    0.585056    1.376782
     44          1           0       10.737838    1.000535    0.413868
     45          1           0        9.658067   -2.911685    1.788142
     46          1           0       12.035937   -3.617050    1.635361
     47          1           0       13.113185    0.288943    0.264196
     48          1           0       12.832450   -2.541062   -1.479600
     49          1           0       16.484472   -2.744976    0.755005
     50          1           0       17.653640   -3.672870   -1.235120
     51          1           0       13.987206   -3.461423   -3.458214
     52          1           0       16.402267   -4.034362   -3.356176
 ---------------------------------------------------------------------

 SCF Done:  E(UB3LYP) =  -1305.34768910     A.U. after    2 cycles

 Alpha  occ. eigenvalues --  -19.11112 -19.02175 -18.95909 -18.94639 -10.19249
 Alpha  occ. eigenvalues --  -10.17831 -10.13369 -10.13248 -10.12720 -10.12643
 Alpha  occ. eigenvalues --  -10.12546 -10.12344 -10.12326 -10.12313 -10.11996
 Alpha  occ. eigenvalues --  -10.11950 -10.09947 -10.09882 -10.09791 -10.09521
 Alpha  occ. eigenvalues --  -10.08131 -10.06082 -10.06053 -10.05911 -10.05488
 Alpha  occ. eigenvalues --  -10.05404 -10.05313 -10.05179 -10.05072 -10.04144
 Alpha  occ. eigenvalues --   -1.02929  -0.94095  -0.87152  -0.86895  -0.81645
 Alpha  occ. eigenvalues --   -0.80298  -0.74006  -0.73411  -0.70816  -0.70477
 Alpha  occ. eigenvalues --   -0.69834  -0.69171  -0.67289  -0.64266  -0.63315
 Alpha  occ. eigenvalues --   -0.61160  -0.58245  -0.56756  -0.56469  -0.55679
 Alpha  occ. eigenvalues --   -0.53831  -0.52178  -0.50211  -0.50004  -0.49170
 Alpha  occ. eigenvalues --   -0.46964  -0.45738  -0.44987  -0.43179  -0.42985
 Alpha  occ. eigenvalues --   -0.41865  -0.41718  -0.40041  -0.39123  -0.38650
 Alpha  occ. eigenvalues --   -0.38088  -0.38043  -0.37187  -0.36333  -0.35327
 Alpha  occ. eigenvalues --   -0.35182  -0.34481  -0.34004  -0.33105  -0.32285
 Alpha  occ. eigenvalues --   -0.31986  -0.31651  -0.30941  -0.30803  -0.30477
 Alpha  occ. eigenvalues --   -0.29920  -0.29256  -0.28643  -0.28032  -0.27787
 Alpha  occ. eigenvalues --   -0.27451  -0.26424  -0.26245  -0.25566  -0.25186
 Alpha  occ. eigenvalues --   -0.24400  -0.23374  -0.22867  -0.22288  -0.21682
 Alpha  occ. eigenvalues --   -0.21491  -0.21430  -0.20483  -0.18430  -0.18207
 Alpha  occ. eigenvalues --   -0.14551  -0.13868  -0.13255  -0.11185  -0.10768
 Alpha  occ. eigenvalues --   -0.02589
 Alpha virt. eigenvalues --    0.02527   0.03694   0.04040   0.04297   0.04422
 Alpha virt. eigenvalues --    0.05475   0.05544   0.06445   0.07074   0.07746
 Alpha virt. eigenvalues --    0.08099   0.08473   0.08586   0.08955   0.09545

  Beta  occ. eigenvalues --  -19.11112 -19.02132 -18.95236 -18.94081 -10.19249
  Beta  occ. eigenvalues --  -10.17831 -10.13369 -10.13248 -10.12720 -10.12643
  Beta  occ. eigenvalues --  -10.12546 -10.12344 -10.12326 -10.12313 -10.11996
  Beta  occ. eigenvalues --  -10.11950 -10.09881 -10.09847 -10.09692 -10.09259
  Beta  occ. eigenvalues --  -10.08130 -10.06077 -10.06045 -10.05813 -10.05448
  Beta  occ. eigenvalues --  -10.05371 -10.05354 -10.05079 -10.05051 -10.04064
  Beta  occ. eigenvalues --   -1.02929  -0.93896  -0.86196  -0.85761  -0.81645
  Beta  occ. eigenvalues --   -0.80297  -0.73779  -0.73408  -0.70799  -0.70460
  Beta  occ. eigenvalues --   -0.69834  -0.68986  -0.67096  -0.64108  -0.63121
  Beta  occ. eigenvalues --   -0.61066  -0.58162  -0.56727  -0.56467  -0.55291
  Beta  occ. eigenvalues --   -0.53401  -0.52117  -0.50095  -0.50003  -0.49022
  Beta  occ. eigenvalues --   -0.46770  -0.45735  -0.44748  -0.43179  -0.42985
  Beta  occ. eigenvalues --   -0.41788  -0.41633  -0.40041  -0.39121  -0.38467
  Beta  occ. eigenvalues --   -0.38086  -0.38001  -0.37179  -0.36115  -0.35264
  Beta  occ. eigenvalues --   -0.35173  -0.34400  -0.33896  -0.33047  -0.32280
  Beta  occ. eigenvalues --   -0.31804  -0.31619  -0.30888  -0.30558  -0.30107
  Beta  occ. eigenvalues --   -0.29584  -0.28983  -0.28309  -0.28008  -0.27562
  Beta  occ. eigenvalues --   -0.27176  -0.26087  -0.25616  -0.25308  -0.24940
  Beta  occ. eigenvalues --   -0.24202  -0.22930  -0.22198  -0.21525  -0.21428
  Beta  occ. eigenvalues --   -0.21298  -0.20486  -0.20326  -0.18419  -0.18203
  Beta  occ. eigenvalues --   -0.13194  -0.12653  -0.12468  -0.10643  -0.09736
  Beta virt. eigenvalues --    0.02527   0.03692   0.03953   0.04042   0.04314
  Beta virt. eigenvalues --    0.04427   0.05475   0.05543   0.06444   0.07073
  Beta virt. eigenvalues --    0.07747   0.08092   0.08494   0.08951   0.09206

 Mulliken charges and spin densities:
               1          2
     1  C    0.075248   0.067150
     2  C   -0.308906   0.001444
     3  C   -0.362418   0.079191
     4  C    0.453404   0.010090
     5  C    0.138134   0.078598
     6  C    0.098428  -0.007546
     7  C   -1.123329   0.139949
     8  C   -0.619899   0.064783
     9  C    2.228032   0.055280
    10  C   -0.959492   0.047673
    11  O   -0.448005   0.247712
    12  O   -0.359287   0.208428
    13  O   -0.256793   0.015370
    14  H    0.157123  -0.003793
    15  H    0.124737  -0.000778
    16  H    0.121560  -0.005880
    17  H    0.158980   0.000099
    18  H    0.267234  -0.004311
    19  C   -0.459999   0.009348
    20  C   -0.847118  -0.006038
    21  H    0.220426  -0.001633
    22  H    0.211064   0.003465
    23  H    0.174082  -0.002343
    24  H    0.144480   0.002968
    25  C   -0.180810   0.002334
    26  C   -0.962339  -0.001727
    27  C    1.392217  -0.001323
    28  C   -0.352328  -0.000397
    29  C   -0.284870   0.000750
    30  C    0.035906  -0.000579
    31  C   -0.563518   0.000276
    32  C    0.042916   0.000283
    33  O   -0.026341  -0.000005
    34  C   -0.275376   0.000057
    35  C    0.006399   0.000102
    36  C   -0.173589  -0.000097
    37  C   -0.142293  -0.000009
    38  C   -0.137426  -0.000003
    39  C   -0.271416   0.000001
    40  H    0.110906   0.000350
    41  H    0.119405   0.000913
    42  H    0.161375   0.000071
    43  H    0.157986  -0.000294
    44  H    0.174635  -0.000011
    45  H    0.182655   0.000074
    46  H    0.179344  -0.000004
    47  H    0.176618   0.000026
    48  H    0.161762  -0.000020
    49  H    0.157214   0.000006
    50  H    0.159744  -0.000001
    51  H    0.188180  -0.000000
    52  H    0.135361   0.000002
 Sum of Mulliken charges =  -1.00000   1.00000

 Dipole moment (field-independent basis, Debye):
    X=            -17.3037    Y=              0.8191    Z=              4.7324  Tot=             17.9579
 Quadrupole moment (field-independent basis, Debye-Ang):
   XX=           -311.2684   YY=           -203.9368   ZZ=           -193.8401
   XY=             17.9696   XZ=              4.4956   YZ=              9.5758

  Exact polarizability: 500.362 -43.795 309.224 -28.669 -31.504 255.663
 Approx polarizability: 640.091 -41.015 555.811 -36.332 -81.544 422.269

                      1                      2                      3
                      A                      A                      A
 Frequencies --      5.6484                12.4428                15.1156
 Red. masses --      6.1310                 5.4519                 5.4763
 Frc consts  --      0.0001                 0.0005                 0.0007
 IR Inten    --      0.1222                 0.0078                 0.4030

                      4                      5                      6
                      A                      A                      A
 Frequencies --     16.3210                26.2861                32.1502
 Red. masses --      4.6315                 4.2682                 6.5880
 Frc consts  --      0.0007                 0.0017                 0.0040
 IR Inten    --      0.1105                 1.2440                 1.0848

                      7                      8                      9
                      A                      A                      A
 Frequencies --     47.8385                74.9252                89.1738
 Red. masses --      3.7213                 5.6925                 7.8249
 Frc consts  --      0.0050                 0.0188                 0.0367
 IR Inten    --      0.1684                 2.3173                 4.9131

                     10                     11                     12
                      A                      A                      A
 Frequencies --    102.6906               114.1105               117.7972
 Red. masses --      2.5018                 5.6758                 1.8858
 Frc consts  --      0.0155                 0.0435                 0.0154
 IR Inten    --      0.5507                 0.4439                 0.1886

                     13                     14                     15
                      A                      A                      A
 Frequencies --    149.4568               160.3001               180.3921
 Red. masses --      6.0006                 5.9257                 7.5110
 Frc consts  --      0.0790                 0.0897                 0.1440
 IR Inten    --      0.4252                 0.0779                 1.2866

                     16                     17                     18
                      A                      A                      A
 Frequencies --    202.9088               249.0243               256.3255
 Red. masses --      4.3739                 4.5411                 5.1176
 Frc consts  --      0.1061                 0.1659                 0.1981
 IR Inten    --      0.0581                 0.8281                 2.2498

                     19                     20                     21
                      A                      A                      A
 Frequencies --    270.3041               297.5995               310.8085
 Red. masses --      4.6681                 2.9560                 5.0256
 Frc consts  --      0.2010                 0.1542                 0.2860
 IR Inten    --      1.0322                 1.4857                 2.2952

                     22                     23                     24
                      A                      A                      A
 Frequencies --    316.7086               349.1311               372.6328
 Red. masses --      3.0343                 5.8025                 4.8273
 Frc consts  --      0.1793                 0.4167                 0.3949
 IR Inten    --      0.8636                11.6811                 1.5292

                     25                     26                     27
                      A                      A                      A
 Frequencies --    377.3207               405.2603               421.7832
 Red. masses --      9.6754                 5.3619                 3.0176
 Frc consts  --      0.8116                 0.5188                 0.3163
 IR Inten    --     11.5301                 0.8331                 0.0359

                     28                     29                     30
                      A                      A                      A
 Frequencies --    422.7785               427.1234               428.7692
 Red. masses --      3.4751                 6.3921                 3.4736
 Frc consts  --      0.3660                 0.6871                 0.3763
 IR Inten    --      1.3431                 1.9975                 1.5084

                     31                     32                     33
                      A                      A                      A
 Frequencies --    431.4981               452.8763               483.5766
 Red. masses --      7.9398                 3.7940                 5.8506
 Frc consts  --      0.8710                 0.4585                 0.8061
 IR Inten    --      1.9524                 2.3424                 6.8570

                     34                     35                     36
                      A                      A                      A
 Frequencies --    508.5204               511.3123               533.1018
 Red. masses --      3.9413                 2.9268                 6.1784
 Frc consts  --      0.6005                 0.4508                 1.0345
 IR Inten    --     15.2623                 7.7472                 0.6083

                     37                     38                     39
                      A                      A                      A
 Frequencies --    559.4822               575.8917               622.1761
 Red. masses --      6.4125                 6.0821                 4.0004
 Frc consts  --      1.1826                 1.1885                 0.9124
 IR Inten    --      0.6977                 1.3225                 5.2329

                     40                     41                     42
                      A                      A                      A
 Frequencies --    633.5588               645.2279               653.3199
 Red. masses --      4.6775                 5.7000                 6.8612
 Frc consts  --      1.1062                 1.3981                 1.7254
 IR Inten    --      6.1244                17.0208                 0.0040

                     43                     44                     45
                      A                      A                      A
 Frequencies --    676.2362               699.0421               701.4089
 Red. masses --      5.7620                 3.1823                 2.2020
 Frc consts  --      1.5525                 0.9162                 0.6383
 IR Inten    --      2.3489                 2.5642                21.3093

                     46                     47                     48
                      A                      A                      A
 Frequencies --    705.3596               712.2473               723.8042
 Red. masses --      3.3251                 4.7923                 4.2348
 Frc consts  --      0.9747                 1.4324                 1.3071
 IR Inten    --     17.9228                 2.6462                 1.3832

                     49                     50                     51
                      A                      A                      A
 Frequencies --    735.1376               735.4207               760.0494
 Red. masses --      1.1742                 1.1294                 1.6227
 Frc consts  --      0.3739                 0.3599                 0.5523
 IR Inten    --     19.2092               107.2278                59.8011

                     52                     53                     54
                      A                      A                      A
 Frequencies --    761.2405               774.7470               780.4227
 Red. masses --      2.5482                 1.4534                 2.9204
 Frc consts  --      0.8700                 0.5140                 1.0480
 IR Inten    --      9.4092                 0.9586                 6.1012

                     55                     56                     57
                      A                      A                      A
 Frequencies --    786.6841               819.0426               833.0371
 Red. masses --      3.6121                 3.5417                 1.2491
 Frc consts  --      1.3171                 1.3998                 0.5107
 IR Inten    --      0.2703                 5.8738                 0.3778

                     58                     59                     60
                      A                      A                      A
 Frequencies --    837.0297               859.9211               863.3469
 Red. masses --      1.2519                 2.3650                 1.3938
 Frc consts  --      0.5168                 1.0304                 0.6121
 IR Inten    --      0.0303                13.4435                 0.1899

                     61                     62                     63
                      A                      A                      A
 Frequencies --    871.6181               885.4586               898.7437
 Red. masses --      2.2098                 6.3320                 1.4571
 Frc consts  --      0.9891                 2.9250                 0.6935
 IR Inten    --     33.7539                46.1925                 4.9074

                     64                     65                     66
                      A                      A                      A
 Frequencies --    928.4920               946.6338               960.2230
 Red. masses --      1.9507                 4.7768                 1.4432
 Frc consts  --      0.9908                 2.5221                 0.7840
 IR Inten    --      5.6913                22.7470                 2.2807

                     67                     68                     69
                      A                      A                      A
 Frequencies --    970.2370               971.6126               976.3491
 Red. masses --      1.3167                 1.3400                 1.3556
 Frc consts  --      0.7303                 0.7453                 0.7613
 IR Inten    --      1.4580                 0.0882                 0.0050

                     70                     71                     72
                      A                      A                      A
 Frequencies --    978.8406               982.6275              1000.8935
 Red. masses --      1.2930                 1.2578                 4.2129
 Frc consts  --      0.7299                 0.7156                 2.4866
 IR Inten    --      0.9420                 0.0093                14.7316

                     73                     74                     75
                      A                      A                      A
 Frequencies --   1012.1123              1033.9963              1037.1782
 Red. masses --      5.9770                 2.6471                 2.2542
 Frc consts  --      3.6074                 1.6675                 1.4287
 IR Inten    --      1.5881                14.7570                22.7409

                     76                     77                     78
                      A                      A                      A
 Frequencies --   1042.6897              1043.0104              1047.0169
 Red. masses --      2.5305                 2.0688                 2.5557
 Frc consts  --      1.6209                 1.3260                 1.6507
 IR Inten    --      4.1528                 9.6076                 6.6909

                     79                     80                     81
                      A                      A                      A
 Frequencies --   1056.6737              1086.2240              1099.7010
 Red. masses --      5.5351                 1.6823                 1.4883
 Frc consts  --      3.6413                 1.1695                 1.0605
 IR Inten    --      5.1603                35.2921                 7.0853

                     82                     83                     84
                      A                      A                      A
 Frequencies --   1107.3957              1124.6730              1146.3104
 Red. masses --      2.0643                 1.5433                 1.3909
 Frc consts  --      1.4915                 1.1501                 1.0769
 IR Inten    --      5.2844                 6.9424                29.2100

                     85                     86                     87
                      A                      A                      A
 Frequencies --   1151.2840              1175.2921              1180.4085
 Red. masses --      1.2968                 1.1362                 1.2963
 Frc consts  --      1.0127                 0.9247                 1.0642
 IR Inten    --      0.0727                 3.8048                 6.5775

                     88                     89                     90
                      A                      A                      A
 Frequencies --   1187.9222              1199.0845              1206.3362
 Red. masses --      1.1770                 2.3290                 2.4960
 Frc consts  --      0.9786                 1.9729                 2.1401
 IR Inten    --     30.6806                 7.9059                28.4021

                     91                     92                     93
                      A                      A                      A
 Frequencies --   1215.0822              1222.2649              1247.0959
 Red. masses --      3.2090                 2.1992                 1.6388
 Frc consts  --      2.7915                 1.9358                 1.5017
 IR Inten    --      4.6760                37.9045                 9.0397

                     94                     95                     96
                      A                      A                      A
 Frequencies --   1249.2806              1257.6669              1273.4659
 Red. masses --      1.7573                 5.3166                 1.6778
 Frc consts  --      1.6159                 4.9547                 1.6031
 IR Inten    --     12.1741               498.6182                40.5768

                     97                     98                     99
                      A                      A                      A
 Frequencies --   1289.2673              1317.3941              1319.5683
 Red. masses --      2.1750                 1.2979                 1.8743
 Frc consts  --      2.1301                 1.3272                 1.9228
 IR Inten    --     10.8735                 8.0951                 8.6795

                    100                    101                    102
                      A                      A                      A
 Frequencies --   1324.1562              1327.9555              1332.2807
 Red. masses --      1.4590                 2.6880                 1.1344
 Frc consts  --      1.5072                 2.7929                 1.1863
 IR Inten    --      9.7371                 8.1165                17.9969

                    103                    104                    105
                      A                      A                      A
 Frequencies --   1344.6423              1346.3356              1353.2588
 Red. masses --      1.8202                 2.2726                 1.9706
 Frc consts  --      1.9390                 2.4270                 2.1263
 IR Inten    --      7.9986                17.8031                26.8260

                    106                    107                    108
                      A                      A                      A
 Frequencies --   1354.2091              1367.6349              1379.7349
 Red. masses --      4.0763                 1.5212                 1.5217
 Frc consts  --      4.4044                 1.6764                 1.7068
 IR Inten    --     59.4514                 7.4175                 0.4710

                    109                    110                    111
                      A                      A                      A
 Frequencies --   1436.6647              1440.6351              1461.6098
 Red. masses --      2.4253                 2.7683                 1.4842
 Frc consts  --      2.9493                 3.3851                 1.8681
 IR Inten    --    345.4962                 2.1334                53.6764

                    112                    113                    114
                      A                      A                      A
 Frequencies --   1465.7474              1482.8215              1484.8722
 Red. masses --      2.2336                 1.2499                 2.3020
 Frc consts  --      2.8273                 1.6193                 2.9905
 IR Inten    --     25.2485                18.8483                 0.8290

                    115                    116                    117
                      A                      A                      A
 Frequencies --   1486.4788              1491.8628              1508.1343
 Red. masses --      1.9403                 1.1023                 1.1043
 Frc consts  --      2.5260                 1.4454                 1.4798
 IR Inten    --     54.9085                 0.2061                 5.3037

                    118                    119                    120
                      A                      A                      A
 Frequencies --   1516.8537              1524.9972              1534.5889
 Red. masses --      2.2297                 5.6874                 2.5384
 Frc consts  --      3.0226                 7.7930                 3.5221
 IR Inten    --    223.8935               418.0818                94.1209

                    121                    122                    123
                      A                      A                      A
 Frequencies --   1540.5729              1578.5513              1618.5030
 Red. masses --      5.8296                 5.4053                 6.7091
 Frc consts  --      8.1518                 7.9358                10.3548
 IR Inten    --     63.7368                23.4775                 2.0734

                    124                    125                    126
                      A                      A                      A
 Frequencies --   1622.3415              1624.7493              1633.3530
 Red. masses --      5.8377                 6.0543                 5.7697
 Frc consts  --      9.0527                 9.4164                 9.0691
 IR Inten    --     13.6875                23.3306                82.3090

                    127                    128                    129
                      A                      A                      A
 Frequencies --   1640.5207              1647.1760              2997.6348
 Red. masses --      6.2062                 5.9558                 1.0579
 Frc consts  --      9.8410                 9.5207                 5.6009
 IR Inten    --      9.4004                16.0730                11.5317

                    130                    131                    132
                      A                      A                      A
 Frequencies --   3008.1554              3019.1696              3021.5016
 Red. masses --      1.0626                 1.0611                 1.0769
 Frc consts  --      5.6651                 5.6988                 5.7925
 IR Inten    --      6.4008                12.7010                48.6378

                    133                    134                    135
                      A                      A                      A
 Frequencies --   3027.2016              3047.4485              3060.0886
 Red. masses --      1.0771                 1.1002                 1.1053
 Frc consts  --      5.8156                 6.0200                 6.0982
 IR Inten    --     71.1826                 1.5897                12.8044

                    136                    137                    138
                      A                      A                      A
 Frequencies --   3073.6776              3133.9479              3153.0688
 Red. masses --      1.1056                 1.0846                 1.0909
 Frc consts  --      6.1539                 6.2763                 6.3899
 IR Inten    --     48.3448                15.2558                49.4041

                    139                    140                    141
                      A                      A                      A
 Frequencies --   3159.2006              3159.3235              3160.7842
 Red. masses --      1.0875                 1.0861                 1.0885
 Frc consts  --      6.3949                 6.3872                 6.4071
 IR Inten    --     14.7860                 1.4035                12.0004

                    142                    143                    144
                      A                      A                      A
 Frequencies --   3168.2663              3179.6054              3182.4688
 Red. masses --      1.0893                 1.0915                 1.0930
 Frc consts  --      6.4423                 6.5017                 6.5223
 IR Inten    --     13.3499                13.8781                27.6928

                    145                    146                    147
                      A                      A                      A
 Frequencies --   3183.6511              3184.3146              3185.9481
 Red. masses --      1.0931                 1.0936                 1.0941
 Frc consts  --      6.5274                 6.5332                 6.5433
 IR Inten    --     26.5241                10.4405                 4.7562

                    148                    149                    150
                      A                      A                      A
 Frequencies --   3191.2573              3204.0373              3480.4342
 Red. masses --      1.0956                 1.0928                 1.0635
 Frc consts  --      6.5742                 6.6097                 7.5904
 IR Inten    --     12.1117                 0.7070               112.7883

 - Thermochemistry -
 -------------------
 Temperature   298.150 Kelvin.  Pressure   1.00000 Atm.
 Atom     1 has atomic number  6 and mass  12.00000

 Molecular mass:   398.15181 amu.
 Principal axes and moments of inertia in atomic units:
                           1         2         3
     Eigenvalues --  4006.93258********************
           X            0.97900  -0.16920   0.11369
           Y           -0.19932  -0.67760   0.70790
           Z            0.04274   0.71570   0.69710
 This molecule is an asymmetric top.
 Rotational symmetry number  1.
 Warning -- assumption of classical behavior for rotation
           may cause significant error
 Rotational temperatures (Kelvin)      0.02162     0.00180     0.00178
 Rotational constants (GHZ):           0.45040     0.03757     0.03704
 Zero-point vibrational energy    1083699.4 (Joules/Mol)
                                  259.01038 (Kcal/Mol)
 Warning -- explicit consideration of  38 degrees of freedom as
           vibrations may cause significant error
 Vibrational temperatures:      8.13    17.90    21.75    23.48    37.82
          (Kelvin)             46.26    68.83   107.80   128.30   147.75
                              164.18   169.48   215.03   230.64   259.54
                              291.94   358.29   368.80   388.91   428.18
                              447.18   455.67   502.32   536.14   542.88
                              583.08   606.85   608.28   614.54   616.90
                              620.83   651.59   695.76   731.65   735.66
                              767.01   804.97   828.58   895.17   911.55
                              928.34   939.98   972.95  1005.77  1009.17
                             1014.86  1024.76  1041.39  1057.70  1058.11
                             1093.54  1095.26  1114.69  1122.85  1131.86
                             1178.42  1198.55  1204.30  1237.23  1242.16
                             1254.06  1273.98  1293.09  1335.89  1361.99
                             1381.55  1395.95  1397.93  1404.75  1408.33
                             1413.78  1440.06  1456.20  1487.69  1492.27
                             1500.20  1500.66  1506.42  1520.32  1562.83
                             1582.22  1593.30  1618.15  1649.29  1656.44
                             1690.98  1698.34  1709.16  1725.22  1735.65
                             1748.23  1758.57  1794.29  1797.44  1809.50
                             1832.23  1854.97  1895.44  1898.56  1905.17
                             1910.63  1916.85  1934.64  1937.08  1947.04
                             1948.40  1967.72  1985.13  2067.04  2072.75
                             2102.93  2108.88  2133.45  2136.40  2138.71
                             2146.46  2169.87  2182.41  2194.13  2207.93
                             2216.54  2271.18  2328.66  2334.19  2337.65
                             2350.03  2360.34  2369.92  4312.93  4328.06
                             4343.91  4347.27  4355.47  4384.60  4402.78
                             4422.34  4509.05  4536.56  4545.38  4545.56
                             4547.66  4558.43  4574.74  4578.86  4580.56
                             4581.52  4583.87  4591.51  4609.89  5007.57

 Zero-point correction=                           0.412759 (Hartree/Particle)
 Thermal correction to Energy=                    0.438334
 Thermal correction to Enthalpy=                  0.439278
 Thermal correction to Gibbs Free Energy=         0.349639
 Sum of electronic and zero-point Energies=          -1304.934930
 Sum of electronic and thermal Energies=             -1304.909356
 Sum of electronic and thermal Enthalpies=           -1304.908411
 Sum of electronic and thermal Free Energies=        -1304.998051

                     E (Thermal)             CV                S
                      KCal/Mol        Cal/Mol-Kelvin    Cal/Mol-Kelvin
 Total                  275.058             99.890            188.661
 Electronic               0.000              0.000              1.377
 Translational            0.889              2.981             43.836
 Rotational               0.889              2.981             37.481
 Vibrational            273.281             93.929            105.966
 Vibration     1          0.593              1.987              9.146
 Vibration     2          0.593              1.987              7.577
 Vibration     3          0.593              1.986              7.190
 Vibration     4          0.593              1.986              7.038
 Vibration     5          0.593              1.985              6.092
 Vibration     6          0.594              1.983              5.692
 Vibration     7          0.595              1.978              4.905
 Vibration     8          0.599              1.966              4.020
 Vibration     9          0.602              1.957              3.678
 Vibration    10          0.605              1.947              3.403
 Vibration    11          0.607              1.938              3.198
 Vibration    12          0.608              1.935              3.136
 Vibration    13          0.618              1.903              2.679
 Vibration    14          0.622              1.891              2.546
 Vibration    15          0.629              1.866              2.324
 Vibration    16          0.639              1.836              2.107
 Vibration    17          0.662              1.764              1.737
 Vibration    18          0.666              1.752              1.687
 Vibration    19          0.674              1.728              1.594
 Vibration    20          0.691              1.678              1.430
 Vibration    21          0.700              1.653              1.358
 Vibration    22          0.704              1.642              1.327
 Vibration    23          0.726              1.577              1.170
 Vibration    24          0.744              1.528              1.069
 Vibration    25          0.748              1.518              1.050
 Vibration    26          0.770              1.459              0.944
 Vibration    27          0.784              1.423              0.886
 Vibration    28          0.785              1.421              0.883
 Vibration    29          0.789              1.411              0.868
 Vibration    30          0.790              1.408              0.863
 Vibration    31          0.793              1.402              0.854
 Vibration    32          0.811              1.355              0.787
 Vibration    33          0.840              1.286              0.700
 Vibration    34          0.864              1.231              0.637
 Vibration    35          0.866              1.225              0.630
 Vibration    36          0.888              1.177              0.580
 Vibration    37          0.915              1.119              0.525
 Vibration    38          0.932              1.083              0.493

                           ! Non-Optimized Parameters !
 Normal termination of Gaussian 16 at Tue Jan  9 04:45:16 2024.
