 Gaussian 16, Revision A.03,
 Gaussian 16:  ES64L-G16RevA.03 25-Dec-2016

 ----------------------------------------------------------------
 #P UB3LYP/6-311++G(d,p) SCRF=(PCM,Solvent=n,n-DiMethylFormamide)
 ----------------------------------------------------------------

 ------------------
 Radical PCM in DMF
 ------------------
 Symbolic Z-matrix:
 Charge = -1 Multiplicity = 2

                         Standard orientation:
 ---------------------------------------------------------------------
 Center     Atomic      Atomic             Coordinates (Angstroms)
 Number     Number       Type             X           Y           Z
 ---------------------------------------------------------------------
      1          6           0        7.866709    0.291252   -0.003316
      2          6           0        8.550748   -0.865591    0.320940
      3          6           0        7.847868   -1.991955    0.794243
      4          6           0        6.463522    0.364138    0.133284
      5          6           0        5.751469   -0.773251    0.611205
      6          6           0        6.470511   -1.937421    0.933591
      7          6           0        5.748208    1.576059   -0.206970
      8          6           0        4.314043    1.554608   -0.033970
      9          6           0        3.595883    0.474800    0.434578
     10          6           0        4.282155   -0.753286    0.771855
     11          8           0        6.283866    2.647347   -0.643089
     12          8           0        3.661048   -1.766757    1.187167
     13          8           0        3.707263    2.727756   -0.377910
     14          1           0        8.385226    1.170277   -0.369258
     15          1           0        9.630553   -0.907488    0.210985
     16          1           0        8.386088   -2.900122    1.048742
     17          1           0        5.904479   -2.788775    1.294418
     18          1           0        4.473792    3.278425   -0.652842
     19          6           0        2.097930    0.527252    0.587360
     20          6           0        1.349429   -0.074970   -0.617139
     21          1           0        1.778642    1.564543    0.729102
     22          1           0        1.824551   -0.042711    1.481445
     23          1           0        1.698058   -1.103074   -0.760187
     24          1           0        1.616853    0.484349   -1.521838
     25          6           0       -0.171941   -0.067688   -0.440647
     26          6           0       -0.919998   -0.684623   -1.639984
     27          6           0       -2.421805   -0.686866   -1.473987
     28          6           0       -3.202406    0.383541   -1.927691
     29          6           0       -3.075924   -1.744093   -0.829274
     30          6           0       -4.456186   -1.736429   -0.637192
     31          6           0       -5.201982   -0.655221   -1.092939
     32          6           0       -4.583749    0.406186   -1.744287
     33          8           0       -6.591808   -0.677042   -0.969613
     34          6           0       -7.187833   -0.091614    0.121520
     35          6           0       -6.484282    0.510758    1.165919
     36          6           0       -8.585642   -0.130388    0.144811
     37          6           0       -9.274447    0.433723    1.212027
     38          6           0       -7.191065    1.072711    2.229941
     39          6           0       -8.582649    1.039938    2.262909
     40          1           0       -0.524690    0.960558   -0.289518
     41          1           0       -0.437702   -0.620468    0.468825
     42          1           0       -0.566823   -1.711131   -1.785921
     43          1           0       -0.654379   -0.131763   -2.547651
     44          1           0       -2.721803    1.211464   -2.439122
     45          1           0       -2.495615   -2.590124   -0.475257
     46          1           0       -4.958408   -2.561396   -0.145149
     47          1           0       -5.183484    1.233343   -2.106431
     48          1           0       -5.402821    0.540508    1.149400
     49          1           0       -9.107021   -0.604410   -0.678267
     50          1           0      -10.358570    0.399775    1.222727
     51          1           0       -6.639209    1.539077    3.038750
     52          1           0       -9.122065    1.479284    3.093878
 ---------------------------------------------------------------------

 SCF Done:  E(UB3LYP) =  -1305.42293484     A.U. after   22 cycles

 The electronic state is 2-A.
 Alpha  occ. eigenvalues --  -19.16961 -19.14289 -19.08541 -19.07327 -10.24632
 Alpha  occ. eigenvalues --  -10.23918 -10.22231 -10.22076 -10.22013 -10.18711
 Alpha  occ. eigenvalues --  -10.18312 -10.18305 -10.18304 -10.18290 -10.18122
 Alpha  occ. eigenvalues --  -10.18114 -10.17959 -10.17847 -10.17490 -10.17424
 Alpha  occ. eigenvalues --  -10.17267 -10.17200 -10.17156 -10.17078 -10.17039
 Alpha  occ. eigenvalues --  -10.16930 -10.16360 -10.16181 -10.15874 -10.15834
 Alpha  occ. eigenvalues --   -1.08782  -1.06285  -0.99865  -0.99538  -0.87406
 Alpha  occ. eigenvalues --   -0.85998  -0.85819  -0.81456  -0.79998  -0.77563
 Alpha  occ. eigenvalues --   -0.75896  -0.75815  -0.75425  -0.75058  -0.73556
 Alpha  occ. eigenvalues --   -0.70468  -0.67348  -0.65063  -0.62756  -0.62552
 Alpha  occ. eigenvalues --   -0.61846  -0.61435  -0.59529  -0.58007  -0.57572
 Alpha  occ. eigenvalues --   -0.56810  -0.55535  -0.53648  -0.51014  -0.50410
 Alpha  occ. eigenvalues --   -0.49525  -0.48410  -0.48317  -0.47968  -0.46616
 Alpha  occ. eigenvalues --   -0.45384  -0.45230  -0.45147  -0.44834  -0.43586
 Alpha  occ. eigenvalues --   -0.43188  -0.43159  -0.42699  -0.42216  -0.41569
 Alpha  occ. eigenvalues --   -0.41309  -0.41180  -0.40469  -0.39397  -0.39051
 Alpha  occ. eigenvalues --   -0.38664  -0.38478  -0.37619  -0.37199  -0.36762
 Alpha  occ. eigenvalues --   -0.36413  -0.36143  -0.35034  -0.34411  -0.34270
 Alpha  occ. eigenvalues --   -0.34090  -0.33834  -0.33533  -0.33384  -0.32520
 Alpha  occ. eigenvalues --   -0.32151  -0.26923  -0.26682  -0.26404  -0.25935
 Alpha  occ. eigenvalues --   -0.25751  -0.24887  -0.23838  -0.23726  -0.22707
 Alpha  occ. eigenvalues --   -0.15033
 Alpha virt. eigenvalues --   -0.03256  -0.03040  -0.01946  -0.01600  -0.00942
 Alpha virt. eigenvalues --   -0.00802  -0.00572  -0.00288   0.00414   0.00693
 Alpha virt. eigenvalues --    0.01103   0.01348   0.01569   0.01752   0.02554

  Beta  occ. eigenvalues --  -19.16961 -19.14242 -19.07912 -19.06795 -10.24632
  Beta  occ. eigenvalues --  -10.23918 -10.22099 -10.21974 -10.21727 -10.18711
  Beta  occ. eigenvalues --  -10.18312 -10.18305 -10.18304 -10.18290 -10.18122
  Beta  occ. eigenvalues --  -10.18114 -10.17959 -10.17847 -10.17490 -10.17408
  Beta  occ. eigenvalues --  -10.17262 -10.17090 -10.17068 -10.17039 -10.17027
  Beta  occ. eigenvalues --  -10.16955 -10.16359 -10.16101 -10.15880 -10.15826
  Beta  occ. eigenvalues --   -1.08782  -1.06070  -0.98938  -0.98474  -0.87406
  Beta  occ. eigenvalues --   -0.85998  -0.85584  -0.81279  -0.79836  -0.77441
  Beta  occ. eigenvalues --   -0.75896  -0.75798  -0.75340  -0.74853  -0.73483
  Beta  occ. eigenvalues --   -0.70331  -0.66711  -0.64817  -0.62692  -0.62552
  Beta  occ. eigenvalues --   -0.61810  -0.61286  -0.59374  -0.57960  -0.57516
  Beta  occ. eigenvalues --   -0.56571  -0.55535  -0.53474  -0.51011  -0.50187
  Beta  occ. eigenvalues --   -0.49518  -0.48325  -0.48182  -0.47931  -0.46473
  Beta  occ. eigenvalues --   -0.45308  -0.45224  -0.45066  -0.44830  -0.43209
  Beta  occ. eigenvalues --   -0.43186  -0.42702  -0.42490  -0.41993  -0.41423
  Beta  occ. eigenvalues --   -0.41047  -0.40868  -0.40305  -0.39074  -0.38858
  Beta  occ. eigenvalues --   -0.38459  -0.37723  -0.37450  -0.37181  -0.36393
  Beta  occ. eigenvalues --   -0.36329  -0.35435  -0.34767  -0.34233  -0.34074
  Beta  occ. eigenvalues --   -0.33722  -0.33524  -0.33205  -0.32767  -0.32410
  Beta  occ. eigenvalues --   -0.31997  -0.26923  -0.26404  -0.25388  -0.25059
  Beta  occ. eigenvalues --   -0.24859  -0.24698  -0.23727  -0.23341  -0.21821
  Beta virt. eigenvalues --   -0.08504  -0.03040  -0.02502  -0.01937  -0.01600
  Beta virt. eigenvalues --   -0.00942  -0.00613  -0.00281   0.00300   0.00457
  Beta virt. eigenvalues --    0.00707   0.01113   0.01354   0.01575   0.01761

 Mulliken charges and spin densities:
               1          2
     1  C    0.087795   0.074967
     2  C   -0.377877  -0.000982
     3  C   -0.439041   0.072700
     4  C    0.370828  -0.003234
     5  C    0.048432   0.062827
     6  C    0.109769   0.002821
     7  C   -0.901285   0.166858
     8  C   -0.593600   0.060666
     9  C    2.072944   0.050383
    10  C   -0.797752   0.074784
    11  O   -0.522860   0.229889
    12  O   -0.449954   0.197618
    13  O   -0.283539   0.016002
    14  H    0.166332  -0.004062
    15  H    0.182789  -0.000645
    16  H    0.178568  -0.005163
    17  H    0.165483  -0.000290
    18  H    0.290468  -0.003635
    19  C   -0.386176   0.009303
    20  C   -0.849398  -0.004587
    21  H    0.223627  -0.001128
    22  H    0.201399   0.003166
    23  H    0.168829  -0.001947
    24  H    0.157577   0.002375
    25  C   -0.197617   0.002784
    26  C   -0.978943  -0.001034
    27  C    1.375040  -0.001134
    28  C   -0.395292  -0.000260
    29  C   -0.330699   0.000452
    30  C    0.008945  -0.000370
    31  C   -0.533085   0.000139
    32  C    0.022595   0.000168
    33  O   -0.051911  -0.000003
    34  C   -0.184877   0.000020
    35  C   -0.016410   0.000040
    36  C   -0.197252  -0.000030
    37  C   -0.189680   0.000000
    38  C   -0.174650   0.000003
    39  C   -0.328766   0.000000
    40  H    0.124703   0.000245
    41  H    0.126384   0.000454
    42  H    0.170240   0.000078
    43  H    0.172992  -0.000269
    44  H    0.197312  -0.000008
    45  H    0.201369   0.000027
    46  H    0.210126  -0.000000
    47  H    0.208882   0.000012
    48  H    0.168724  -0.000001
    49  H    0.183897   0.000001
    50  H    0.198151  -0.000000
    51  H    0.216495  -0.000000
    52  H    0.169965   0.000000
 Sum of Mulliken charges =  -1.00000   1.00000

 Dipole moment (field-independent basis, Debye):
    X=            -20.4075    Y=             -1.6224    Z=             -0.8546  Tot=             20.4897
 Quadrupole moment (field-independent basis, Debye-Ang):
   XX=           -308.6429   YY=           -200.4352   ZZ=           -185.4376
   XY=            -25.6878   XZ=             -9.6138   YZ=              6.1929

 Normal termination of Gaussian 16 at Thu Jan 25 06:01:15 2024.
