 Q-Chem 5.4, Q-Chem, Inc., Pleasanton, CA (2021)
 Q-Chem 5.4.0 for Intel X86 EM64T Linux

User input:
--------------------------------------------------------------
$molecule
-2 1
C                  5.6703580000     -5.1029350000      1.2839460000
C                  6.6812700000     -5.0269060000      0.3574180000
C                  6.5948040000     -4.0578200000     -0.7073420000
C                  4.5233130000     -4.2643720000      1.2506150000
C                  4.4357390000     -3.2817840000      0.1710800000
C                  5.4729170000     -3.2178080000     -0.7629880000
C                  3.4997550000     -4.4005030000      2.2575340000
C                  2.4151140000     -3.4839870000      2.0835400000
C                  2.3167570000     -2.5397850000      1.0580820000
C                  3.2988120000     -2.3653270000      0.0380070000
O                  3.5512470000     -5.2593650000      3.2245770000
O                  3.2039030000     -1.4948500000     -0.9016080000
C                  7.6250060000     -3.9642170000     -1.6705670000
N                  8.4937210000     -3.9120460000     -2.4513780000
H                  5.7109810000     -5.8238530000      2.0955130000
H                  7.5451920000     -5.6834340000      0.4116600000
H                  5.3763900000     -2.4773780000     -1.5512420000
H                  1.6154900000     -3.5484980000      2.8231260000
H                  1.4469610000     -1.8840230000      1.0113160000
$end
$rem
MAX_SCF_CYCLES=200
BASIS  =  6-311++G(d,p)
GUI  =  2
JOB_TYPE  =  SP
METHOD  =  B3LYP
SOLVENT_METHOD = COSMO
$end
$solvent
dielectric 37.219
opticaldielectric 1.43
$end

--------------------------------------------------------------

             Standard Nuclear Orientation (Angstroms)
    I     Atom           X                Y                Z
 ----------------------------------------------------------------
    1      C      -0.3155294311    -1.8198258737     0.0000523098
    2      C      -1.6661559047    -1.5708565664    -0.0001152905
    3      C      -2.1349771252    -0.2068460991    -0.0000126722
    4      C       0.6629540917    -0.7890101955     0.0004069922
    5      C       0.1875571707     0.5939366460     0.0004309491
    6      C      -1.1897111734     0.8294064323     0.0002101182
    7      C       2.0655803925    -1.1247596939     0.0008923977
    8      C       2.9182208676     0.0240330297    -0.0001504601
    9      C       2.4798132957     1.3508918858    -0.0002037584
   10      C       1.1063110996     1.7367821910     0.0008022408
   11      O       2.5150175851    -2.3386259650    -0.0006603038
   12      O       0.7089113854     2.9581281425    -0.0005423884
   13      C      -3.5210972062     0.0698327634    -0.0001188260
   14      N      -4.6738840788     0.2651166449    -0.0002374938
   15      H       0.0637406734    -2.8377493354     0.0000693495
   16      H      -2.3882466276    -2.3825938255    -0.0003192786
   17      H      -1.5085620878     1.8673045516     0.0002695428
   18      H       3.9900911284    -0.1800287508    -0.0009222564
   19      H       3.2109372380     2.1597263086    -0.0009773672
 ----------------------------------------------------------------

   12    -627.5352877533      5.52e-06  Convergence criterion met
 Total energy in the final basis set =     -627.5352877533
    6    -627.8082914019      6.37e-06  Convergence criterion met
 Total energy in the final basis set =     -627.8082914019

                    Orbital Energies (a.u.)
 --------------------------------------------------------------

 Alpha MOs
 -- Occupied --
-19.0368 -19.0286 -14.3083 -10.2138 -10.1920 -10.1908 -10.1824 -10.1739
-10.1677 -10.1581 -10.1548 -10.1510 -10.1379 -10.1340  -0.9538  -0.9423
 -0.9071  -0.8448  -0.7827  -0.7467  -0.7275  -0.6617  -0.6244  -0.5980
 -0.5477  -0.5247  -0.4871  -0.4545  -0.4390  -0.4160  -0.4076  -0.3953
 -0.3949  -0.3802  -0.3727  -0.3689  -0.3629  -0.3389  -0.3341  -0.3313
 -0.3174  -0.3165  -0.2474  -0.2391  -0.2297  -0.2154  -0.2090  -0.1282

          Ground-State Mulliken Net Atomic Charges

     Atom                 Charge (a.u.)
  ----------------------------------------
      1 C                     0.268132
      2 C                    -0.874237
      3 C                     1.914416
      4 C                     0.162230
      5 C                    -0.133647
      6 C                     0.160134
      7 C                    -0.454010
      8 C                    -0.021363
      9 C                    -0.026269
     10 C                    -0.391652
     11 O                    -0.750921
     12 O                    -0.703900
     13 C                    -1.669805
     14 N                    -0.348227
     15 H                     0.163298
     16 H                     0.205665
     17 H                     0.175492
     18 H                     0.161488
     19 H                     0.163174
  ----------------------------------------
  Sum of atomic charges =    -2.000000

                    Cartesian Multipole Moments
 -----------------------------------------------------------------
    Charge (ESU x 10^10)
                -9.6064
    Dipole Moment (Debye)
         X      -4.4229      Y      -2.2405      Z       0.0026
       Tot       4.9580
    Quadrupole Moments (Debye-Ang)
        XX    -159.3166     XY      18.2399     YY    -138.1587
        XZ       0.0027     YZ       0.0002     ZZ     -89.7266

 Total job time:  65.25s(wall), 254.83s(cpu)
        *  Thank you very much for using Q-Chem.  Have a nice day.  *
