 Gaussian 16, Revision A.03,
 Gaussian 16:  ES64L-G16RevA.03 25-Dec-2016

 ----------------------------------------------------------------
 #P UB3LYP/6-311++G(d,p) SCRF=(PCM,Solvent=n,n-DiMethylFormamide)
 ----------------------------------------------------------------

 ------------------
 Radical PCM in DMF
 ------------------
 Symbolic Z-matrix:
 Charge = -2 Multiplicity = 2

                         Standard orientation:
 ---------------------------------------------------------------------
 Center     Atomic      Atomic             Coordinates (Angstroms)
 Number     Number       Type             X           Y           Z
 ---------------------------------------------------------------------
      1          6           0       -2.689331    1.345723   -0.000050
      2          6           0       -2.326871    2.680497    0.000031
      3          6           0       -0.961616    3.027322    0.000038
      4          6           0       -1.723706    0.316338   -0.000020
      5          6           0       -0.335129    0.668528   -0.000011
      6          6           0        0.009548    2.039606   -0.000023
      7          6           0       -2.189341   -1.082068    0.000054
      8          6           0       -1.142157   -2.141405    0.000095
      9          6           0        0.242396   -1.702566   -0.000063
     10          6           0        0.642782   -0.396719   -0.000021
     11          8           0       -3.414717   -1.358272   -0.000042
     12          8           0       -1.437852   -3.364768    0.000004
     13          1           0       -3.730246    1.040327   -0.000112
     14          1           0       -3.089630    3.456403    0.000030
     15          1           0       -0.663010    4.072702    0.000054
     16          1           0        1.057170    2.308218   -0.000033
     17          1           0        0.996923   -2.480947   -0.000060
     18         16           0        2.443130   -0.030800   -0.000005
     19          8           0        3.123450   -1.355113   -0.000564
     20          8           0        2.688320    0.761361    1.242991
     21          8           0        2.688207    0.762362   -1.242387
 ---------------------------------------------------------------------

 SCF Done:  E(UB3LYP) =  -1158.87209951     A.U. after   21 cycles

 The electronic state is 2-A.
 Alpha  occ. eigenvalues --  -89.03836 -19.08500 -19.08258 -19.08257 -19.07997
 Alpha  occ. eigenvalues --  -19.07726 -10.22096 -10.21695 -10.19215 -10.18596
 Alpha  occ. eigenvalues --  -10.17314 -10.17182 -10.17080 -10.16920 -10.16843
 Alpha  occ. eigenvalues --  -10.16409  -8.09707  -6.05988  -6.05971  -6.05869
 Alpha  occ. eigenvalues --   -1.09968  -1.01261  -0.98540  -0.96551  -0.96148
 Alpha  occ. eigenvalues --   -0.86302  -0.80830  -0.75450  -0.72978  -0.69301
 Alpha  occ. eigenvalues --   -0.62005  -0.61093  -0.59056  -0.54993  -0.50842
 Alpha  occ. eigenvalues --   -0.49975  -0.48357  -0.45076  -0.44581  -0.44436
 Alpha  occ. eigenvalues --   -0.43945  -0.42296  -0.41848  -0.41624  -0.40433
 Alpha  occ. eigenvalues --   -0.38642  -0.37041  -0.35093  -0.35000  -0.34757
 Alpha  occ. eigenvalues --   -0.32785  -0.32371  -0.31778  -0.29025  -0.28536
 Alpha  occ. eigenvalues --   -0.27981  -0.25769  -0.25681  -0.24829  -0.23011
 Alpha  occ. eigenvalues --   -0.22578  -0.15967
 Alpha virt. eigenvalues --   -0.03674  -0.00654   0.00205   0.01366   0.01808
 Alpha virt. eigenvalues --    0.02472   0.03369   0.03692   0.04774   0.04987
 Alpha virt. eigenvalues --    0.06168   0.06350   0.06604   0.07842   0.08232

  Beta  occ. eigenvalues --  -89.03839 -19.08502 -19.08235 -19.08234 -19.07406
  Beta  occ. eigenvalues --  -19.07044 -10.21939 -10.21533 -10.18992 -10.18541
  Beta  occ. eigenvalues --  -10.17290 -10.17124 -10.17061 -10.16925 -10.16802
  Beta  occ. eigenvalues --  -10.16418  -8.09711  -6.05991  -6.05974  -6.05879
  Beta  occ. eigenvalues --   -1.09949  -1.00175  -0.97338  -0.96539  -0.96099
  Beta  occ. eigenvalues --   -0.86079  -0.80487  -0.75173  -0.72823  -0.68503
  Beta  occ. eigenvalues --   -0.61717  -0.60947  -0.58689  -0.54815  -0.50677
  Beta  occ. eigenvalues --   -0.49789  -0.48105  -0.44935  -0.44496  -0.44345
  Beta  occ. eigenvalues --   -0.43788  -0.42229  -0.41276  -0.40164  -0.39924
  Beta  occ. eigenvalues --   -0.38380  -0.35733  -0.34955  -0.34666  -0.32987
  Beta  occ. eigenvalues --   -0.32630  -0.32320  -0.30358  -0.28976  -0.28355
  Beta  occ. eigenvalues --   -0.27379  -0.25176  -0.25080  -0.24564  -0.22063
  Beta  occ. eigenvalues --   -0.22005
  Beta virt. eigenvalues --   -0.09236  -0.02710   0.00218   0.00681   0.01378
  Beta virt. eigenvalues --    0.01834   0.03381   0.03575   0.03720   0.04854
  Beta virt. eigenvalues --    0.05031   0.06186   0.06389   0.06618   0.08010

 Mulliken charges and spin densities:
               1          2
     1  C    0.142005   0.058409
     2  C   -0.494710   0.004224
     3  C   -0.869091   0.056276
     4  C    0.537612   0.005290
     5  C    1.009539   0.024501
     6  C   -0.532729   0.008439
     7  C   -0.616198   0.118809
     8  C    0.046433   0.165700
     9  C    0.105028  -0.040334
    10  C   -0.711033   0.128780
    11  O   -0.471013   0.223857
    12  O   -0.506420   0.246013
    13  H    0.163849  -0.004307
    14  H    0.182346  -0.001150
    15  H    0.185337  -0.003778
    16  H    0.151618   0.001134
    17  H    0.238887  -0.001488
    18  S    0.552785  -0.001411
    19  O   -0.319600   0.000171
    20  O   -0.397315   0.005435
    21  O   -0.397331   0.005429
 Sum of Mulliken charges =  -2.00000   1.00000

 Dipole moment (field-independent basis, Debye):
    X=             -4.6518    Y=             10.2297    Z=             -0.0001  Tot=             11.2377
 Quadrupole moment (field-independent basis, Debye-Ang):
   XX=           -182.4058   YY=           -141.3747   ZZ=           -114.7400
   XY=            -24.2500   XZ=             -0.0006   YZ=             -0.0004

 Normal termination of Gaussian 16 at Sat Jan 13 19:22:47 2024.
