 Q-Chem 5.4, Q-Chem, Inc., Pleasanton, CA (2021)
 Q-Chem 5.4.0 for Intel X86 EM64T Linux

User input:
--------------------------------------------------------------
$molecule
-1 2
C                 -4.2515840000     -0.5518770000     -3.5877710000
C                 -3.2729630000     -0.9088900000     -4.4982540000
C                 -1.9155310000     -0.7011700000     -4.1901070000
C                 -3.9102470000      0.0201000000     -2.3461880000
C                 -2.5461450000      0.2285510000     -2.0378830000
C                 -1.5628870000     -0.1402720000     -2.9750320000
C                 -4.9742650000      0.3864820000     -1.3967980000
C                 -4.5618120000      0.9588070000     -0.1294340000
C                 -3.2097510000      1.1723250000      0.1535130000
C                 -2.1302740000      0.8335290000     -0.7552460000
O                 -6.1874830000      0.1984810000     -1.6834740000
O                 -0.9224050000      1.0163270000     -0.4893670000
H                 -5.3043550000     -0.6996890000     -3.7982880000
H                 -3.5513030000     -1.3489370000     -5.4513460000
H                 -1.1472100000     -0.9811100000     -4.9045820000
H                 -0.5267830000      0.0327060000     -2.7081930000
C                 -5.6650660000      1.3132990000      0.8334130000
S                 -2.7484550000      2.0429440000      1.6520330000
C                 -1.8778140000      0.8556280000      2.6519750000
C                 -1.2380700000      1.3090160000      3.7912050000
C                 -0.5707900000      0.4188100000      4.6657480000
C                 -0.5505840000     -0.9798950000      4.3587180000
C                 -1.2078670000     -1.4148620000      3.1775350000
C                 -1.8518620000     -0.5320630000      2.3492550000
C                  0.0891230000      0.8616940000      5.8453020000
C                  0.7315040000     -0.0264190000      6.6762660000
C                  0.7494230000     -1.4083620000      6.3707160000
C                  0.1209620000     -1.8683560000      5.2353080000
H                 -5.8847580000      2.3883070000      0.8112520000
H                 -5.3943930000      1.0665250000      1.8620500000
H                 -6.5745880000      0.7876660000      0.5419310000
H                 -1.2382980000      2.3691600000      4.0262130000
H                 -1.1935120000     -2.4720130000      2.9294360000
H                 -2.3433550000     -0.8808630000      1.4501140000
H                  0.0782420000      1.9215830000      6.0805570000
H                  1.2297490000      0.3316260000      7.5713950000
H                  1.2597840000     -2.1005240000      7.0319540000
H                  0.1326330000     -2.9271020000      4.9937030000
$end

$rem
BASIS  =  6-311++G(d,p)
GUI  =  2
JOB_TYPE  =  SP
METHOD  =  B3LYP
SCF_CONVERGENCE  = 8
SOLVENT_METHOD = sm12
$end

$smx
solvent dimethylformamide
charges CM5
$end

--------------------------------------------------------------

             Standard Nuclear Orientation (Angstroms)
    I     Atom           X                Y                Z
 ----------------------------------------------------------------
    1      C      -4.2515840000    -0.5518770000    -3.5877710000
    2      C      -3.2729630000    -0.9088900000    -4.4982540000
    3      C      -1.9155310000    -0.7011700000    -4.1901070000
    4      C      -3.9102470000     0.0201000000    -2.3461880000
    5      C      -2.5461450000     0.2285510000    -2.0378830000
    6      C      -1.5628870000    -0.1402720000    -2.9750320000
    7      C      -4.9742650000     0.3864820000    -1.3967980000
    8      C      -4.5618120000     0.9588070000    -0.1294340000
    9      C      -3.2097510000     1.1723250000     0.1535130000
   10      C      -2.1302740000     0.8335290000    -0.7552460000
   11      O      -6.1874830000     0.1984810000    -1.6834740000
   12      O      -0.9224050000     1.0163270000    -0.4893670000
   13      H      -5.3043550000    -0.6996890000    -3.7982880000
   14      H      -3.5513030000    -1.3489370000    -5.4513460000
   15      H      -1.1472100000    -0.9811100000    -4.9045820000
   16      H      -0.5267830000     0.0327060000    -2.7081930000
   17      C      -5.6650660000     1.3132990000     0.8334130000
   18      S      -2.7484550000     2.0429440000     1.6520330000
   19      C      -1.8778140000     0.8556280000     2.6519750000
   20      C      -1.2380700000     1.3090160000     3.7912050000
   21      C      -0.5707900000     0.4188100000     4.6657480000
   22      C      -0.5505840000    -0.9798950000     4.3587180000
   23      C      -1.2078670000    -1.4148620000     3.1775350000
   24      C      -1.8518620000    -0.5320630000     2.3492550000
   25      C       0.0891230000     0.8616940000     5.8453020000
   26      C       0.7315040000    -0.0264190000     6.6762660000
   27      C       0.7494230000    -1.4083620000     6.3707160000
   28      C       0.1209620000    -1.8683560000     5.2353080000
   29      H      -5.8847580000     2.3883070000     0.8112520000
   30      H      -5.3943930000     1.0665250000     1.8620500000
   31      H      -6.5745880000     0.7876660000     0.5419310000
   32      H      -1.2382980000     2.3691600000     4.0262130000
   33      H      -1.1935120000    -2.4720130000     2.9294360000
   34      H      -2.3433550000    -0.8808630000     1.4501140000
   35      H       0.0782420000     1.9215830000     6.0805570000
   36      H       1.2297490000     0.3316260000     7.5713950000
   37      H       1.2597840000    -2.1005240000     7.0319540000
   38      H       0.1326330000    -2.9271020000     4.9937030000
 ----------------------------------------------------------------

   18   -1357.6574899809      6.09e-09  Convergence criterion met
 Total energy in the final basis set =    -1357.7473117591

                    Orbital Energies (a.u.)
 --------------------------------------------------------------

 Alpha MOs
 -- Occupied --
-88.8520 -19.0793 -19.0781 -10.2304 -10.2250 -10.2157 -10.1960 -10.1956
-10.1926 -10.1874 -10.1862 -10.1857 -10.1855 -10.1848 -10.1846 -10.1842
-10.1839 -10.1829 -10.1829 -10.1826 -10.1821 -10.1803 -10.1799 -10.1616
 -7.9377  -5.9017  -5.8976  -5.8918  -1.0074  -1.0034  -0.8880  -0.8673
 -0.8461  -0.8259  -0.7900  -0.7762  -0.7613  -0.7590  -0.7392  -0.7240
 -0.6879  -0.6638  -0.6348  -0.6260  -0.6084  -0.6066  -0.5928  -0.5627
 -0.5267  -0.5219  -0.5182  -0.5014  -0.4887  -0.4725  -0.4598  -0.4576
 -0.4496  -0.4393  -0.4348  -0.4290  -0.4264  -0.4219  -0.4151  -0.4071
 -0.4039  -0.4033  -0.3911  -0.3887  -0.3781  -0.3768  -0.3664  -0.3563
 -0.3525  -0.3502  -0.3458  -0.3441  -0.3283  -0.3037  -0.2817  -0.2745
 -0.2650  -0.2582  -0.2489  -0.2409  -0.2378  -0.2090  -0.1581

 Beta MOs
 -- Occupied --
-88.8520 -19.0723 -19.0722 -10.2295 -10.2237 -10.2155 -10.1960 -10.1943
-10.1926 -10.1874 -10.1857 -10.1854 -10.1848 -10.1844 -10.1841 -10.1839
-10.1835 -10.1829 -10.1829 -10.1821 -10.1816 -10.1804 -10.1798 -10.1618
 -7.9377  -5.9017  -5.8976  -5.8917  -0.9974  -0.9911  -0.8880  -0.8655
 -0.8452  -0.8223  -0.7895  -0.7751  -0.7596  -0.7576  -0.7387  -0.7217
 -0.6864  -0.6575  -0.6347  -0.6251  -0.6084  -0.6054  -0.5902  -0.5603
 -0.5265  -0.5205  -0.5172  -0.4999  -0.4875  -0.4703  -0.4593  -0.4574
 -0.4486  -0.4350  -0.4345  -0.4283  -0.4216  -0.4194  -0.4101  -0.4063
 -0.4019  -0.3978  -0.3888  -0.3880  -0.3755  -0.3669  -0.3560  -0.3521
 -0.3499  -0.3452  -0.3444  -0.3425  -0.3254  -0.3036  -0.2792  -0.2593
 -0.2544  -0.2477  -0.2431  -0.2396  -0.2325  -0.2075

          Ground-State Mulliken Net Atomic Charges

     Atom                 Charge (a.u.)    Spin (a.u.)
  --------------------------------------------------------
      1 C                    -0.057109       0.028864
      2 C                     0.812356       0.010946
      3 C                     0.674818       0.027892
      4 C                    -1.302081       0.005190
      5 C                    -1.049173       0.012962
      6 C                     0.133704       0.018632
      7 C                    -1.688440       0.069733
      8 C                     0.183175       0.166175
      9 C                     1.056326       0.098762
     10 C                    -1.541636       0.061178
     11 O                    -0.329627       0.264686
     12 O                    -0.249581       0.216792
     13 H                     0.169894      -0.003228
     14 H                     0.357071      -0.001150
     15 H                     0.351458      -0.002190
     16 H                     0.166655      -0.001882
     17 C                     0.261303      -0.006082
     18 S                    -0.340064       0.007034
     19 C                    -0.606313       0.020056
     20 C                    -0.726446       0.004008
     21 C                    -0.511197       0.003463
     22 C                    -0.112605       0.000743
     23 C                    -0.181929      -0.001805
     24 C                    -0.797734      -0.019220
     25 C                     0.426690      -0.000588
     26 C                     0.676283      -0.000605
     27 C                     0.689263       0.000576
     28 C                     0.263418      -0.000582
     29 H                     0.206157       0.011729
     30 H                     0.173490       0.004570
     31 H                     0.180821      -0.000995
     32 H                     0.229668       0.000778
     33 H                     0.270683       0.000042
     34 H                     0.019876       0.003569
     35 H                     0.273305      -0.000027
     36 H                     0.326192       0.000028
     37 H                     0.331330      -0.000037
     38 H                     0.259997      -0.000015
  --------------------------------------------------------
  Sum of atomic charges =    -1.000000

                    Cartesian Multipole Moments
 -----------------------------------------------------------------
    Charge (ESU x 10^10)
                -4.8032
    Dipole Moment (Debye)
         X      16.2674      Y      -3.7180      Z       2.7899
       Tot      16.9185
    Quadrupole Moments (Debye-Ang)
        XX    -237.6472     XY       6.2969     YY    -151.5340
        XZ     -15.5539     YZ       1.4918     ZZ    -162.6936

 Total job time:  1735.29s(wall), 13421.21s(cpu)
        *  Thank you very much for using Q-Chem.  Have a nice day.  *
