 Q-Chem 5.4, Q-Chem, Inc., Pleasanton, CA (2021)
 Q-Chem 5.4.0 for Intel X86 EM64T Linux

User input:
--------------------------------------------------------------
$molecule
-2 1
C                  2.9832400000     -1.0980550000     -0.1543260000
C                  1.6504130000     -0.4079710000     -0.0031000000
C                  1.5766390000      0.9315490000      0.3814550000
C                  0.3557550000      1.6630690000      0.5256290000
O                  0.3200400000      2.9037210000      0.9206650000
C                 -0.8296660000      0.8997670000      0.2185160000
C                 -0.7711780000     -0.4524720000     -0.1651650000
C                 -2.0347590000     -1.2138780000     -0.4958450000
C                  0.4703340000     -1.1692760000     -0.3075700000
O                  0.5353810000     -2.4123910000     -0.6944120000
C                 -2.1565980000      1.6108390000      0.3496430000
H                  3.1142990000     -1.5010270000     -1.1723840000
H                  3.8152480000     -0.4118020000      0.0508760000
H                  3.0699970000     -1.9665480000      0.5114360000
H                  2.4939250000      1.4691300000      0.6282390000
H                 -2.7966770000     -1.1278520000      0.2914780000
H                 -1.7734430000     -2.2659690000     -0.6373110000
H                 -2.5158030000     -0.8596050000     -1.4280400000
H                 -2.7656750000      1.2301940000      1.1926850000
H                 -1.9584650000      2.6700640000      0.5353830000
H                 -2.7830060000      1.5085110000     -0.5478520000
$end

$rem
BASIS  =  6-311++G(d,p)
GUI  =  2
JOB_TYPE  =  SP
METHOD  =  B3LYP
SCF_CONVERGENCE  = 8
SOLVENT_METHOD = sm12
$end

$smx
solvent dimethylformamide
charges CM5
$end

--------------------------------------------------------------

             Standard Nuclear Orientation (Angstroms)
    I     Atom           X                Y                Z
 ----------------------------------------------------------------
    1      C       2.9832400000    -1.0980550000    -0.1543260000
    2      C       1.6504130000    -0.4079710000    -0.0031000000
    3      C       1.5766390000     0.9315490000     0.3814550000
    4      C       0.3557550000     1.6630690000     0.5256290000
    5      O       0.3200400000     2.9037210000     0.9206650000
    6      C      -0.8296660000     0.8997670000     0.2185160000
    7      C      -0.7711780000    -0.4524720000    -0.1651650000
    8      C      -2.0347590000    -1.2138780000    -0.4958450000
    9      C       0.4703340000    -1.1692760000    -0.3075700000
   10      O       0.5353810000    -2.4123910000    -0.6944120000
   11      C      -2.1565980000     1.6108390000     0.3496430000
   12      H       3.1142990000    -1.5010270000    -1.1723840000
   13      H       3.8152480000    -0.4118020000     0.0508760000
   14      H       3.0699970000    -1.9665480000     0.5114360000
   15      H       2.4939250000     1.4691300000     0.6282390000
   16      H      -2.7966770000    -1.1278520000     0.2914780000
   17      H      -1.7734430000    -2.2659690000    -0.6373110000
   18      H      -2.5158030000    -0.8596050000    -1.4280400000
   19      H      -2.7656750000     1.2301940000     1.1926850000
   20      H      -1.9584650000     2.6700640000     0.5353830000
   21      H      -2.7830060000     1.5085110000    -0.5478520000
 ----------------------------------------------------------------

   19    -499.5049312722      8.01e-09  Convergence criterion met
 Total energy in the final basis set =     -499.8083015926

                    Orbital Energies (a.u.)
 --------------------------------------------------------------

 Alpha MOs
 -- Occupied --
-19.0206 -19.0205 -10.1795 -10.1761 -10.1713 -10.1678 -10.1672 -10.1464
-10.1459 -10.1446 -10.1380  -0.9323  -0.9287  -0.8038  -0.7728  -0.7221
 -0.7044  -0.6483  -0.6242  -0.5481  -0.5238  -0.4753  -0.4338  -0.4316
 -0.4146  -0.4100  -0.4017  -0.3993  -0.3867  -0.3775  -0.3650  -0.3558
 -0.3432  -0.3247  -0.3200  -0.3085  -0.2275  -0.2181  -0.2001  -0.1948
 -0.1237

          Ground-State Mulliken Net Atomic Charges

     Atom                 Charge (a.u.)
  ----------------------------------------
      1 C                     1.262523
      2 C                     0.379642
      3 C                    -1.846603
      4 C                    -1.837006
      5 O                    -0.373451
      6 C                    -0.031999
      7 C                    -0.451331
      8 C                     0.668971
      9 C                    -1.818095
     10 O                    -0.337295
     11 C                     0.690813
     12 H                     0.172440
     13 H                     0.294616
     14 H                     0.167302
     15 H                    -0.150885
     16 H                     0.215684
     17 H                     0.214954
     18 H                     0.173882
     19 H                     0.183708
     20 H                     0.202378
     21 H                     0.219752
  ----------------------------------------
  Sum of atomic charges =    -2.000000

                    Cartesian Multipole Moments
 -----------------------------------------------------------------
    Charge (ESU x 10^10)
                -9.6064
    Dipole Moment (Debye)
         X      -3.8771      Y      -2.4508      Z      -1.0380
       Tot       4.7027
    Quadrupole Moments (Debye-Ang)
        XX     -94.0442     XY       1.8313     YY    -133.4108
        XZ      -0.3017     YZ     -16.8340     ZZ     -83.6019

 Total job time:  300.96s(wall), 2262.77s(cpu)
        *  Thank you very much for using Q-Chem.  Have a nice day.  *
