 Gaussian 16, Revision A.03,
 Gaussian 16:  ES64L-G16RevA.03 25-Dec-2016

 --------------------------------------
 #P UB3LYP/6-311++G(d,p) nosym opt freq
 --------------------------------------

 -------
 Radical
 -------
 Symbolic Z-matrix:
 Charge = -1 Multiplicity = 2

 SCF Done:  E(UB3LYP) =  -649.928162225     A.U. after   23 cycles
 Optimization completed.
    -- Stationary point found.
 Normal termination of Gaussian 16 at Mon Jan  8 21:26:26 2024.

 ----------------------------------------------------------------------
 #P Geom=AllCheck Guess=TCheck SCRF=Check GenChk UB3LYP/6-311++G(d,p) F
 req
 ----------------------------------------------------------------------

 Structure from the checkpoint file:  "307-rad.chk"
 -------
 Radical
 -------
 Charge = -1 Multiplicity = 2

                          Input orientation:
 ---------------------------------------------------------------------
 Center     Atomic      Atomic             Coordinates (Angstroms)
 Number     Number       Type             X           Y           Z
 ---------------------------------------------------------------------
      1          6           0       -3.391442   -0.719616   -0.375611
      2          6           0       -1.982218   -0.279594   -0.083711
      3          6           0       -1.711758    0.708679    0.842111
      4          6           0       -0.393713    1.158596    1.151898
      5          8           0       -0.174248    2.080775    2.018830
      6          6           0        0.706810    0.522738    0.437063
      7          6           0        2.049048    0.923029    0.696768
      8          8           0        2.307583    1.889960    1.603101
      9          6           0        3.102369    0.317995    0.015972
     10          6           0        2.838898   -0.686550   -0.926140
     11          6           0        1.541213   -1.092232   -1.195199
     12          6           0        0.459570   -0.496641   -0.520842
     13          6           0       -0.917546   -0.935965   -0.814855
     14          8           0       -1.156964   -1.838425   -1.660980
     15          1           0       -4.111543   -0.160403    0.228259
     16          1           0       -3.516866   -1.789512   -0.177071
     17          1           0       -3.633416   -0.581448   -1.434925
     18          1           0       -2.521778    1.191705    1.382673
     19          1           0        1.397622    2.163411    1.951332
     20          1           0        4.114869    0.641043    0.232179
     21          1           0        3.669640   -1.150758   -1.450578
     22          1           0        1.323868   -1.866785   -1.920274
 ---------------------------------------------------------------------

 SCF Done:  E(UB3LYP) =  -649.928162225     A.U. after    1 cycles

 Alpha  occ. eigenvalues --  -19.00046 -18.95731 -18.94520 -10.10817 -10.09921
 Alpha  occ. eigenvalues --  -10.09088 -10.05502 -10.04969 -10.04831 -10.04687
 Alpha  occ. eigenvalues --  -10.04611 -10.04379 -10.03847 -10.03583  -0.92335
 Alpha  occ. eigenvalues --   -0.87045  -0.86799  -0.72912  -0.68810  -0.63498
 Alpha  occ. eigenvalues --   -0.61484  -0.58096  -0.53958  -0.49940  -0.47073
 Alpha  occ. eigenvalues --   -0.44412  -0.38622  -0.38487  -0.36879  -0.33712
 Alpha  occ. eigenvalues --   -0.32675  -0.30910  -0.30638  -0.29003  -0.28991
 Alpha  occ. eigenvalues --   -0.27072  -0.26934  -0.25669  -0.25011  -0.25003
 Alpha  occ. eigenvalues --   -0.24451  -0.22978  -0.21797  -0.20144  -0.14785
 Alpha  occ. eigenvalues --   -0.12491  -0.12300  -0.10712  -0.10102  -0.02517
 Alpha virt. eigenvalues --    0.08903   0.09095   0.10185   0.10623   0.11061
 Alpha virt. eigenvalues --    0.11616   0.12276   0.13197   0.14132   0.14360
 Alpha virt. eigenvalues --    0.16411   0.16438   0.16859   0.17526   0.18806

  Beta  occ. eigenvalues --  -19.00031 -18.95163 -18.93853 -10.10814 -10.09723
  Beta  occ. eigenvalues --  -10.08970 -10.05465 -10.04763 -10.04761 -10.04699
  Beta  occ. eigenvalues --  -10.04612 -10.04314 -10.03829 -10.03487  -0.92228
  Beta  occ. eigenvalues --   -0.86080  -0.85661  -0.72689  -0.68326  -0.63290
  Beta  occ. eigenvalues --   -0.61260  -0.57808  -0.53269  -0.49728  -0.46779
  Beta  occ. eigenvalues --   -0.44196  -0.38503  -0.38288  -0.36563  -0.33501
  Beta  occ. eigenvalues --   -0.32577  -0.30406  -0.30169  -0.28686  -0.28626
  Beta  occ. eigenvalues --   -0.26859  -0.26601  -0.25537  -0.24865  -0.23858
  Beta  occ. eigenvalues --   -0.22787  -0.22236  -0.21605  -0.19169  -0.12181
  Beta  occ. eigenvalues --   -0.11815  -0.11773  -0.10105  -0.09360
  Beta virt. eigenvalues --    0.03992   0.08900   0.09090   0.11060   0.11062
  Beta virt. eigenvalues --    0.11617   0.11716   0.12284   0.13365   0.14126
  Beta virt. eigenvalues --    0.14365   0.16457   0.16462   0.17439   0.17523

 Mulliken charges and spin densities:
               1          2
     1  C   -0.365751   0.000587
     2  C    0.781746   0.127728
     3  C   -0.260984   0.059501
     4  C   -1.136859   0.093823
     5  O   -0.447004   0.203256
     6  C    0.931652   0.029142
     7  C   -0.356758   0.020900
     8  O   -0.369504   0.006031
     9  C   -0.015367   0.047578
    10  C   -0.313337   0.028108
    11  C   -0.140263   0.040679
    12  C    0.434866   0.019974
    13  C   -0.684676   0.080489
    14  O   -0.378324   0.250577
    15  H    0.122762  -0.000014
    16  H    0.155626   0.007187
    17  H    0.155724   0.007160
    18  H    0.117229  -0.008426
    19  H    0.355481  -0.004693
    20  H    0.136674  -0.004024
    21  H    0.128037  -0.002371
    22  H    0.149028  -0.003190
 Sum of Mulliken charges =  -1.00000   1.00000

 Dipole moment (field-independent basis, Debye):
    X=             -0.5114    Y=             -1.0770    Z=             -0.9890  Tot=              1.5490
 Quadrupole moment (field-independent basis, Debye-Ang):
   XX=            -97.5214   YY=           -104.3949   ZZ=           -101.7582
   XY=             -8.0545   XZ=             -6.7759   YZ=            -15.8991

  Exact polarizability: 217.068  11.723 139.711  -1.349  54.392 134.522
 Approx polarizability: 317.430  19.958 247.293   1.445 113.377 236.516

                      1                      2                      3
                      A                      A                      A
 Frequencies --     83.2803               102.0977               115.3603
 Red. masses --      4.7882                 2.3800                 1.5064
 Frc consts  --      0.0196                 0.0146                 0.0118
 IR Inten    --      5.7161                 0.4572                 0.7180

                      4                      5                      6
                      A                      A                      A
 Frequencies --    173.1614               220.0064               258.0756
 Red. masses --      6.3313                 4.0426                 3.4763
 Frc consts  --      0.1119                 0.1153                 0.1364
 IR Inten    --      0.7514                 0.1812                 2.1416

                      7                      8                      9
                      A                      A                      A
 Frequencies --    261.5854               315.7323               372.1096
 Red. masses --      5.0614                 5.0540                 5.2337
 Frc consts  --      0.2041                 0.2968                 0.4270
 IR Inten    --      0.0052                 0.2916                 0.0425

                     10                     11                     12
                      A                      A                      A
 Frequencies --    378.1919               411.4732               445.7160
 Red. masses --      7.0516                 9.9538                 8.4729
 Frc consts  --      0.5942                 0.9929                 0.9917
 IR Inten    --     12.3409                20.8337                 5.3535

                     13                     14                     15
                      A                      A                      A
 Frequencies --    471.9449               480.4045               526.2594
 Red. masses --      3.9253                 6.3063                 7.5308
 Frc consts  --      0.5151                 0.8575                 1.2288
 IR Inten    --      0.0424                 2.8059                 2.6377

                     16                     17                     18
                      A                      A                      A
 Frequencies --    558.9989               604.6898               647.2334
 Red. masses --      4.6656                 7.2476                 3.6363
 Frc consts  --      0.8590                 1.5614                 0.8975
 IR Inten    --      3.2775                18.1216                 0.6668

                     19                     20                     21
                      A                      A                      A
 Frequencies --    667.9057               695.3520               719.9053
 Red. masses --      4.3311                 6.1336                 4.2706
 Frc consts  --      1.1384                 1.7473                 1.3040
 IR Inten    --      6.5596                 7.7048                 0.1556

                     22                     23                     24
                      A                      A                      A
 Frequencies --    746.0500               792.6699               806.3835
 Red. masses --      2.2868                 2.2992                 4.6241
 Frc consts  --      0.7499                 0.8512                 1.7716
 IR Inten    --     37.7509                37.4805                 1.1479

                     25                     26                     27
                      A                      A                      A
 Frequencies --    857.1165               875.4047               922.0463
 Red. masses --      1.4162                 1.4780                 6.5371
 Frc consts  --      0.6130                 0.6673                 3.2745
 IR Inten    --     14.1536                 4.8056                45.5223

                     28                     29                     30
                      A                      A                      A
 Frequencies --    959.8803               968.5962               999.4673
 Red. masses --      1.2684                 1.0538                 2.1250
 Frc consts  --      0.6886                 0.5825                 1.2507
 IR Inten    --      0.8685                74.2948                11.4064

                     31                     32                     33
                      A                      A                      A
 Frequencies --   1041.3061              1045.6241              1067.8841
 Red. masses --      2.4534                 1.4827                 2.1508
 Frc consts  --      1.5674                 0.9551                 1.4451
 IR Inten    --     16.6553                 1.1796                17.5303

                     34                     35                     36
                      A                      A                      A
 Frequencies --   1134.4335              1167.9414              1198.6919
 Red. masses --      2.5084                 1.2523                 2.1224
 Frc consts  --      1.9020                 1.0065                 1.7968
 IR Inten    --      3.9545                 8.9529                43.3085

                     37                     38                     39
                      A                      A                      A
 Frequencies --   1238.4031              1279.4550              1300.6228
 Red. masses --      3.9618                 2.0222                 4.9589
 Frc consts  --      3.5799                 1.9504                 4.9424
 IR Inten    --      2.5863                82.0366                 3.0823

                     40                     41                     42
                      A                      A                      A
 Frequencies --   1330.6248              1388.2264              1396.2163
 Red. masses --      4.2078                 3.9789                 1.3226
 Frc consts  --      4.3895                 4.5179                 1.5191
 IR Inten    --     93.5860                37.3291                33.8898

                     43                     44                     45
                      A                      A                      A
 Frequencies --   1435.9795              1440.9122              1464.6688
 Red. masses --      5.8670                 3.0383                 1.0464
 Frc consts  --      7.1279                 3.7167                 1.3226
 IR Inten    --    123.0876                 2.8782                 4.4744

                     46                     47                     48
                      A                      A                      A
 Frequencies --   1477.4679              1497.0674              1522.9674
 Red. masses --      1.4090                 2.6956                 3.4439
 Frc consts  --      1.8122                 3.5595                 4.7063
 IR Inten    --      9.4410                15.6973               419.8713

                     49                     50                     51
                      A                      A                      A
 Frequencies --   1548.5293              1582.0912              1626.4716
 Red. masses --      4.4761                 2.9667                 5.7674
 Frc consts  --      6.3239                 4.3750                 8.9893
 IR Inten    --    237.7811                14.3643               144.5397

                     52                     53                     54
                      A                      A                      A
 Frequencies --   1662.2721              2879.7467              3008.1260
 Red. masses --      2.6734                 1.0749                 1.0344
 Frc consts  --      4.3524                 5.2520                 5.5150
 IR Inten    --     58.7107               473.7756                87.8746

                     55                     56                     57
                      A                      A                      A
 Frequencies --   3050.1833              3080.0506              3136.1220
 Red. masses --      1.0987                 1.1024                 1.0866
 Frc consts  --      6.0227                 6.1616                 6.2963
 IR Inten    --     31.6686                26.0732                34.7685

                     58                     59                     60
                      A                      A                      A
 Frequencies --   3139.3694              3170.8870              3190.9308
 Red. masses --      1.0887                 1.0917                 1.0917
 Frc consts  --      6.3220                 6.4672                 6.5494
 IR Inten    --     30.9029                31.8496                14.1771

 - Thermochemistry -
 -------------------
 Temperature   298.150 Kelvin.  Pressure   1.00000 Atm.
 Atom     1 has atomic number  6 and mass  12.00000

 Molecular mass:   188.04734 amu.
 Principal axes and moments of inertia in atomic units:
                           1         2         3
     Eigenvalues --  1610.871062745.676414345.55178
           X            0.91590  -0.39575   0.06721
           Y            0.32858   0.64294  -0.69185
           Z            0.23059   0.65575   0.71890
 This molecule is an asymmetric top.
 Rotational symmetry number  1.
 Warning -- assumption of classical behavior for rotation
           may cause significant error
 Rotational temperatures (Kelvin)      0.05377     0.03155     0.01993
 Rotational constants (GHZ):           1.12035     0.65730     0.41531
 Zero-point vibrational energy     424317.6 (Joules/Mol)
                                  101.41435 (Kcal/Mol)
 Warning -- explicit consideration of  17 degrees of freedom as
           vibrations may cause significant error
 Vibrational temperatures:    119.82   146.90   165.98   249.14   316.54
          (Kelvin)            371.31   376.36   454.27   535.38   544.13
                              592.02   641.29   679.02   691.19   757.17
                              804.27   870.01   931.22   960.97  1000.46
                             1035.78  1073.40  1140.48  1160.21  1233.20
                             1259.51  1326.62  1381.05  1393.59  1438.01
                             1498.21  1504.42  1536.45  1632.20  1680.41
                             1724.65  1781.79  1840.85  1871.31  1914.47
                             1997.35  2008.84  2066.05  2073.15  2107.33
                             2125.75  2153.95  2191.21  2227.99  2276.28
                             2340.13  2391.64  4143.31  4328.02  4388.53
                             4431.51  4512.18  4516.85  4562.20  4591.04

 Zero-point correction=                           0.161614 (Hartree/Particle)
 Thermal correction to Energy=                    0.172682
 Thermal correction to Enthalpy=                  0.173626
 Thermal correction to Gibbs Free Energy=         0.124231
 Sum of electronic and zero-point Energies=           -649.766548
 Sum of electronic and thermal Energies=              -649.755481
 Sum of electronic and thermal Enthalpies=            -649.754536
 Sum of electronic and thermal Free Energies=         -649.803932

                     E (Thermal)             CV                S
                      KCal/Mol        Cal/Mol-Kelvin    Cal/Mol-Kelvin
 Total                  108.359             43.914            103.961
 Electronic               0.000              0.000              1.377
 Translational            0.889              2.981             41.600
 Rotational               0.889              2.981             31.331
 Vibrational            106.582             37.952             29.653
 Vibration     1          0.600              1.961              3.812
 Vibration     2          0.604              1.947              3.414
 Vibration     3          0.608              1.937              3.177
 Vibration     4          0.627              1.875              2.401
 Vibration     5          0.647              1.811              1.959
 Vibration     6          0.667              1.749              1.675
 Vibration     7          0.669              1.743              1.651
 Vibration     8          0.703              1.644              1.332
 Vibration     9          0.744              1.529              1.071
 Vibration    10          0.748              1.517              1.046
 Vibration    11          0.775              1.445              0.921
 Vibration    12          0.805              1.370              0.809
 Vibration    13          0.829              1.312              0.732
 Vibration    14          0.837              1.294              0.709
 Vibration    15          0.881              1.192              0.596
 Vibration    16          0.915              1.120              0.526
 Vibration    17          0.963              1.022              0.442

 Optimization completed.
    -- Stationary point found.
 Normal termination of Gaussian 16 at Mon Jan  8 21:52:26 2024.
