 Q-Chem 5.4, Q-Chem, Inc., Pleasanton, CA (2021)
 Q-Chem 5.4.0 for Intel X86 EM64T Linux

User input:
--------------------------------------------------------------
$molecule
-1 2
C                 -3.3914420000     -0.7196160000     -0.3756110000
C                 -1.9822180000     -0.2795940000     -0.0837110000
C                 -1.7117580000      0.7086790000      0.8421110000
C                 -0.3937130000      1.1585960000      1.1518980000
O                 -0.1742480000      2.0807750000      2.0188300000
C                  0.7068100000      0.5227380000      0.4370630000
C                  2.0490480000      0.9230290000      0.6967680000
O                  2.3075830000      1.8899600000      1.6031010000
C                  3.1023690000      0.3179950000      0.0159720000
C                  2.8388980000     -0.6865500000     -0.9261400000
C                  1.5412130000     -1.0922320000     -1.1951990000
C                  0.4595700000     -0.4966410000     -0.5208420000
C                 -0.9175460000     -0.9359650000     -0.8148550000
O                 -1.1569640000     -1.8384250000     -1.6609800000
H                 -4.1115430000     -0.1604030000      0.2282590000
H                 -3.5168660000     -1.7895120000     -0.1770710000
H                 -3.6334160000     -0.5814480000     -1.4349250000
H                 -2.5217780000      1.1917050000      1.3826730000
H                  1.3976220000      2.1634110000      1.9513320000
H                  4.1148690000      0.6410430000      0.2321790000
H                  3.6696400000     -1.1507580000     -1.4505780000
H                  1.3238680000     -1.8667850000     -1.9202740000
$end
$rem
MAX_SCF_CYCLES=200
BASIS  =  6-311++G(d,p)
GUI  =  2
JOB_TYPE  =  SP
METHOD  =  B3LYP
SOLVENT_METHOD = COSMO
$end
$solvent
dielectric 37.219
opticaldielectric 1.43
$end

--------------------------------------------------------------

             Standard Nuclear Orientation (Angstroms)
    I     Atom           X                Y                Z
 ----------------------------------------------------------------
    1      C       3.6883511678     0.3725288595     0.0001151250
    2      C       2.1834577242     0.3667878451    -0.0000146560
    3      C       1.4571664890     1.5413003190    -0.0000291701
    4      C       0.0311014382     1.5857343695    -0.0000440594
    5      O      -0.6164401651     2.6951666380    -0.0000223520
    6      C      -0.6700052941     0.3071004514    -0.0000317044
    7      C      -2.0942164531     0.2770173295    -0.0000023403
    8      O      -2.7992328876     1.4286193605     0.0000297985
    9      C      -2.7669638707    -0.9421813313     0.0000373216
   10      C      -2.0392081400    -2.1407113650     0.0000352220
   11      C      -0.6532304914    -2.1359211017     0.0000063471
   12      C       0.0500509897    -0.9173839709    -0.0000339726
   13      C       1.5251296277    -0.9237643705    -0.0000601767
   14      O       2.1814251865    -1.9993845105    -0.0000564454
   15      H       4.0781341481     1.3942878698     0.0012811156
   16      H       4.0822165365    -0.1565506916    -0.8743971175
   17      H       4.0819656548    -0.1585351996     0.8735145550
   18      H       1.9659417425     2.5019259142    -0.0000176762
   19      H      -2.0974022323     2.1576619050     0.0000305848
   20      H      -3.8515094933    -0.9374358868     0.0000580715
   21      H      -2.5760786708    -3.0853946909     0.0000587129
   22      H      -0.0790838787    -3.0542133326    -0.0000038719
 ----------------------------------------------------------------

    9    -649.9281326379      7.11e-06  Convergence criterion met
 Total energy in the final basis set =     -649.9281326379
    4    -650.0092288404      9.65e-06  Convergence criterion met
 Total energy in the final basis set =     -650.0092288404

                    Orbital Energies (a.u.)
 --------------------------------------------------------------

 Alpha MOs
 -- Occupied --
-19.1343 -19.0947 -19.0828 -10.2365 -10.2330 -10.2253 -10.1775 -10.1773
-10.1759 -10.1758 -10.1671 -10.1642 -10.1628 -10.1568  -1.0574  -1.0080
 -1.0060  -0.8575  -0.8144  -0.7586  -0.7433  -0.7034  -0.6667  -0.6261
 -0.5950  -0.5739  -0.5145  -0.5096  -0.5001  -0.4648  -0.4497  -0.4368
 -0.4362  -0.4245  -0.4140  -0.4006  -0.3892  -0.3815  -0.3785  -0.3779
 -0.3753  -0.3545  -0.3489  -0.3323  -0.2804  -0.2608  -0.2512  -0.2446
 -0.2321  -0.1588

 Beta MOs
 -- Occupied --
-19.1341 -19.0894 -19.0766 -10.2364 -10.2308 -10.2237 -10.1768 -10.1759
-10.1755 -10.1755 -10.1665 -10.1639 -10.1619 -10.1570  -1.0562  -0.9989
 -0.9954  -0.8552  -0.8096  -0.7566  -0.7407  -0.6998  -0.6604  -0.6239
 -0.5922  -0.5715  -0.5133  -0.5075  -0.4966  -0.4624  -0.4486  -0.4340
 -0.4272  -0.4199  -0.4089  -0.3981  -0.3880  -0.3769  -0.3741  -0.3696
 -0.3585  -0.3528  -0.3473  -0.3228  -0.2567  -0.2563  -0.2450  -0.2391
 -0.2239

          Ground-State Mulliken Net Atomic Charges

     Atom                 Charge (a.u.)    Spin (a.u.)
  --------------------------------------------------------
      1 C                    -0.364653       0.001496
      2 C                     0.590603       0.121211
      3 C                    -0.434323       0.046391
      4 C                    -0.901542       0.118673
      5 O                    -0.547405       0.183020
      6 C                     0.975979       0.023293
      7 C                    -0.244164       0.025297
      8 O                    -0.421315       0.007607
      9 C                    -0.177958       0.047797
     10 C                    -0.441846       0.024469
     11 C                    -0.137865       0.055785
     12 C                     0.332413       0.005715
     13 C                    -0.393072       0.119481
     14 O                    -0.497597       0.227682
     15 H                     0.163513       0.000016
     16 H                     0.176871       0.006683
     17 H                     0.176883       0.006658
     18 H                     0.174650      -0.007539
     19 H                     0.381623      -0.004152
     20 H                     0.205703      -0.003912
     21 H                     0.210351      -0.002121
     22 H                     0.173153      -0.003549
  --------------------------------------------------------
  Sum of atomic charges =    -1.000000

                    Cartesian Multipole Moments
 -----------------------------------------------------------------
    Charge (ESU x 10^10)
                -4.8032
    Dipole Moment (Debye)
         X      -0.3606      Y      -1.3445      Z      -0.0005
       Tot       1.3920
    Quadrupole Moments (Debye-Ang)
        XX    -100.3261     XY      20.9884     YY    -109.0217
        XZ      -0.0012     YZ      -0.0028     ZZ     -86.7494

 Total job time:  40.81s(wall), 300.10s(cpu)
        *  Thank you very much for using Q-Chem.  Have a nice day.  *
