 Gaussian 16, Revision A.03,
 Gaussian 16:  ES64L-G16RevA.03 25-Dec-2016

 ----------------------------------------------------------------------
 #P UB3LYP/6-311++G(d,p) nosym opt freq SCRF=(PCM,Solvent=n,n-DiMethylF
 ormamide)
 ----------------------------------------------------------------------

 -------
 Reduced
 -------
 Symbolic Z-matrix:
 Charge = -2 Multiplicity = 1

 SCF Done:  E(UB3LYP) =  -995.144892326     A.U. after   17 cycles
 SCF Done:  E(UB3LYP) =  -995.145558473     A.U. after   13 cycles
 SCF Done:  E(UB3LYP) =  -995.145676703     A.U. after   13 cycles
 SCF Done:  E(UB3LYP) =  -995.145681588     A.U. after   12 cycles
 SCF Done:  E(UB3LYP) =  -995.145684186     A.U. after   11 cycles
 Optimization completed.
    -- Stationary point found.
 Normal termination of Gaussian 16 at Sun Feb 11 01:42:31 2024.

 ----------------------------------------------------------------------
 #P Geom=AllCheck Guess=TCheck SCRF=Check GenChk UB3LYP/6-311++G(d,p) F
 req
 ----------------------------------------------------------------------

 Structure from the checkpoint file:  "229-an.chk"
 -------
 Reduced
 -------
 Charge = -2 Multiplicity = 1

                          Input orientation:
 ---------------------------------------------------------------------
 Center     Atomic      Atomic             Coordinates (Angstroms)
 Number     Number       Type             X           Y           Z
 ---------------------------------------------------------------------
      1          6           0        5.762247   -5.125416    1.237678
      2          6           0        6.774069   -5.038431    0.301872
      3          6           0        6.685478   -4.088760   -0.741717
      4          6           0        4.619886   -4.285857    1.191660
      5          6           0        4.529459   -3.320068    0.127957
      6          6           0        5.585698   -3.256364   -0.813953
      7          6           0        3.590218   -4.435011    2.219638
      8          6           0        2.536405   -3.526980    2.043611
      9          6           0        2.416563   -2.569072    1.009665
     10          6           0        3.388926   -2.416571    0.007199
     11          8           0        3.687567   -5.317530    3.169194
     12          8           0        3.299307   -1.547127   -0.962583
     13          1           0        5.817823   -5.847913    2.043928
     14          1           0        7.635367   -5.696421    0.366360
     15          1           0        5.501799   -2.520690   -1.605925
     16         17           0        1.190976   -3.573095    3.244089
     17          1           0        7.478449   -4.014666   -1.479552
     18          1           0        1.542552   -1.925848    0.986819
 ---------------------------------------------------------------------

 SCF Done:  E(UB3LYP) =  -995.145684186     A.U. after    1 cycles

 Alpha  occ. eigenvalues -- -101.52431 -19.01994 -19.01805 -10.18090 -10.17999
 Alpha  occ. eigenvalues --  -10.17681 -10.15371 -10.15288 -10.14986 -10.14983
 Alpha  occ. eigenvalues --  -10.14807 -10.14497 -10.12796  -9.43870  -7.20243
 Alpha  occ. eigenvalues --   -7.19414  -7.19368  -0.93418  -0.92673  -0.83393
 Alpha  occ. eigenvalues --   -0.82712  -0.76101  -0.72689  -0.70040  -0.64894
 Alpha  occ. eigenvalues --   -0.59105  -0.57709  -0.53177  -0.48113  -0.47349
 Alpha  occ. eigenvalues --   -0.43816  -0.42498  -0.40439  -0.38744  -0.38293
 Alpha  occ. eigenvalues --   -0.38232  -0.36082  -0.35213  -0.34005  -0.32507
 Alpha  occ. eigenvalues --   -0.31945  -0.31022  -0.30017  -0.29023  -0.23241
 Alpha  occ. eigenvalues --   -0.22641  -0.21513  -0.20227  -0.19823  -0.12096
 Alpha virt. eigenvalues --   -0.00956   0.00180   0.00364   0.01293   0.01801
 Alpha virt. eigenvalues --    0.02741   0.03386   0.04689   0.05245   0.05571
 Alpha virt. eigenvalues --    0.07003   0.07021   0.07232   0.07333   0.08697

  Beta  occ. eigenvalues -- -101.52431 -19.01994 -19.01805 -10.18090 -10.17999
  Beta  occ. eigenvalues --  -10.17681 -10.15371 -10.15288 -10.14986 -10.14983
  Beta  occ. eigenvalues --  -10.14807 -10.14497 -10.12796  -9.43870  -7.20243
  Beta  occ. eigenvalues --   -7.19414  -7.19368  -0.93418  -0.92673  -0.83393
  Beta  occ. eigenvalues --   -0.82712  -0.76101  -0.72689  -0.70040  -0.64894
  Beta  occ. eigenvalues --   -0.59105  -0.57709  -0.53177  -0.48113  -0.47349
  Beta  occ. eigenvalues --   -0.43816  -0.42498  -0.40439  -0.38744  -0.38293
  Beta  occ. eigenvalues --   -0.38232  -0.36082  -0.35213  -0.34005  -0.32507
  Beta  occ. eigenvalues --   -0.31945  -0.31022  -0.30017  -0.29023  -0.23241
  Beta  occ. eigenvalues --   -0.22641  -0.21513  -0.20227  -0.19823  -0.12096
  Beta virt. eigenvalues --   -0.00956   0.00180   0.00364   0.01293   0.01801
  Beta virt. eigenvalues --    0.02741   0.03386   0.04689   0.05245   0.05571
  Beta virt. eigenvalues --    0.07003   0.07021   0.07232   0.07333   0.08697

 Mulliken charges and spin densities:
               1          2
     1  C   -0.101582  -0.000000
     2  C   -0.422013   0.000000
     3  C   -0.443000   0.000000
     4  C    0.125438   0.000000
     5  C    0.297438  -0.000000
     6  C   -0.006358  -0.000000
     7  C   -1.188120  -0.000000
     8  C    1.201936   0.000000
     9  C    0.031407  -0.000000
    10  C   -1.082994   0.000000
    11  O   -0.667301   0.000000
    12  O   -0.707421  -0.000000
    13  H    0.146763  -0.000000
    14  H    0.166313   0.000000
    15  H    0.148116  -0.000000
    16  Cl   0.190638   0.000000
    17  H    0.163535   0.000000
    18  H    0.147205   0.000000
 Sum of Mulliken charges =  -2.00000   0.00000

 Dipole moment (field-independent basis, Debye):
    X=            -32.2753    Y=             33.3686    Z=            -12.2396  Tot=             48.0101
 Quadrupole moment (field-independent basis, Debye-Ang):
   XX=           -209.0986   YY=           -233.5346   ZZ=           -143.7872
   XY=            114.7457   XZ=            -37.4184   YZ=             69.8810

  Exact polarizability: 291.865 -59.935 208.693 -70.504 -51.833 242.572
 Approx polarizability: 319.831 -69.235 237.356 -73.782 -65.061 271.684

                      1                      2                      3
                      A                      A                      A
 Frequencies --     71.9069               132.6133               168.2772
 Red. masses --     10.4468                 4.2766                 9.7857
 Frc consts  --      0.0318                 0.0443                 0.1633
 IR Inten    --     17.0783                 1.4721                 9.0786

                      4                      5                      6
                      A                      A                      A
 Frequencies --    212.8080               234.2958               270.0669
 Red. masses --      9.8458                 4.9360                 8.2097
 Frc consts  --      0.2627                 0.1596                 0.3528
 IR Inten    --      9.4697                 0.0032                 6.4817

                      7                      8                      9
                      A                      A                      A
 Frequencies --    320.7831               355.8788               377.6490
 Red. masses --     19.7568                10.0319                 8.3436
 Frc consts  --      1.1978                 0.7486                 0.7011
 IR Inten    --      2.1592                15.7578                 0.0664

                     10                     11                     12
                      A                      A                      A
 Frequencies --    439.8819               472.4995               503.1548
 Red. masses --      3.1814                 9.7306                 3.9653
 Frc consts  --      0.3627                 1.2799                 0.5915
 IR Inten    --      8.2822                 1.5489                 0.5529

                     13                     14                     15
                      A                      A                      A
 Frequencies --    507.2967               599.7767               634.7922
 Red. masses --      9.1315                 7.2992                 2.5443
 Frc consts  --      1.3846                 1.5471                 0.6041
 IR Inten    --     13.4194                10.8334                 0.5980

                     16                     17                     18
                      A                      A                      A
 Frequencies --    655.4507               687.5852               721.7081
 Red. masses --      6.2868                 3.4548                 6.2593
 Frc consts  --      1.5913                 0.9623                 1.9209
 IR Inten    --      3.6270                36.3249                34.5951

                     19                     20                     21
                      A                      A                      A
 Frequencies --    768.8096               788.4469               793.8838
 Red. masses --      1.4147                 2.4603                 9.4720
 Frc consts  --      0.4927                 0.9011                 3.5173
 IR Inten    --    147.9727                 1.7065               416.0900

                     22                     23                     24
                      A                      A                      A
 Frequencies --    813.2930               835.8620               871.2504
 Red. masses --      2.4732                 5.1589                 1.7209
 Frc consts  --      0.9638                 2.1236                 0.7697
 IR Inten    --     15.6503                 8.6452                 0.0328

                     25                     26                     27
                      A                      A                      A
 Frequencies --    972.9016               985.2983              1019.7797
 Red. masses --      1.3717                 1.2633                 2.2770
 Frc consts  --      0.7649                 0.7226                 1.3952
 IR Inten    --      4.0042                 0.1003                49.3878

                     28                     29                     30
                      A                      A                      A
 Frequencies --   1066.1721              1087.4039              1127.0809
 Red. masses --      3.1551                 2.9312                 1.6353
 Frc consts  --      2.1131                 2.0421                 1.2239
 IR Inten    --      4.7059               103.6705               164.4144

                     31                     32                     33
                      A                      A                      A
 Frequencies --   1150.0370              1198.5101              1218.3471
 Red. masses --      1.6341                 1.7317                 2.6856
 Frc consts  --      1.2733                 1.4655                 2.3488
 IR Inten    --      8.1777               265.2724               291.8240

                     34                     35                     36
                      A                      A                      A
 Frequencies --   1264.3066              1314.5704              1355.0912
 Red. masses --      2.1168                 7.3648                 8.4731
 Frc consts  --      1.9936                 7.4985                 9.1670
 IR Inten    --     79.7840               373.4012               645.5086

                     37                     38                     39
                      A                      A                      A
 Frequencies --   1364.2550              1427.1607              1435.6678
 Red. masses --      5.5173                 2.4505                 3.0363
 Frc consts  --      6.0501                 2.9408                 3.6873
 IR Inten    --    779.1974               399.9118                87.1685

                     40                     41                     42
                      A                      A                      A
 Frequencies --   1509.0993              1515.6141              1593.5244
 Red. masses --      3.7439                 5.2886                 8.1661
 Frc consts  --      5.0235                 7.1576                12.2174
 IR Inten    --    165.1431               498.1930                 1.1124

                     43                     44                     45
                      A                      A                      A
 Frequencies --   1614.4136              3141.7234              3152.7627
 Red. masses --      5.6611                 1.0849                 1.0888
 Frc consts  --      8.6932                 6.3094                 6.3765
 IR Inten    --      2.5664                17.6762                50.9478

                     46                     47                     48
                      A                      A                      A
 Frequencies --   3157.1935              3175.0004              3178.9986
 Red. masses --      1.0898                 1.0911                 1.0935
 Frc consts  --      6.4000                 6.4802                 6.5113
 IR Inten    --     34.9791                34.9474                57.9806

 - Thermochemistry -
 -------------------
 Temperature   298.150 Kelvin.  Pressure   1.00000 Atm.
 Atom     1 has atomic number  6 and mass  12.00000

 Molecular mass:   191.99781 amu.
 Principal axes and moments of inertia in atomic units:
                           1         2         3
     Eigenvalues --  1473.625303224.882164698.37779
           X            0.79879  -0.36932   0.47491
           Y           -0.05868   0.73780   0.67246
           Z           -0.59874  -0.56502   0.56768
 This molecule is an asymmetric top.
 Rotational symmetry number  1.
 Warning -- assumption of classical behavior for rotation
           may cause significant error
 Rotational temperatures (Kelvin)      0.05878     0.02686     0.01843
 Rotational constants (GHZ):           1.22469     0.55963     0.38412
 Zero-point vibrational energy     312601.5 (Joules/Mol)
                                   74.71354 (Kcal/Mol)
 Warning -- explicit consideration of  14 degrees of freedom as
           vibrations may cause significant error
 Vibrational temperatures:    103.46   190.80   242.11   306.18   337.10
          (Kelvin)            388.57   461.54   512.03   543.35   632.89
                              679.82   723.93   729.89   862.94   913.32
                              943.05   989.28  1038.38  1106.15  1134.40
                             1142.22  1170.15  1202.62  1253.53  1399.79
                             1417.62  1467.24  1533.98  1564.53  1621.62
                             1654.65  1724.39  1752.93  1819.06  1891.37
                             1949.67  1962.86  2053.37  2065.61  2171.26
                             2180.63  2292.73  2322.78  4520.24  4536.12
                             4542.50  4568.12  4573.87

 Zero-point correction=                           0.119064 (Hartree/Particle)
 Thermal correction to Energy=                    0.128944
 Thermal correction to Enthalpy=                  0.129888
 Thermal correction to Gibbs Free Energy=         0.083231
 Sum of electronic and zero-point Energies=           -995.026621
 Sum of electronic and thermal Energies=              -995.016741
 Sum of electronic and thermal Enthalpies=            -995.015796
 Sum of electronic and thermal Free Energies=         -995.062453

                     E (Thermal)             CV                S
                      KCal/Mol        Cal/Mol-Kelvin    Cal/Mol-Kelvin
 Total                   80.913             38.945             98.198
 Electronic               0.000              0.000              0.000
 Translational            0.889              2.981             41.662
 Rotational               0.889              2.981             31.480
 Vibrational             79.136             32.984             25.056
 Vibration     1          0.598              1.967              4.100
 Vibration     2          0.613              1.921              2.908
 Vibration     3          0.625              1.882              2.455
 Vibration     4          0.644              1.821              2.019
 Vibration     5          0.654              1.788              1.846
 Vibration     6          0.674              1.728              1.596
 Vibration     7          0.706              1.634              1.306
 Vibration     8          0.731              1.563              1.140
 Vibration     9          0.748              1.518              1.049
 Vibration    10          0.800              1.383              0.827
 Vibration    11          0.829              1.311              0.731
 Vibration    12          0.858              1.243              0.650
 Vibration    13          0.862              1.234              0.640
 Vibration    14          0.958              1.032              0.450

 Optimization completed.
    -- Stationary point found.
 Normal termination of Gaussian 16 at Sun Feb 11 01:52:35 2024.
