 Q-Chem 5.4, Q-Chem, Inc., Pleasanton, CA (2021)
 Q-Chem 5.4.0 for Intel X86 EM64T Linux

User input:
--------------------------------------------------------------
$molecule
0 1
C                  4.6310200000      1.2097340000     -0.6776150000
C                  3.3275150000      0.5748090000     -0.2628860000
C                  3.3055960000     -0.6891400000      0.3246680000
C                  2.1127790000     -1.3138970000      0.7037810000
O                  2.1397790000     -2.5492910000      1.2609650000
C                  0.8759510000     -0.6660520000      0.4874880000
C                 -0.4212380000     -1.2706720000      0.9299540000
O                 -0.4516690000     -2.2057750000      1.7075650000
C                 -1.6720400000     -0.6523980000      0.3983330000
C                 -2.9343920000     -1.2836840000      0.5267040000
O                 -3.0115940000     -2.5187500000      1.0749320000
C                 -4.0904690000     -0.6512690000      0.0684840000
C                 -4.0274660000      0.6132050000     -0.5099900000
O                 -5.2023390000      1.1657780000     -0.9210250000
C                 -2.8010490000      1.2538870000     -0.6532410000
C                 -1.6447630000      0.6166740000     -0.2112470000
C                 -0.3528270000      1.3372330000     -0.4196660000
O                 -0.3367640000      2.4781440000     -0.8543360000
C                  0.9101180000      0.6038180000     -0.1227990000
C                  2.1096150000      1.2173160000     -0.4801620000
H                  5.4441870000      0.9331750000     -0.0025060000
H                  4.5522490000      2.2982900000     -0.6919810000
H                  4.9153460000      0.8868420000     -1.6849320000
H                  4.2424480000     -1.2127560000      0.5016450000
H                  3.0524120000     -2.8567590000      1.3010750000
H                 -3.9271170000     -2.8193160000      1.0526260000
H                 -5.0559210000     -1.1380360000      0.1607020000
H                 -5.0376870000      2.0348340000     -1.3033140000
H                 -2.7160500000      2.2366080000     -1.1027570000
H                  2.0685700000      2.2004450000     -0.9320700000
$end

$rem
BASIS  =  6-311++G(d,p)
GUI  =  2
JOB_TYPE  =  SP
METHOD  =  B3LYP
SCF_CONVERGENCE  = 8
SOLVENT_METHOD = sm12
$end

$smx
solvent dimethylformamide
charges CM5
$end

--------------------------------------------------------------

             Standard Nuclear Orientation (Angstroms)
    I     Atom           X                Y                Z
 ----------------------------------------------------------------
    1      C       4.6310200000     1.2097340000    -0.6776150000
    2      C       3.3275150000     0.5748090000    -0.2628860000
    3      C       3.3055960000    -0.6891400000     0.3246680000
    4      C       2.1127790000    -1.3138970000     0.7037810000
    5      O       2.1397790000    -2.5492910000     1.2609650000
    6      C       0.8759510000    -0.6660520000     0.4874880000
    7      C      -0.4212380000    -1.2706720000     0.9299540000
    8      O      -0.4516690000    -2.2057750000     1.7075650000
    9      C      -1.6720400000    -0.6523980000     0.3983330000
   10      C      -2.9343920000    -1.2836840000     0.5267040000
   11      O      -3.0115940000    -2.5187500000     1.0749320000
   12      C      -4.0904690000    -0.6512690000     0.0684840000
   13      C      -4.0274660000     0.6132050000    -0.5099900000
   14      O      -5.2023390000     1.1657780000    -0.9210250000
   15      C      -2.8010490000     1.2538870000    -0.6532410000
   16      C      -1.6447630000     0.6166740000    -0.2112470000
   17      C      -0.3528270000     1.3372330000    -0.4196660000
   18      O      -0.3367640000     2.4781440000    -0.8543360000
   19      C       0.9101180000     0.6038180000    -0.1227990000
   20      C       2.1096150000     1.2173160000    -0.4801620000
   21      H       5.4441870000     0.9331750000    -0.0025060000
   22      H       4.5522490000     2.2982900000    -0.6919810000
   23      H       4.9153460000     0.8868420000    -1.6849320000
   24      H       4.2424480000    -1.2127560000     0.5016450000
   25      H       3.0524120000    -2.8567590000     1.3010750000
   26      H      -3.9271170000    -2.8193160000     1.0526260000
   27      H      -5.0559210000    -1.1380360000     0.1607020000
   28      H      -5.0376870000     2.0348340000    -1.3033140000
   29      H      -2.7160500000     2.2366080000    -1.1027570000
   30      H       2.0685700000     2.2004450000    -0.9320700000
 ----------------------------------------------------------------

   15    -954.0058924208      6.51e-09  Convergence criterion met
 Total energy in the final basis set =     -954.0436608519

                    Orbital Energies (a.u.)
 --------------------------------------------------------------

 Alpha MOs
 -- Occupied --
-19.1748 -19.1702 -19.1677 -19.1271 -19.1092 -10.2797 -10.2720 -10.2684
-10.2645 -10.2631 -10.2116 -10.2061 -10.2060 -10.2027 -10.2019 -10.1940
-10.1924 -10.1915 -10.1855 -10.1702  -1.0887  -1.0864  -1.0844  -1.0624
 -1.0463  -0.8890  -0.8779  -0.8167  -0.7827  -0.7710  -0.7680  -0.7157
 -0.6899  -0.6685  -0.6458  -0.6300  -0.6060  -0.5916  -0.5672  -0.5319
 -0.5283  -0.5247  -0.5083  -0.4935  -0.4748  -0.4678  -0.4618  -0.4480
 -0.4444  -0.4398  -0.4335  -0.4225  -0.4216  -0.4140  -0.4133  -0.4069
 -0.3947  -0.3906  -0.3885  -0.3826  -0.3720  -0.3675  -0.3468  -0.3337
 -0.2812  -0.2747  -0.2629  -0.2549  -0.2486  -0.2443

          Ground-State Mulliken Net Atomic Charges

     Atom                 Charge (a.u.)
  ----------------------------------------
      1 C                     0.651339
      2 C                     1.277984
      3 C                     1.182360
      4 C                    -0.465233
      5 O                    -0.201857
      6 C                    -1.227103
      7 C                    -1.699505
      8 O                    -0.278812
      9 C                    -1.084556
     10 C                    -0.038507
     11 O                    -0.200628
     12 C                     1.036436
     13 C                     0.192633
     14 O                    -0.204226
     15 C                     0.755937
     16 C                     0.201701
     17 C                    -1.598875
     18 O                    -0.227893
     19 C                    -0.275246
     20 C                    -0.397814
     21 H                     0.225286
     22 H                     0.219166
     23 H                     0.222822
     24 H                     0.292694
     25 H                     0.329463
     26 H                     0.330226
     27 H                     0.307990
     28 H                     0.325289
     29 H                     0.215890
     30 H                     0.133037
  ----------------------------------------
  Sum of atomic charges =     0.000000

                    Cartesian Multipole Moments
 -----------------------------------------------------------------
    Charge (ESU x 10^10)
                 0.0000
    Dipole Moment (Debye)
         X       1.6014      Y       0.6532      Z      -2.1125
       Tot       2.7301
    Quadrupole Moments (Debye-Ang)
        XX     -70.1336     XY      -3.8038     YY    -117.3868
        XZ       2.8881     YZ       2.4789     ZZ    -120.0198

 Total job time:  770.67s(wall), 5866.55s(cpu)
        *  Thank you very much for using Q-Chem.  Have a nice day.  *
