 Q-Chem 5.4, Q-Chem, Inc., Pleasanton, CA (2021)
 Q-Chem 5.4.0 for Intel X86 EM64T Linux

User input:
--------------------------------------------------------------
$molecule
-1 2
O                  5.0511370000     -0.1786150000     -0.4374710000
C                  3.7184520000      0.1518860000     -0.2502880000
C                  3.4325920000      1.4960340000      0.0665770000
C                  2.1217630000      1.8766300000      0.2629940000
C                  1.0551240000      0.9568730000      0.1555730000
C                 -0.3149000000      1.4156050000      0.3741080000
O                 -0.5877510000      2.6111750000      0.6576600000
C                 -1.3572650000      0.3978230000      0.2431480000
C                 -2.7047680000      0.7730850000      0.4415400000
C                 -3.7184320000     -0.1519400000      0.3282570000
O                 -5.0511760000      0.1785820000      0.5154680000
C                 -3.4326120000     -1.4960450000      0.0113350000
C                 -2.1217520000     -1.8766370000     -0.1850170000
C                 -1.0551420000     -0.9568850000     -0.0775470000
C                  0.3149110000     -1.4156360000     -0.2960660000
O                  0.5877620000     -2.6111600000     -0.5796240000
C                  1.3572730000     -0.3978150000     -0.1651180000
C                  2.7047670000     -0.7731190000     -0.3634740000
H                  5.0960700000     -1.1174060000     -0.6458780000
H                  4.2494320000      2.2044310000      0.1496620000
H                  1.8707500000      2.9023610000      0.5076750000
H                 -2.9030360000      1.8134590000      0.6848630000
H                 -5.0961370000      1.1176130000      0.7227670000
H                 -4.2494240000     -2.2044480000     -0.0719200000
H                 -1.8706680000     -2.9023450000     -0.4297410000
H                  2.9030320000     -1.8135080000     -0.6067330000
$end
$rem
MAX_SCF_CYCLES=200
BASIS  =  6-311++G(d,p)
GUI  =  2
JOB_TYPE  =  SP
METHOD  =  B3LYP
SOLVENT_METHOD = PCM
$end
$pcm
theory = CPCM
$end
$solvent
dielectric 37.219
opticaldielectric 1.43
$end

--------------------------------------------------------------

             Standard Nuclear Orientation (Angstroms)
    I     Atom           X                Y                Z
 ----------------------------------------------------------------
    1      O       5.0511370000    -0.1786150000    -0.4374710000
    2      C       3.7184520000     0.1518860000    -0.2502880000
    3      C       3.4325920000     1.4960340000     0.0665770000
    4      C       2.1217630000     1.8766300000     0.2629940000
    5      C       1.0551240000     0.9568730000     0.1555730000
    6      C      -0.3149000000     1.4156050000     0.3741080000
    7      O      -0.5877510000     2.6111750000     0.6576600000
    8      C      -1.3572650000     0.3978230000     0.2431480000
    9      C      -2.7047680000     0.7730850000     0.4415400000
   10      C      -3.7184320000    -0.1519400000     0.3282570000
   11      O      -5.0511760000     0.1785820000     0.5154680000
   12      C      -3.4326120000    -1.4960450000     0.0113350000
   13      C      -2.1217520000    -1.8766370000    -0.1850170000
   14      C      -1.0551420000    -0.9568850000    -0.0775470000
   15      C       0.3149110000    -1.4156360000    -0.2960660000
   16      O       0.5877620000    -2.6111600000    -0.5796240000
   17      C       1.3572730000    -0.3978150000    -0.1651180000
   18      C       2.7047670000    -0.7731190000    -0.3634740000
   19      H       5.0960700000    -1.1174060000    -0.6458780000
   20      H       4.2494320000     2.2044310000     0.1496620000
   21      H       1.8707500000     2.9023610000     0.5076750000
   22      H      -2.9030360000     1.8134590000     0.6848630000
   23      H      -5.0961370000     1.1176130000     0.7227670000
   24      H      -4.2494240000    -2.2044480000    -0.0719200000
   25      H      -1.8706680000    -2.9023450000    -0.4297410000
   26      H       2.9030320000    -1.8135080000    -0.6067330000
 ----------------------------------------------------------------

    8    -839.6062326880      8.76e-06  Convergence criterion met
 Total energy in the final basis set =     -839.6062326880

                    Orbital Energies (a.u.)
 --------------------------------------------------------------

 Alpha MOs
 -- Occupied --
-19.1543 -19.1543 -19.0763 -19.0763 -10.2362 -10.2362 -10.2247 -10.2247
-10.1760 -10.1760 -10.1746 -10.1746 -10.1727 -10.1727 -10.1702 -10.1702
-10.1681 -10.1681  -1.0604  -1.0604  -1.0035  -1.0010  -0.8622  -0.8511
 -0.7840  -0.7551  -0.7508  -0.7374  -0.6674  -0.6547  -0.6165  -0.6132
 -0.5603  -0.5566  -0.5380  -0.5360  -0.4803  -0.4690  -0.4670  -0.4644
 -0.4299  -0.4298  -0.4265  -0.4164  -0.4154  -0.4135  -0.3995  -0.3992
 -0.3984  -0.3814  -0.3794  -0.3578  -0.3532  -0.3386  -0.3379  -0.3197
 -0.2655  -0.2576  -0.2487  -0.2452  -0.2395  -0.2285  -0.1406

 Beta MOs
 -- Occupied --
-19.1541 -19.1541 -19.0713 -19.0712 -10.2357 -10.2357 -10.2227 -10.2226
-10.1750 -10.1750 -10.1745 -10.1745 -10.1725 -10.1725 -10.1698 -10.1698
-10.1678 -10.1678  -1.0599  -1.0599  -0.9945  -0.9918  -0.8596  -0.8500
 -0.7803  -0.7523  -0.7493  -0.7358  -0.6597  -0.6532  -0.6142  -0.6122
 -0.5575  -0.5558  -0.5372  -0.5340  -0.4778  -0.4672  -0.4654  -0.4637
 -0.4295  -0.4261  -0.4213  -0.4130  -0.4117  -0.4108  -0.3986  -0.3970
 -0.3894  -0.3787  -0.3587  -0.3562  -0.3527  -0.3363  -0.3356  -0.3079
 -0.2555  -0.2487  -0.2441  -0.2348  -0.2342  -0.2232

          Ground-State Mulliken Net Atomic Charges

     Atom                 Charge (a.u.)    Spin (a.u.)
  --------------------------------------------------------
      1 O                    -0.308687       0.005776
      2 C                    -0.713969       0.034605
      3 C                    -0.209121       0.018358
      4 C                     0.105906       0.029009
      5 C                     0.171677       0.006556
      6 C                    -0.523118       0.121130
      7 O                    -0.491308       0.192783
      8 C                     0.371624       0.054609
      9 C                     0.213718       0.044369
     10 C                    -0.714251       0.034572
     11 O                    -0.308714       0.005772
     12 C                    -0.209070       0.018392
     13 C                     0.106183       0.028986
     14 C                     0.171863       0.006584
     15 C                    -0.523167       0.121087
     16 O                    -0.491245       0.192754
     17 C                     0.371908       0.054637
     18 C                     0.213955       0.044337
     19 H                     0.318535      -0.000243
     20 H                     0.224026      -0.002039
     21 H                     0.177960      -0.001700
     22 H                     0.162398      -0.003176
     23 H                     0.318517      -0.000243
     24 H                     0.224039      -0.002042
     25 H                     0.177955      -0.001699
     26 H                     0.162384      -0.003174
  --------------------------------------------------------
  Sum of atomic charges =    -1.000000

                    Cartesian Multipole Moments
 -----------------------------------------------------------------
    Charge (ESU x 10^10)
                -4.8032
    Dipole Moment (Debye)
         X       0.0010      Y      -0.0004      Z      -0.1901
       Tot       0.1901
    Quadrupole Moments (Debye-Ang)
        XX    -116.7735     XY      -7.1661     YY    -130.6055
        XZ      -1.0041     YZ      -3.7799     ZZ    -111.1325

 Total job time:  53.08s(wall), 367.76s(cpu)
        *  Thank you very much for using Q-Chem.  Have a nice day.  *
