 Gaussian 16, Revision A.03,
 Gaussian 16:  ES64L-G16RevA.03 25-Dec-2016

 ----------------------------------------------------------------
 #P UB3LYP/6-311++G(d,p) SCRF=(PCM,Solvent=n,n-DiMethylFormamide)
 ----------------------------------------------------------------

 ------------------
 Radical PCM in DMF
 ------------------
 Symbolic Z-matrix:
 Charge = -1 Multiplicity = 2

                         Standard orientation:
 ---------------------------------------------------------------------
 Center     Atomic      Atomic             Coordinates (Angstroms)
 Number     Number       Type             X           Y           Z
 ---------------------------------------------------------------------
      1          8           0       -5.045206   -0.564633   -0.000115
      2          6           0       -3.730647   -0.126166    0.000039
      3          6           0       -3.523052    1.268738    0.000137
      4          6           0       -2.233279    1.756785    0.000060
      5          6           0       -1.111958    0.897802   -0.000015
      6          6           0        0.232500    1.470158   -0.000095
      7          8           0        0.435761    2.712302   -0.000106
      8          6           0        1.335241    0.509160   -0.000046
      9          6           0        2.662030    0.994522   -0.000082
     10          6           0        3.730627    0.126121   -0.000034
     11          8           0        5.045245    0.564618    0.000103
     12          6           0        3.523065   -1.268751   -0.000064
     13          6           0        2.233264   -1.756781   -0.000051
     14          6           0        1.111977   -0.897791   -0.000023
     15          6           0       -0.232508   -1.470163    0.000035
     16          8           0       -0.435772   -2.712264    0.000062
     17          6           0       -1.335250   -0.509130    0.000007
     18          6           0       -2.662024   -0.994525   -0.000001
     19          1           0       -5.035374   -1.527277    0.000311
     20          1           0       -4.382008    1.930669    0.000250
     21          1           0       -2.041959    2.823742    0.000106
     22          1           0        2.799705    2.072455   -0.000065
     23          1           0        5.035346    1.527258    0.000809
     24          1           0        4.381981   -1.930726   -0.000015
     25          1           0        2.041869   -2.823729   -0.000056
     26          1           0       -2.799690   -2.072458   -0.000083
 ---------------------------------------------------------------------

 SCF Done:  E(UB3LYP) =  -839.598276136     A.U. after   17 cycles

 The electronic state is 2-A.
 Alpha  occ. eigenvalues --  -19.15697 -19.15697 -19.07453 -19.07452 -10.23701
 Alpha  occ. eigenvalues --  -10.23701 -10.22281 -10.22280 -10.17571 -10.17570
 Alpha  occ. eigenvalues --  -10.17512 -10.17512 -10.17381 -10.17381 -10.16976
 Alpha  occ. eigenvalues --  -10.16976 -10.16897 -10.16896  -1.06310  -1.06308
 Alpha  occ. eigenvalues --   -1.00148  -0.99894  -0.86210  -0.85141  -0.78417
 Alpha  occ. eigenvalues --   -0.75531  -0.75119  -0.73779  -0.66702  -0.65564
 Alpha  occ. eigenvalues --   -0.61700  -0.61461  -0.56042  -0.55797  -0.53984
 Alpha  occ. eigenvalues --   -0.53643  -0.47998  -0.46986  -0.46721  -0.46540
 Alpha  occ. eigenvalues --   -0.43079  -0.42942  -0.42765  -0.41511  -0.41460
 Alpha  occ. eigenvalues --   -0.41443  -0.40046  -0.39912  -0.39876  -0.38045
 Alpha  occ. eigenvalues --   -0.37952  -0.35775  -0.35438  -0.33907  -0.33812
 Alpha  occ. eigenvalues --   -0.31928  -0.26529  -0.25744  -0.24642  -0.24544
 Alpha  occ. eigenvalues --   -0.23748  -0.22887  -0.13957
 Alpha virt. eigenvalues --   -0.05347  -0.01250  -0.00487  -0.00467   0.00036
 Alpha virt. eigenvalues --    0.01085   0.01332   0.02364   0.03799   0.04277
 Alpha virt. eigenvalues --    0.04336   0.04566   0.05016   0.06244   0.06316

  Beta  occ. eigenvalues --  -19.15676 -19.15676 -19.06913 -19.06912 -10.23647
  Beta  occ. eigenvalues --  -10.23647 -10.22091 -10.22089 -10.17508 -10.17507
  Beta  occ. eigenvalues --  -10.17465 -10.17464 -10.17360 -10.17360 -10.16936
  Beta  occ. eigenvalues --  -10.16935 -10.16872 -10.16871  -1.06258  -1.06256
  Beta  occ. eigenvalues --   -0.99199  -0.98923  -0.85946  -0.85035  -0.78045
  Beta  occ. eigenvalues --   -0.75254  -0.74977  -0.73628  -0.65935  -0.65422
  Beta  occ. eigenvalues --   -0.61475  -0.61367  -0.55766  -0.55714  -0.53907
  Beta  occ. eigenvalues --   -0.53454  -0.47747  -0.46799  -0.46562  -0.46474
  Beta  occ. eigenvalues --   -0.43039  -0.42724  -0.42149  -0.41263  -0.41202
  Beta  occ. eigenvalues --   -0.40995  -0.39944  -0.39641  -0.38941  -0.37979
  Beta  occ. eigenvalues --   -0.35652  -0.35606  -0.35390  -0.33639  -0.33602
  Beta  occ. eigenvalues --   -0.30729  -0.25522  -0.24852  -0.24145  -0.23361
  Beta  occ. eigenvalues --   -0.23243  -0.22344
  Beta virt. eigenvalues --   -0.08059  -0.04408  -0.00474  -0.00254  -0.00204
  Beta virt. eigenvalues --    0.00037   0.01088   0.01337   0.02373   0.03813
  Beta virt. eigenvalues --    0.04306   0.04563   0.04591   0.05346   0.06248

 Mulliken charges and spin densities:
               1          2
     1  O   -0.292738   0.005430
     2  C   -0.675285   0.034048
     3  C   -0.189898   0.018863
     4  C    0.120693   0.027082
     5  C    0.180761   0.009435
     6  C   -0.576367   0.111442
     7  O   -0.469130   0.200965
     8  C    0.363681   0.058002
     9  C    0.210636   0.041699
    10  C   -0.675396   0.034019
    11  O   -0.292768   0.005426
    12  C   -0.189935   0.018897
    13  C    0.120798   0.027055
    14  C    0.180778   0.009464
    15  C   -0.576466   0.111395
    16  O   -0.469067   0.200932
    17  C    0.363775   0.058035
    18  C    0.210603   0.041666
    19  H    0.300557  -0.000224
    20  H    0.207665  -0.002030
    21  H    0.170660  -0.001628
    22  H    0.148787  -0.003046
    23  H    0.300547  -0.000223
    24  H    0.207668  -0.002033
    25  H    0.170656  -0.001626
    26  H    0.148786  -0.003044
 Sum of Mulliken charges =  -1.00000   1.00000

 Dipole moment (field-independent basis, Debye):
    X=             -0.0011    Y=             -0.0011    Z=              0.0024  Tot=              0.0029
 Quadrupole moment (field-independent basis, Debye-Ang):
   XX=           -119.8724   YY=           -130.2749   ZZ=           -110.3450
   XY=              7.5460   XZ=              0.0025   YZ=              0.0031

 Normal termination of Gaussian 16 at Tue Jan 16 05:41:02 2024.
