 Gaussian 16, Revision A.03,
 Gaussian 16:  ES64L-G16RevA.03 25-Dec-2016

 ----------------------------------------------------------------------
 #P UB3LYP/6-311++G(d,p) nosym opt freq SCRF=(PCM,Solvent=n,n-DiMethylF
 ormamide)
 ----------------------------------------------------------------------

 -------
 Radical
 -------
 Symbolic Z-matrix:
 Charge = -1 Multiplicity = 2

 SCF Done:  E(UB3LYP) =  -3112.56371214     A.U. after   19 cycles
 SCF Done:  E(UB3LYP) =  -3112.56387708     A.U. after   14 cycles
 SCF Done:  E(UB3LYP) =  -3112.56396361     A.U. after   13 cycles
 SCF Done:  E(UB3LYP) =  -3112.56375801     A.U. after   14 cycles
 SCF Done:  E(UB3LYP) =  -3112.56399699     A.U. after   13 cycles
 SCF Done:  E(UB3LYP) =  -3112.56399756     A.U. after   10 cycles
 Optimization completed.
    -- Stationary point found.
 Normal termination of Gaussian 16 at Sat Feb 10 10:18:27 2024.

 ----------------------------------------------------------------------
 #P Geom=AllCheck Guess=TCheck SCRF=Check GenChk UB3LYP/6-311++G(d,p) F
 req
 ----------------------------------------------------------------------

 Structure from the checkpoint file:  "004-rad.chk"
 -------
 Radical
 -------
 Charge = -1 Multiplicity = 2

                          Input orientation:
 ---------------------------------------------------------------------
 Center     Atomic      Atomic             Coordinates (Angstroms)
 Number     Number       Type             X           Y           Z
 ---------------------------------------------------------------------
      1          6           0       -1.095955    1.593380    1.025343
      2          6           0       -2.373269    0.917912    0.906008
      3          6           0       -2.687142   -0.055644   -0.008691
      4          6           0       -1.651521   -0.467309   -0.965613
      5          6           0       -0.365734    0.192224   -0.865991
      6          6           0       -0.108531    1.155144    0.065709
      7         35           0        1.638369    1.982054    0.125350
      8          6           0       -4.077726   -0.712758   -0.049427
      9          6           0       -4.736769   -0.458536   -1.427018
     10          6           0       -5.022334   -0.150878    1.030319
     11          6           0       -3.943417   -2.236120    0.191884
     12          8           0       -0.892532    2.482856    1.899941
     13          8           0       -1.828317   -1.353043   -1.854084
     14          1           0       -3.107246    1.251623    1.629025
     15          1           0        0.391200   -0.119799   -1.575634
     16          1           0       -4.866664    0.614471   -1.599886
     17          1           0       -5.726726   -0.925558   -1.458603
     18          1           0       -4.130682   -0.869802   -2.233298
     19          1           0       -5.195620    0.921822    0.906422
     20          1           0       -4.639262   -0.321772    2.040337
     21          1           0       -5.991087   -0.652808    0.955119
     22          1           0       -3.312892   -2.698992   -0.566314
     23          1           0       -4.931657   -2.706833    0.162145
     24          1           0       -3.507726   -2.433285    1.176463
 ---------------------------------------------------------------------

 SCF Done:  E(UB3LYP) =  -3112.56399756     A.U. after    1 cycles

 Alpha  occ. eigenvalues -- -482.82392 -62.47671 -56.29688 -56.29336 -56.29312
 Alpha  occ. eigenvalues --  -19.08210 -19.07954 -10.22978 -10.22611 -10.21762
 Alpha  occ. eigenvalues --  -10.18486 -10.17633 -10.17222 -10.16377 -10.15193
 Alpha  occ. eigenvalues --  -10.14750 -10.14749  -8.68633  -6.51711  -6.50535
 Alpha  occ. eigenvalues --   -6.50468  -2.62816  -2.62489  -2.62439  -2.61502
 Alpha  occ. eigenvalues --   -2.61502  -1.00429  -1.00064  -0.84527  -0.82002
 Alpha  occ. eigenvalues --   -0.77863  -0.72532  -0.68582  -0.67750  -0.67706
 Alpha  occ. eigenvalues --   -0.60470  -0.57771  -0.52707  -0.48696  -0.47102
 Alpha  occ. eigenvalues --   -0.44318  -0.43859  -0.43493  -0.42292  -0.41778
 Alpha  occ. eigenvalues --   -0.40850  -0.39166  -0.38429  -0.37123  -0.36965
 Alpha  occ. eigenvalues --   -0.36566  -0.35654  -0.33490  -0.32958  -0.32171
 Alpha  occ. eigenvalues --   -0.32110  -0.28815  -0.27667  -0.24819  -0.24809
 Alpha  occ. eigenvalues --   -0.23881  -0.16687
 Alpha virt. eigenvalues --   -0.01379  -0.01052  -0.00311   0.01007   0.01581
 Alpha virt. eigenvalues --    0.01585   0.02761   0.02870   0.03453   0.04074
 Alpha virt. eigenvalues --    0.04293   0.04869   0.05412   0.05674   0.06441

  Beta  occ. eigenvalues -- -482.82391 -62.47671 -56.29690 -56.29333 -56.29312
  Beta  occ. eigenvalues --  -19.07525 -19.07231 -10.22833 -10.22483 -10.21637
  Beta  occ. eigenvalues --  -10.18492 -10.17524 -10.17077 -10.16314 -10.15193
  Beta  occ. eigenvalues --  -10.14743 -10.14743  -8.68632  -6.51715  -6.50529
  Beta  occ. eigenvalues --   -6.50468  -2.62818  -2.62487  -2.62441  -2.61499
  Beta  occ. eigenvalues --   -2.61499  -0.99233  -0.98794  -0.84037  -0.81878
  Beta  occ. eigenvalues --   -0.77660  -0.72263  -0.68199  -0.67728  -0.67073
  Beta  occ. eigenvalues --   -0.60101  -0.57432  -0.52446  -0.48493  -0.46831
  Beta  occ. eigenvalues --   -0.43999  -0.43673  -0.43342  -0.42223  -0.40339
  Beta  occ. eigenvalues --   -0.40232  -0.38141  -0.38110  -0.37035  -0.36376
  Beta  occ. eigenvalues --   -0.36118  -0.34347  -0.33341  -0.32759  -0.32124
  Beta  occ. eigenvalues --   -0.31203  -0.28785  -0.24811  -0.24178  -0.24117
  Beta  occ. eigenvalues --   -0.23257
  Beta virt. eigenvalues --   -0.09440  -0.00931  -0.00296  -0.00027   0.01022
  Beta virt. eigenvalues --    0.01605   0.01972   0.02884   0.03478   0.04096
  Beta virt. eigenvalues --    0.04319   0.04699   0.04985   0.05448   0.05690

 Mulliken charges and spin densities:
               1          2
     1  C   -0.748722   0.108313
     2  C   -0.413468   0.015639
     3  C    1.092372   0.120063
     4  C   -0.739481   0.077087
     5  C   -0.402638   0.097637
     6  C    0.735127   0.099828
     7  Br  -0.174448   0.004500
     8  C    0.617281  -0.028397
     9  C   -0.681144   0.010207
    10  C   -0.504469  -0.000252
    11  C   -0.681347   0.010204
    12  O   -0.457479   0.244658
    13  O   -0.432040   0.258675
    14  H    0.204499  -0.006185
    15  H    0.228942  -0.010649
    16  H    0.134573   0.000869
    17  H    0.150280   0.000101
    18  H    0.174958  -0.001448
    19  H    0.133419  -0.000224
    20  H    0.133348  -0.000230
    21  H    0.170875   0.000069
    22  H    0.174965  -0.001429
    23  H    0.150131   0.000103
    24  H    0.134467   0.000860
 Sum of Mulliken charges =  -1.00000   1.00000

 Dipole moment (field-independent basis, Debye):
    X=              3.6023    Y=             -4.4557    Z=             -0.5952  Tot=              5.7606
 Quadrupole moment (field-independent basis, Debye-Ang):
   XX=           -100.8358   YY=           -119.1842   ZZ=           -113.0377
   XY=             -2.8120   XZ=             -5.1999   YZ=            -18.6702

  Exact polarizability: 250.119  53.367 229.429   6.729  68.371 215.256
 Approx polarizability: 248.878  49.337 258.251   9.509  87.056 247.939

                      1                      2                      3
                      A                      A                      A
 Frequencies --     55.0787                72.5863               150.6687
 Red. masses --      6.3802                 3.5279                 6.4392
 Frc consts  --      0.0114                 0.0110                 0.0861
 IR Inten    --      7.8578                 0.1871                 5.2204

                      4                      5                      6
                      A                      A                      A
 Frequencies --    159.5802               173.9925               210.5160
 Red. masses --      6.2093                 4.4460                 6.7974
 Frc consts  --      0.0932                 0.0793                 0.1775
 IR Inten    --     14.1150                 0.0942                 1.3095

                      7                      8                      9
                      A                      A                      A
 Frequencies --    226.6783               227.7874               259.2023
 Red. masses --      1.4777                 2.3169                 1.1594
 Frc consts  --      0.0447                 0.0708                 0.0459
 IR Inten    --      0.3483                 0.1770                 1.0702

                     10                     11                     12
                      A                      A                      A
 Frequencies --    287.1606               299.0644               332.1936
 Red. masses --      3.4997                 3.3089                 1.1671
 Frc consts  --      0.1700                 0.1744                 0.0759
 IR Inten    --      0.2313                 0.6849                 1.9354

                     13                     14                     15
                      A                      A                      A
 Frequencies --    333.1543               372.3858               403.3204
 Red. masses --      2.9269                 3.0482                 3.1492
 Frc consts  --      0.1914                 0.2490                 0.3018
 IR Inten    --     11.3188                 0.0324                 2.0992

                     16                     17                     18
                      A                      A                      A
 Frequencies --    410.9421               466.6223               479.7361
 Red. masses --      2.6807                 3.7795                12.0026
 Frc consts  --      0.2667                 0.4849                 1.6275
 IR Inten    --      0.9811                24.1457                 7.5977

                     19                     20                     21
                      A                      A                      A
 Frequencies --    502.0786               571.2979               625.9924
 Red. masses --      3.6122                 4.5952                 4.5720
 Frc consts  --      0.5365                 0.8837                 1.0556
 IR Inten    --      1.9006                18.9005                 1.4732

                     22                     23                     24
                      A                      A                      A
 Frequencies --    686.4381               694.5755               748.5717
 Red. masses --      6.5581                 6.2448                 3.0158
 Frc consts  --      1.8207                 1.7751                 0.9957
 IR Inten    --     14.9457                 3.7508                 0.5401

                     25                     26                     27
                      A                      A                      A
 Frequencies --    812.5524               829.7959               855.5349
 Red. masses --      3.3451                 4.9787                 1.6784
 Frc consts  --      1.3013                 2.0198                 0.7238
 IR Inten    --     20.1107               172.1149                 8.7895

                     28                     29                     30
                      A                      A                      A
 Frequencies --    895.7553               928.1731               932.5958
 Red. masses --      1.5344                 1.7542                 1.7435
 Frc consts  --      0.7254                 0.8904                 0.8934
 IR Inten    --     58.1518                 3.0940                 2.6330

                     31                     32                     33
                      A                      A                      A
 Frequencies --    946.2961               959.2105              1032.2654
 Red. masses --      4.2700                 1.1978                 1.7369
 Frc consts  --      2.2529                 0.6493                 1.0905
 IR Inten    --     32.1266                 0.2366               109.6543

                     34                     35                     36
                      A                      A                      A
 Frequencies --   1044.9434              1064.7011              1169.5641
 Red. masses --      1.3847                 1.9462                 7.7928
 Frc consts  --      0.8908                 1.2998                 6.2805
 IR Inten    --      0.1222               127.5547                 1.1029

                     37                     38                     39
                      A                      A                      A
 Frequencies --   1214.1276              1223.0918              1240.2503
 Red. masses --      2.7205                 2.6898                 1.4871
 Frc consts  --      2.3628                 2.3708                 1.3477
 IR Inten    --      7.8324                11.1404                 5.2538

                     40                     41                     42
                      A                      A                      A
 Frequencies --   1266.9742              1314.8747              1377.8597
 Red. masses --      2.2161                 2.0147                 1.2084
 Frc consts  --      2.0959                 2.0523                 1.3517
 IR Inten    --     26.2426                43.3445                12.4971

                     43                     44                     45
                      A                      A                      A
 Frequencies --   1382.9909              1398.2953              1412.1087
 Red. masses --      1.3834                 3.5385                 1.2682
 Frc consts  --      1.5589                 4.0763                 1.4899
 IR Inten    --     42.2316                16.5944                26.0080

                     46                     47                     48
                      A                      A                      A
 Frequencies --   1471.5733              1474.7078              1487.9447
 Red. masses --      1.0469                 2.6266                 1.1337
 Frc consts  --      1.3357                 3.3655                 1.4788
 IR Inten    --      0.0563               423.9046                33.5960

                     49                     50                     51
                      A                      A                      A
 Frequencies --   1489.1077              1493.1057              1496.5999
 Red. masses --      1.0463                 1.5328                 6.6696
 Frc consts  --      1.3670                 2.0134                 8.8016
 IR Inten    --      0.8510                 9.3425               353.0814

                     52                     53                     54
                      A                      A                      A
 Frequencies --   1501.2399              1510.2867              1517.7683
 Red. masses --      1.0505                 3.5249                 1.1345
 Frc consts  --      1.3949                 4.7372                 1.5399
 IR Inten    --      9.9544               514.2025                62.6550

                     55                     56                     57
                      A                      A                      A
 Frequencies --   1621.8842              3012.8228              3014.7769
 Red. masses --      7.3885                 1.0381                 1.0367
 Frc consts  --     11.4511                 5.5518                 5.5517
 IR Inten    --     22.8209                78.2221                45.0031

                     58                     59                     60
                      A                      A                      A
 Frequencies --   3022.6755              3068.5031              3070.0191
 Red. masses --      1.0370                 1.1019                 1.1012
 Frc consts  --      5.5823                 6.1130                 6.1152
 IR Inten    --     77.8183                30.1477                63.0321

                     61                     62                     63
                      A                      A                      A
 Frequencies --   3082.8217              3084.7449              3123.1101
 Red. masses --      1.1011                 1.1021                 1.0980
 Frc consts  --      6.1658                 6.1790                 6.3099
 IR Inten    --    111.4305                64.4195                 0.1312

                     64                     65                     66
                      A                      A                      A
 Frequencies --   3125.4549              3184.2959              3187.5424
 Red. masses --      1.0973                 1.0904                 1.0886
 Frc consts  --      6.3155                 6.5144                 6.5169
 IR Inten    --     34.6752                14.5199                 7.2923

 - Thermochemistry -
 -------------------
 Temperature   298.150 Kelvin.  Pressure   1.00000 Atm.
 Atom     1 has atomic number  6 and mass  12.00000

 Molecular mass:   241.99424 amu.
 Principal axes and moments of inertia in atomic units:
                           1         2         3
     Eigenvalues --  1317.748026195.394537111.72497
           X            0.88173  -0.35429  -0.31151
           Y            0.46478   0.53919   0.70232
           Z            0.08086   0.76404  -0.64008
 This molecule is an asymmetric top.
 Rotational symmetry number  1.
 Warning -- assumption of classical behavior for rotation
           may cause significant error
 Rotational temperatures (Kelvin)      0.06573     0.01398     0.01218
 Rotational constants (GHZ):           1.36956     0.29130     0.25377
 Zero-point vibrational energy     485041.3 (Joules/Mol)
                                  115.92765 (Kcal/Mol)
 Warning -- explicit consideration of  20 degrees of freedom as
           vibrations may cause significant error
 Vibrational temperatures:     79.25   104.44   216.78   229.60   250.34
          (Kelvin)            302.89   326.14   327.74   372.93   413.16
                              430.29   477.95   479.33   535.78   580.29
                              591.25   671.37   690.23   722.38   821.97
                              900.66   987.63   999.34  1077.03  1169.08
                             1193.89  1230.92  1288.79  1335.43  1341.80
                             1361.51  1380.09  1485.20  1503.44  1531.87
                             1682.74  1746.86  1759.76  1784.44  1822.89
                             1891.81  1982.43  1989.82  2011.84  2031.71
                             2117.27  2121.78  2140.82  2142.49  2148.25
                             2153.27  2159.95  2172.97  2183.73  2333.53
                             4334.78  4337.59  4348.96  4414.89  4417.07
                             4435.49  4438.26  4493.46  4496.83  4581.49
                             4586.16

 Zero-point correction=                           0.184742 (Hartree/Particle)
 Thermal correction to Energy=                    0.197748
 Thermal correction to Enthalpy=                  0.198692
 Thermal correction to Gibbs Free Energy=         0.144505
 Sum of electronic and zero-point Energies=          -3112.379255
 Sum of electronic and thermal Energies=             -3112.366250
 Sum of electronic and thermal Enthalpies=           -3112.365306
 Sum of electronic and thermal Free Energies=        -3112.419493

                     E (Thermal)             CV                S
                      KCal/Mol        Cal/Mol-Kelvin    Cal/Mol-Kelvin
 Total                  124.088             49.488            114.046
 Electronic               0.000              0.000              1.377
 Translational            0.889              2.981             42.352
 Rotational               0.889              2.981             32.429
 Vibrational            122.311             43.527             37.887
 Vibration     1          0.596              1.976              4.626
 Vibration     2          0.599              1.967              4.082
 Vibration     3          0.618              1.902              2.664
 Vibration     4          0.621              1.892              2.555
 Vibration     5          0.627              1.874              2.392
 Vibration     6          0.643              1.825              2.039
 Vibration     7          0.650              1.800              1.905
 Vibration     8          0.651              1.799              1.896
 Vibration     9          0.668              1.747              1.667
 Vibration    10          0.684              1.698              1.491
 Vibration    11          0.692              1.675              1.422
 Vibration    12          0.714              1.611              1.249
 Vibration    13          0.715              1.609              1.245
 Vibration    14          0.744              1.529              1.070
 Vibration    15          0.769              1.463              0.951
 Vibration    16          0.775              1.446              0.923
 Vibration    17          0.824              1.324              0.747
 Vibration    18          0.836              1.295              0.711
 Vibration    19          0.857              1.245              0.653
 Vibration    20          0.927              1.093              0.502

 Optimization completed.
    -- Stationary point found.
 Normal termination of Gaussian 16 at Sat Feb 10 10:40:34 2024.
