 Q-Chem 5.4, Q-Chem, Inc., Pleasanton, CA (2021)
 Q-Chem 5.4.0 for Intel X86 EM64T Linux

User input:
--------------------------------------------------------------
$molecule
-1 2
C                  4.8915630000     -2.8649630000     -0.3572020000
C                  5.6112850000     -1.9705090000     -1.1232330000
C                  5.0140990000     -0.7616950000     -1.5454740000
C                  3.5568590000     -2.5937010000      0.0169040000
C                  2.9549630000     -1.3753480000     -0.4086790000
C                  3.7110810000     -0.4754290000     -1.1918690000
C                  2.8233160000     -3.5551450000      0.8246340000
C                  1.4585020000     -3.2295720000      1.1812670000
C                  0.8522750000     -2.0024180000      0.7526460000
C                  1.5841020000     -1.0465920000     -0.0515520000
C                  0.7021800000     -4.1410120000      1.9709500000
C                 -0.6096140000     -3.8340790000      2.3169840000
C                 -0.4925150000     -1.7225840000      1.1262930000
C                 -1.2010530000     -2.6368650000      1.8988300000
O                  3.3698770000     -4.6469740000      1.2030170000
O                  1.0501730000      0.0489590000     -0.4371630000
O                  1.2416240000     -5.3094340000      2.3937120000
H                  5.3259570000     -3.7988060000     -0.0205210000
H                  6.6364470000     -2.1943550000     -1.4021890000
H                  5.5815370000     -0.0589720000     -2.1480320000
H                  3.2298010000      0.4443360000     -1.5025390000
H                  2.1769400000     -5.3072150000      2.0269860000
O                 -1.0975820000     -0.5738520000      0.7399810000
H                 -2.2239080000     -2.3992430000      2.1696330000
H                 -1.1635700000     -4.5457190000      2.9192590000
H                 -0.4020480000     -0.0858040000      0.2039150000
$end
$rem
MAX_SCF_CYCLES=200
BASIS  =  6-311++G(d,p)
GUI  =  2
JOB_TYPE  =  SP
METHOD  =  B3LYP
SOLVENT_METHOD = PCM
$end
$pcm
theory = CPCM
$end
$solvent
dielectric 37.219
opticaldielectric 1.43
$end

--------------------------------------------------------------

             Standard Nuclear Orientation (Angstroms)
    I     Atom           X                Y                Z
 ----------------------------------------------------------------
    1      C       4.8915630000    -2.8649630000    -0.3572020000
    2      C       5.6112850000    -1.9705090000    -1.1232330000
    3      C       5.0140990000    -0.7616950000    -1.5454740000
    4      C       3.5568590000    -2.5937010000     0.0169040000
    5      C       2.9549630000    -1.3753480000    -0.4086790000
    6      C       3.7110810000    -0.4754290000    -1.1918690000
    7      C       2.8233160000    -3.5551450000     0.8246340000
    8      C       1.4585020000    -3.2295720000     1.1812670000
    9      C       0.8522750000    -2.0024180000     0.7526460000
   10      C       1.5841020000    -1.0465920000    -0.0515520000
   11      C       0.7021800000    -4.1410120000     1.9709500000
   12      C      -0.6096140000    -3.8340790000     2.3169840000
   13      C      -0.4925150000    -1.7225840000     1.1262930000
   14      C      -1.2010530000    -2.6368650000     1.8988300000
   15      O       3.3698770000    -4.6469740000     1.2030170000
   16      O       1.0501730000     0.0489590000    -0.4371630000
   17      O       1.2416240000    -5.3094340000     2.3937120000
   18      H       5.3259570000    -3.7988060000    -0.0205210000
   19      H       6.6364470000    -2.1943550000    -1.4021890000
   20      H       5.5815370000    -0.0589720000    -2.1480320000
   21      H       3.2298010000     0.4443360000    -1.5025390000
   22      H       2.1769400000    -5.3072150000     2.0269860000
   23      O      -1.0975820000    -0.5738520000     0.7399810000
   24      H      -2.2239080000    -2.3992430000     2.1696330000
   25      H      -1.1635700000    -4.5457190000     2.9192590000
   26      H      -0.4020480000    -0.0858040000     0.2039150000
 ----------------------------------------------------------------

    8    -839.6214610685      7.34e-06  Convergence criterion met
 Total energy in the final basis set =     -839.6214610685

                    Orbital Energies (a.u.)
 --------------------------------------------------------------

 Alpha MOs
 -- Occupied --
-19.1326 -19.1326 -19.0934 -19.0934 -10.2376 -10.2376 -10.2329 -10.2329
-10.1805 -10.1801 -10.1801 -10.1797 -10.1764 -10.1759 -10.1745 -10.1745
-10.1715 -10.1710  -1.0564  -1.0549  -1.0104  -1.0086  -0.8672  -0.8488
 -0.7923  -0.7581  -0.7467  -0.7372  -0.6795  -0.6425  -0.6361  -0.5986
 -0.5775  -0.5454  -0.5304  -0.5242  -0.5098  -0.4762  -0.4681  -0.4606
 -0.4425  -0.4311  -0.4274  -0.4258  -0.4195  -0.4068  -0.4068  -0.4066
 -0.4007  -0.3740  -0.3686  -0.3588  -0.3575  -0.3538  -0.3416  -0.3104
 -0.2751  -0.2659  -0.2629  -0.2539  -0.2522  -0.2177  -0.1485

 Beta MOs
 -- Occupied --
-19.1320 -19.1320 -19.0891 -19.0890 -10.2355 -10.2354 -10.2324 -10.2324
-10.1805 -10.1801 -10.1795 -10.1790 -10.1760 -10.1755 -10.1744 -10.1744
-10.1705 -10.1699  -1.0545  -1.0530  -1.0032  -1.0012  -0.8647  -0.8472
 -0.7884  -0.7555  -0.7451  -0.7344  -0.6728  -0.6405  -0.6336  -0.5975
 -0.5759  -0.5429  -0.5291  -0.5227  -0.5081  -0.4742  -0.4669  -0.4587
 -0.4337  -0.4298  -0.4242  -0.4241  -0.4177  -0.4056  -0.4053  -0.3972
 -0.3927  -0.3674  -0.3581  -0.3580  -0.3561  -0.3445  -0.3404  -0.3032
 -0.2622  -0.2587  -0.2560  -0.2496  -0.2486  -0.2064

          Ground-State Mulliken Net Atomic Charges

     Atom                 Charge (a.u.)    Spin (a.u.)
  --------------------------------------------------------
      1 C                    -0.005445       0.035399
      2 C                    -0.474655       0.035589
      3 C                    -0.475555       0.035630
      4 C                     0.036992       0.018437
      5 C                     0.040450       0.018213
      6 C                    -0.005244       0.035327
      7 C                    -0.224198       0.127107
      8 C                     0.600799      -0.007099
      9 C                     0.600504      -0.007164
     10 C                    -0.221775       0.127094
     11 C                    -0.326035       0.053711
     12 C                    -0.154458       0.070643
     13 C                    -0.323981       0.053625
     14 C                    -0.151870       0.070603
     15 O                    -0.503283       0.162034
     16 O                    -0.503419       0.162018
     17 O                    -0.407656       0.018241
     18 H                     0.180482      -0.000954
     19 H                     0.201624      -0.002963
     20 H                     0.201802      -0.002961
     21 H                     0.180373      -0.000950
     22 H                     0.358020      -0.003640
     23 O                    -0.407510       0.018241
     24 H                     0.212833      -0.006273
     25 H                     0.213000      -0.006272
     26 H                     0.358204      -0.003636
  --------------------------------------------------------
  Sum of atomic charges =    -1.000000

                    Cartesian Multipole Moments
 -----------------------------------------------------------------
    Charge (ESU x 10^10)
                -4.8032
    Dipole Moment (Debye)
         X      -6.3795      Y      12.3172      Z      -4.1845
       Tot      14.4886
    Quadrupole Moments (Debye-Ang)
        XX    -122.1866     XY      29.8047     YY    -167.0410
        XZ     -11.4313     YZ      19.2323     ZZ    -116.0791

 Total job time:  87.76s(wall), 412.07s(cpu)
        *  Thank you very much for using Q-Chem.  Have a nice day.  *
