 Gaussian 16, Revision A.03,
 Gaussian 16:  ES64L-G16RevA.03 25-Dec-2016

 ----------------------------------------------------------------
 #P UB3LYP/6-311++G(d,p) SCRF=(PCM,Solvent=n,n-DiMethylFormamide)
 ----------------------------------------------------------------

 ------------------
 Radical PCM in DMF
 ------------------
 Symbolic Z-matrix:
 Charge = -1 Multiplicity = 2

                         Standard orientation:
 ---------------------------------------------------------------------
 Center     Atomic      Atomic             Coordinates (Angstroms)
 Number     Number       Type             X           Y           Z
 ---------------------------------------------------------------------
      1          6           0       -2.788369    1.396430    0.000117
      2          6           0       -3.983661    0.706410    0.000170
      3          6           0       -3.983639   -0.706442    0.000101
      4          6           0       -1.552835    0.712012   -0.000008
      5          6           0       -1.552819   -0.711991   -0.000084
      6          6           0       -2.788334   -1.396432   -0.000014
      7          6           0       -0.309276    1.465969   -0.000078
      8          6           0        0.929735    0.717134   -0.000025
      9          6           0        0.929753   -0.717138   -0.000067
     10          6           0       -0.309270   -1.465958   -0.000149
     11          6           0        2.171393    1.413286    0.000043
     12          6           0        3.365321    0.699641    0.000100
     13          6           0        2.171425   -1.413291    0.000016
     14          6           0        3.365345   -0.699635    0.000066
     15          8           0       -0.316765    2.744224   -0.000178
     16          8           0       -0.316802   -2.744219   -0.000278
     17          8           0        2.210197    2.767329    0.000002
     18          1           0       -2.760671    2.479642    0.000138
     19          1           0       -4.924782    1.247863    0.000254
     20          1           0       -4.924741   -1.247929    0.000183
     21          1           0       -2.760596   -2.479642    0.000018
     22          1           0        1.246480    3.051157   -0.000156
     23          8           0        2.210227   -2.767330    0.000176
     24          1           0        4.297191   -1.254336    0.000163
     25          1           0        4.297151    1.254371    0.000141
     26          1           0        1.246493   -3.051129    0.000365
 ---------------------------------------------------------------------

 SCF Done:  E(UB3LYP) =  -839.617980941     A.U. after   17 cycles

 The electronic state is 2-A.
 Alpha  occ. eigenvalues --  -19.13127 -19.13126 -19.09258 -19.09257 -10.23664
 Alpha  occ. eigenvalues --  -10.23663 -10.23231 -10.23230 -10.18025 -10.18022
 Alpha  occ. eigenvalues --  -10.17981 -10.17981 -10.17767 -10.17720 -10.17534
 Alpha  occ. eigenvalues --  -10.17534 -10.17195 -10.17143  -1.05523  -1.05366
 Alpha  occ. eigenvalues --   -1.00930  -1.00748  -0.86727  -0.84869  -0.79247
 Alpha  occ. eigenvalues --   -0.75839  -0.74700  -0.73678  -0.67922  -0.64289
 Alpha  occ. eigenvalues --   -0.63622  -0.59819  -0.57776  -0.54569  -0.53054
 Alpha  occ. eigenvalues --   -0.52375  -0.50898  -0.47636  -0.46855  -0.46110
 Alpha  occ. eigenvalues --   -0.44178  -0.43119  -0.42678  -0.42581  -0.41928
 Alpha  occ. eigenvalues --   -0.40705  -0.40614  -0.40567  -0.40006  -0.37275
 Alpha  occ. eigenvalues --   -0.36895  -0.35803  -0.35795  -0.35372  -0.34196
 Alpha  occ. eigenvalues --   -0.30943  -0.27479  -0.26466  -0.26308  -0.25404
 Alpha  occ. eigenvalues --   -0.25111  -0.21678  -0.14795
 Alpha virt. eigenvalues --   -0.05404  -0.02737  -0.00190   0.00572   0.00648
 Alpha virt. eigenvalues --    0.01141   0.01966   0.02473   0.04313   0.04363
 Alpha virt. eigenvalues --    0.04455   0.04632   0.04823   0.05695   0.06334

  Beta  occ. eigenvalues --  -19.13070 -19.13069 -19.08797 -19.08796 -10.23453
  Beta  occ. eigenvalues --  -10.23452 -10.23178 -10.23176 -10.18022 -10.17981
  Beta  occ. eigenvalues --  -10.17958 -10.17914 -10.17721 -10.17675 -10.17525
  Beta  occ. eigenvalues --  -10.17524 -10.17091 -10.17038  -1.05329  -1.05176
  Beta  occ. eigenvalues --   -1.00180  -0.99979  -0.86479  -0.84714  -0.78848
  Beta  occ. eigenvalues --   -0.75589  -0.74535  -0.73398  -0.67254  -0.64093
  Beta  occ. eigenvalues --   -0.63373  -0.59716  -0.57615  -0.54319  -0.52928
  Beta  occ. eigenvalues --   -0.52231  -0.50729  -0.47428  -0.46740  -0.45926
  Beta  occ. eigenvalues --   -0.43301  -0.43034  -0.42424  -0.42291  -0.41733
  Beta  occ. eigenvalues --   -0.40600  -0.40459  -0.39599  -0.39224  -0.36780
  Beta  occ. eigenvalues --   -0.35733  -0.35657  -0.35648  -0.34421  -0.34074
  Beta  occ. eigenvalues --   -0.30216  -0.26076  -0.25786  -0.25614  -0.24975
  Beta  occ. eigenvalues --   -0.24739  -0.20559
  Beta virt. eigenvalues --   -0.09401  -0.04290  -0.01738  -0.00172   0.00654
  Beta virt. eigenvalues --    0.01134   0.01160   0.01984   0.02476   0.04322
  Beta virt. eigenvalues --    0.04391   0.04470   0.04708   0.05689   0.06342

 Mulliken charges and spin densities:
               1          2
     1  C    0.012579   0.034346
     2  C   -0.471273   0.035877
     3  C   -0.471279   0.035881
     4  C    0.055767   0.019825
     5  C    0.055851   0.019831
     6  C    0.012608   0.034343
     7  C   -0.241094   0.122265
     8  C    0.593053  -0.006828
     9  C    0.593098  -0.006834
    10  C   -0.241093   0.122265
    11  C   -0.341555   0.051971
    12  C   -0.126781   0.071213
    13  C   -0.341613   0.051979
    14  C   -0.126787   0.071203
    15  O   -0.487122   0.167453
    16  O   -0.487117   0.167454
    17  O   -0.396770   0.017843
    18  H    0.171573  -0.000877
    19  H    0.185241  -0.002982
    20  H    0.185240  -0.002983
    21  H    0.171572  -0.000876
    22  H    0.350047  -0.003802
    23  O   -0.396752   0.017843
    24  H    0.196286  -0.006304
    25  H    0.196285  -0.006304
    26  H    0.350036  -0.003802
 Sum of Mulliken charges =  -1.00000   1.00000

 Dipole moment (field-independent basis, Debye):
    X=             -3.4293    Y=              0.0000    Z=              0.0012  Tot=              3.4293
 Quadrupole moment (field-independent basis, Debye-Ang):
   XX=           -110.9102   YY=           -144.6234   ZZ=           -110.1112
   XY=             -0.0004   XZ=             -0.0011   YZ=             -0.0025

 Normal termination of Gaussian 16 at Tue Jan 16 05:32:39 2024.
