 Q-Chem 5.4, Q-Chem, Inc., Pleasanton, CA (2021)
 Q-Chem 5.4.0 for Intel X86 EM64T Linux

User input:
--------------------------------------------------------------
$molecule
-2 1
C                  5.7614360000     -5.1229810000      1.2394400000
C                  6.7752340000     -5.0420630000      0.3014450000
C                  6.6861480000     -4.0902140000     -0.7472370000
C                  4.6216090000     -4.2842660000      1.1972800000
C                  4.5313740000     -3.3134250000      0.1268720000
C                  5.5838610000     -3.2561370000     -0.8152650000
C                  3.6000320000     -4.4462540000      2.2365140000
C                  2.5424130000     -3.5312760000      2.0367570000
C                  2.4222850000     -2.5746730000      1.0081720000
C                  3.3962190000     -2.4021070000     -0.0046980000
O                  3.7005340000     -5.3155630000      3.1805790000
O                  3.3080280000     -1.5317000000     -0.9588740000
H                  5.7977190000     -5.8398170000      2.0546420000
H                  7.6373080000     -5.7052910000      0.3673250000
H                  5.4797760000     -2.5149870000     -1.6029430000
Cl                 1.1737950000     -3.5833630000      3.2366170000
H                  7.4788100000     -4.0178310000     -1.4912660000
H                  1.5462070000     -1.9338730000      0.9805800000
$end

$rem
BASIS  =  6-311++G(d,p)
GUI  =  2
JOB_TYPE  =  SP
METHOD  =  B3LYP
SCF_CONVERGENCE  = 8
SOLVENT_METHOD = sm12
$end

$smx
solvent dimethylformamide
charges CM5
$end

--------------------------------------------------------------

             Standard Nuclear Orientation (Angstroms)
    I     Atom           X                Y                Z
 ----------------------------------------------------------------
    1      C       5.7614360000    -5.1229810000     1.2394400000
    2      C       6.7752340000    -5.0420630000     0.3014450000
    3      C       6.6861480000    -4.0902140000    -0.7472370000
    4      C       4.6216090000    -4.2842660000     1.1972800000
    5      C       4.5313740000    -3.3134250000     0.1268720000
    6      C       5.5838610000    -3.2561370000    -0.8152650000
    7      C       3.6000320000    -4.4462540000     2.2365140000
    8      C       2.5424130000    -3.5312760000     2.0367570000
    9      C       2.4222850000    -2.5746730000     1.0081720000
   10      C       3.3962190000    -2.4021070000    -0.0046980000
   11      O       3.7005340000    -5.3155630000     3.1805790000
   12      O       3.3080280000    -1.5317000000    -0.9588740000
   13      H       5.7977190000    -5.8398170000     2.0546420000
   14      H       7.6373080000    -5.7052910000     0.3673250000
   15      H       5.4797760000    -2.5149870000    -1.6029430000
   16      Cl      1.1737950000    -3.5833630000     3.2366170000
   17      H       7.4788100000    -4.0178310000    -1.4912660000
   18      H       1.5462070000    -1.9338730000     0.9805800000
 ----------------------------------------------------------------

   18    -994.8651851043      3.22e-09  Convergence criterion met
 Total energy in the final basis set =     -995.1494370896

                    Orbital Energies (a.u.)
 --------------------------------------------------------------

 Alpha MOs
 -- Occupied --
******** -19.0273 -19.0252 -10.1929 -10.1917 -10.1903 -10.1796 -10.1789
-10.1738 -10.1731 -10.1640 -10.1618 -10.1450  -9.4408  -7.2049  -7.1963
 -7.1957  -0.9437  -0.9388  -0.8495  -0.8340  -0.7739  -0.7477  -0.7155
 -0.6617  -0.6101  -0.5941  -0.5497  -0.4985  -0.4899  -0.4540  -0.4405
 -0.4261  -0.4009  -0.3974  -0.3950  -0.3671  -0.3662  -0.3493  -0.3407
 -0.3305  -0.3262  -0.3033  -0.2878  -0.2522  -0.2393  -0.2254  -0.2055
 -0.2027  -0.1273

          Ground-State Mulliken Net Atomic Charges

     Atom                 Charge (a.u.)
  ----------------------------------------
      1 C                     0.030250
      2 C                     1.436729
      3 C                     1.732741
      4 C                    -1.879810
      5 C                    -2.122365
      6 C                    -0.143854
      7 C                    -1.865309
      8 C                     1.932373
      9 C                    -0.648845
     10 C                    -1.688429
     11 O                    -0.365689
     12 O                    -0.412971
     13 H                     0.090794
     14 H                     0.419786
     15 H                     0.084387
     16 Cl                    0.893153
     17 H                     0.420898
     18 H                     0.086159
  ----------------------------------------
  Sum of atomic charges =    -2.000000

                    Cartesian Multipole Moments
 -----------------------------------------------------------------
    Charge (ESU x 10^10)
                -9.6064
    Dipole Moment (Debye)
         X     -34.2212      Y      33.6418      Z     -11.0954
       Tot      49.2541
    Quadrupole Moments (Debye-Ang)
        XX    -232.7835     XY     125.4973     YY    -236.3220
        XZ     -32.3115     YZ      62.8263     ZZ    -141.2809

 Total job time:  236.29s(wall), 1769.86s(cpu)
        *  Thank you very much for using Q-Chem.  Have a nice day.  *
