 Gaussian 16, Revision A.03,
 Gaussian 16:  ES64L-G16RevA.03 25-Dec-2016

 --------------------------------------
 #P UB3LYP/6-311++G(d,p) nosym opt freq
 --------------------------------------

 -------
 Reduced
 -------
 Symbolic Z-matrix:
 Charge = -2 Multiplicity = 1

 SCF Done:  E(UB3LYP) =  -994.870790084     A.U. after   25 cycles
 SCF Done:  E(UB3LYP) =  -994.870790289     A.U. after   16 cycles
 Optimization completed.
    -- Stationary point found.
 Normal termination of Gaussian 16 at Sun Jan  7 20:16:42 2024.

 ----------------------------------------------------------------------
 #P Geom=AllCheck Guess=TCheck SCRF=Check GenChk UB3LYP/6-311++G(d,p) F
 req
 ----------------------------------------------------------------------

 Structure from the checkpoint file:  "229-an.chk"
 -------
 Reduced
 -------
 Charge = -2 Multiplicity = 1

                          Input orientation:
 ---------------------------------------------------------------------
 Center     Atomic      Atomic             Coordinates (Angstroms)
 Number     Number       Type             X           Y           Z
 ---------------------------------------------------------------------
      1          6           0        5.761436   -5.122981    1.239440
      2          6           0        6.775234   -5.042063    0.301445
      3          6           0        6.686148   -4.090214   -0.747237
      4          6           0        4.621609   -4.284266    1.197280
      5          6           0        4.531374   -3.313425    0.126872
      6          6           0        5.583861   -3.256137   -0.815265
      7          6           0        3.600032   -4.446254    2.236514
      8          6           0        2.542413   -3.531276    2.036757
      9          6           0        2.422285   -2.574673    1.008172
     10          6           0        3.396219   -2.402107   -0.004698
     11          8           0        3.700534   -5.315563    3.180579
     12          8           0        3.308028   -1.531700   -0.958874
     13          1           0        5.797719   -5.839817    2.054642
     14          1           0        7.637308   -5.705291    0.367325
     15          1           0        5.479776   -2.514987   -1.602943
     16         17           0        1.173795   -3.583363    3.236617
     17          1           0        7.478810   -4.017831   -1.491266
     18          1           0        1.546207   -1.933873    0.980580
 ---------------------------------------------------------------------

 SCF Done:  E(UB3LYP) =  -994.870790289     A.U. after    2 cycles

 Alpha  occ. eigenvalues -- -101.27445 -18.75617 -18.75537  -9.92822  -9.92348
 Alpha  occ. eigenvalues --   -9.91941  -9.91787  -9.91719  -9.90702  -9.90692
 Alpha  occ. eigenvalues --   -9.89457  -9.89153  -9.87479  -9.18854  -6.95214
 Alpha  occ. eigenvalues --   -6.94414  -6.94361  -0.67495  -0.66744  -0.58384
 Alpha  occ. eigenvalues --   -0.57475  -0.50878  -0.48154  -0.45044  -0.39412
 Alpha  occ. eigenvalues --   -0.34365  -0.32951  -0.28217  -0.23496  -0.22690
 Alpha  occ. eigenvalues --   -0.18708  -0.17545  -0.15888  -0.13990  -0.13297
 Alpha  occ. eigenvalues --   -0.12558  -0.10181  -0.09708  -0.08912  -0.07532
 Alpha  occ. eigenvalues --   -0.06072  -0.05863  -0.04716  -0.03883   0.01472
 Alpha  occ. eigenvalues --    0.02951   0.04064   0.06271   0.06612   0.14196
 Alpha virt. eigenvalues --    0.16684   0.18465   0.20678   0.21386   0.22257
 Alpha virt. eigenvalues --    0.23153   0.23499   0.24556   0.26370   0.27217
 Alpha virt. eigenvalues --    0.28145   0.28237   0.28479   0.29102   0.29337

  Beta  occ. eigenvalues -- -101.27445 -18.75617 -18.75537  -9.92822  -9.92348
  Beta  occ. eigenvalues --   -9.91941  -9.91787  -9.91719  -9.90702  -9.90692
  Beta  occ. eigenvalues --   -9.89457  -9.89153  -9.87479  -9.18854  -6.95214
  Beta  occ. eigenvalues --   -6.94414  -6.94361  -0.67495  -0.66744  -0.58384
  Beta  occ. eigenvalues --   -0.57475  -0.50878  -0.48154  -0.45044  -0.39412
  Beta  occ. eigenvalues --   -0.34365  -0.32951  -0.28217  -0.23496  -0.22690
  Beta  occ. eigenvalues --   -0.18708  -0.17545  -0.15888  -0.13990  -0.13297
  Beta  occ. eigenvalues --   -0.12558  -0.10181  -0.09708  -0.08912  -0.07532
  Beta  occ. eigenvalues --   -0.06072  -0.05863  -0.04716  -0.03883   0.01472
  Beta  occ. eigenvalues --    0.02951   0.04064   0.06271   0.06612   0.14196
  Beta virt. eigenvalues --    0.16684   0.18465   0.20678   0.21386   0.22257
  Beta virt. eigenvalues --    0.23153   0.23499   0.24556   0.26370   0.27217
  Beta virt. eigenvalues --    0.28145   0.28237   0.28479   0.29102   0.29337

 Mulliken charges and spin densities:
               1          2
     1  C   -0.120189  -0.000000
     2  C   -0.367417   0.000000
     3  C   -0.376690  -0.000000
     4  C    0.349346   0.000000
     5  C    0.440312   0.000000
     6  C   -0.040286  -0.000000
     7  C   -1.518830  -0.000000
     8  C    1.507961   0.000000
     9  C   -0.020446   0.000000
    10  C   -1.378563  -0.000000
    11  O   -0.508242   0.000000
    12  O   -0.565646  -0.000000
    13  H    0.121976   0.000000
    14  H    0.072051   0.000000
    15  H    0.118997   0.000000
    16  Cl   0.136980  -0.000000
    17  H    0.069212   0.000000
    18  H    0.079476   0.000000
 Sum of Mulliken charges =  -2.00000   0.00000

 Dipole moment (field-independent basis, Debye):
    X=            -34.8574    Y=             34.2085    Z=            -11.2353  Tot=             50.1148
 Quadrupole moment (field-independent basis, Debye-Ang):
   XX=           -243.9132   YY=           -240.2800   ZZ=           -143.6241
   XY=            131.3584   XZ=            -29.5142   YZ=             63.3125

  Exact polarizability: 237.197 -44.099 160.033 -57.382 -27.583 185.846
 Approx polarizability: 381.398 -84.557 260.955 -93.497 -61.977 299.720

                      1                      2                      3
                      A                      A                      A
 Frequencies --     70.9296               133.6847               162.4945
 Red. masses --     10.2718                 4.3616                10.1057
 Frc consts  --      0.0304                 0.0459                 0.1572
 IR Inten    --      6.2802                 0.5004                 4.9286

                      4                      5                      6
                      A                      A                      A
 Frequencies --    200.9281               229.1620               273.2487
 Red. masses --     11.7031                 5.0156                 7.4646
 Frc consts  --      0.2784                 0.1552                 0.3284
 IR Inten    --      3.6381                 0.0021                 3.1815

                      7                      8                      9
                      A                      A                      A
 Frequencies --    309.5775               352.1562               352.9732
 Red. masses --     20.3309                10.1485                 9.1903
 Frc consts  --      1.1480                 0.7415                 0.6746
 IR Inten    --      5.3063                 0.4172                 0.7255

                     10                     11                     12
                      A                      A                      A
 Frequencies --    432.7170               467.4840               487.0273
 Red. masses --      3.2849                10.1104                 4.3077
 Frc consts  --      0.3624                 1.3018                 0.6020
 IR Inten    --      3.0273                 2.9033                 0.9647

                     13                     14                     15
                      A                      A                      A
 Frequencies --    502.0439               594.5151               613.0288
 Red. masses --      8.8018                 7.3604                 2.7807
 Frc consts  --      1.3071                 1.5328                 0.6157
 IR Inten    --     11.7122                 3.2937                 0.0284

                     16                     17                     18
                      A                      A                      A
 Frequencies --    654.0351               666.9554               718.8993
 Red. masses --      6.1435                 2.6938                 6.2476
 Frc consts  --      1.5484                 0.7060                 1.9024
 IR Inten    --      1.4625                21.4887                 8.8022

                     19                     20                     21
                      A                      A                      A
 Frequencies --    724.5149               747.2299               783.3889
 Red. masses --      1.5432                 2.3413                 9.4684
 Frc consts  --      0.4773                 0.7702                 3.4236
 IR Inten    --     67.2521                 1.8009               225.0256

                     22                     23                     24
                      A                      A                      A
 Frequencies --    792.3961               801.8493               833.4901
 Red. masses --      1.6486                 2.6569                 5.0489
 Frc consts  --      0.6099                 1.0065                 2.0666
 IR Inten    --     16.1333                 5.0263                 2.3817

                     25                     26                     27
                      A                      A                      A
 Frequencies --    943.1364               949.9231              1013.5104
 Red. masses --      1.2087                 1.3515                 2.4102
 Frc consts  --      0.6334                 0.7185                 1.4587
 IR Inten    --      0.1610                 4.6489                48.2745

                     28                     29                     30
                      A                      A                      A
 Frequencies --   1057.6501              1083.8423              1111.1138
 Red. masses --      3.2504                 2.5997                 1.6553
 Frc consts  --      2.1423                 1.7993                 1.2041
 IR Inten    --     15.1932                32.5193               148.5312

                     31                     32                     33
                      A                      A                      A
 Frequencies --   1139.7377              1193.5557              1216.6796
 Red. masses --      1.8077                 2.2067                 1.8331
 Frc consts  --      1.3835                 1.8521                 1.5988
 IR Inten    --      2.8606               119.4895               150.8711

                     34                     35                     36
                      A                      A                      A
 Frequencies --   1259.5218              1326.6718              1362.4410
 Red. masses --      1.9219                 8.1884                 5.7692
 Frc consts  --      1.7963                 8.4913                 6.3096
 IR Inten    --     47.0500               153.9446               145.3035

                     37                     38                     39
                      A                      A                      A
 Frequencies --   1373.9185              1419.1033              1448.7518
 Red. masses --      5.7146                 2.5857                 3.4976
 Frc consts  --      6.3557                 3.0680                 4.3252
 IR Inten    --    246.8116               442.5683                 7.9003

                     40                     41                     42
                      A                      A                      A
 Frequencies --   1496.4410              1508.5733              1582.0106
 Red. masses --      3.9183                 5.6827                 5.4048
 Frc consts  --      5.1697                 7.6197                 7.9698
 IR Inten    --     96.8547               571.4520                 8.8895

                     43                     44                     45
                      A                      A                      A
 Frequencies --   1590.1837              3079.6146              3104.8088
 Red. masses --      8.4518                 1.0821                 1.0905
 Frc consts  --     12.5920                 6.0466                 6.1938
 IR Inten    --      0.5314                42.4697               130.9556

                     46                     47                     48
                      A                      A                      A
 Frequencies --   3145.7006              3148.3355              3153.0493
 Red. masses --      1.0882                 1.0900                 1.0907
 Frc consts  --      6.3444                 6.3658                 6.3886
 IR Inten    --     42.5265                41.4935                39.3809

 - Thermochemistry -
 -------------------
 Temperature   298.150 Kelvin.  Pressure   1.00000 Atm.
 Atom     1 has atomic number  6 and mass  12.00000

 Molecular mass:   191.99781 amu.
 Principal axes and moments of inertia in atomic units:
                           1         2         3
     Eigenvalues --  1482.357383231.341674713.69897
           X            0.79917  -0.37046   0.47338
           Y           -0.05575   0.73845   0.67200
           Z           -0.59852  -0.56343   0.56949
 This molecule is an asymmetric top.
 Rotational symmetry number  1.
 Warning -- assumption of classical behavior for rotation
           may cause significant error
 Rotational temperatures (Kelvin)      0.05843     0.02680     0.01837
 Rotational constants (GHZ):           1.21748     0.55851     0.38287
 Zero-point vibrational energy     308714.3 (Joules/Mol)
                                   73.78449 (Kcal/Mol)
 Warning -- explicit consideration of  15 degrees of freedom as
           vibrations may cause significant error
 Vibrational temperatures:    102.05   192.34   233.79   289.09   329.71
          (Kelvin)            393.14   445.41   506.67   507.85   622.58
                              672.61   700.72   722.33   855.37   882.01
                              941.01   959.60  1034.34  1042.42  1075.10
                             1127.12  1140.08  1153.68  1199.21  1356.96
                             1366.73  1458.22  1521.72  1559.41  1598.64
                             1639.83  1717.26  1750.53  1812.17  1908.78
                             1960.25  1976.76  2041.77  2084.43  2153.04
                             2170.50  2276.16  2287.92  4430.88  4467.13
                             4525.96  4529.75  4536.53

 Zero-point correction=                           0.117583 (Hartree/Particle)
 Thermal correction to Energy=                    0.127661
 Thermal correction to Enthalpy=                  0.128605
 Thermal correction to Gibbs Free Energy=         0.081588
 Sum of electronic and zero-point Energies=           -994.753207
 Sum of electronic and thermal Energies=              -994.743130
 Sum of electronic and thermal Enthalpies=            -994.742185
 Sum of electronic and thermal Free Energies=         -994.789202

                     E (Thermal)             CV                S
                      KCal/Mol        Cal/Mol-Kelvin    Cal/Mol-Kelvin
 Total                   80.108             39.667             98.956
 Electronic               0.000              0.000              0.000
 Translational            0.889              2.981             41.662
 Rotational               0.889              2.981             31.491
 Vibrational             78.331             33.705             25.802
 Vibration     1          0.598              1.968              4.127
 Vibration     2          0.613              1.920              2.892
 Vibration     3          0.623              1.888              2.521
 Vibration     4          0.638              1.839              2.125
 Vibration     5          0.652              1.796              1.886
 Vibration     6          0.676              1.723              1.576
 Vibration     7          0.699              1.655              1.365
 Vibration     8          0.729              1.571              1.157
 Vibration     9          0.729              1.569              1.153
 Vibration    10          0.794              1.399              0.850
 Vibration    11          0.825              1.322              0.745
 Vibration    12          0.843              1.279              0.691
 Vibration    13          0.857              1.245              0.653
 Vibration    14          0.952              1.043              0.459
 Vibration    15          0.972              1.004              0.428

 Optimization completed.
    -- Stationary point found.
 Normal termination of Gaussian 16 at Sun Jan  7 20:31:51 2024.
