 Q-Chem 5.4, Q-Chem, Inc., Pleasanton, CA (2021)
 Q-Chem 5.4.0 for Intel X86 EM64T Linux

User input:
--------------------------------------------------------------
$molecule
-2 1
C                 -4.0295130000      0.2879880000      0.2604270000
C                 -2.5593010000      0.0121930000      0.0417150000
C                 -2.1533710000     -1.0646940000     -0.7941800000
C                 -0.8121070000     -1.3254070000     -1.0031740000
C                  0.2081840000     -0.5426160000     -0.4152260000
C                  1.6076350000     -0.8562070000     -0.6818240000
O                  1.9701280000     -1.8304020000     -1.4469590000
C                  2.5469300000     -0.0005770000     -0.0278850000
C                  2.1463990000      1.0523790000      0.8108460000
C                  0.7963840000      1.3981400000      1.1046790000
O                  0.4632450000      2.3762290000      1.8727560000
C                 -0.1899030000      0.5397370000      0.4485880000
C                 -1.5719980000      0.7731430000      0.6451390000
C                  4.0102030000     -0.2738320000     -0.2665350000
H                 -4.5470300000      0.5391600000     -0.6728030000
H                 -4.1818200000      1.1223830000      0.9525320000
H                 -4.5637420000     -0.5841750000      0.6779880000
H                 -2.9112880000     -1.6829680000     -1.2746690000
H                 -0.4910260000     -2.1433440000     -1.6415150000
H                  2.9108690000      1.6741520000      1.2795610000
H                 -1.8314160000      1.5974750000      1.3040380000
H                  4.2813210000     -0.1394790000     -1.3244460000
H                  4.2612160000     -1.3177290000     -0.0327430000
H                  4.6399980000      0.3884510000      0.3404110000
$end
$rem
MAX_SCF_CYCLES=200
BASIS  =  6-311++G(d,p)
GUI  =  2
JOB_TYPE  =  SP
METHOD  =  B3LYP
SOLVENT_METHOD = COSMO
$end
$solvent
dielectric 37.219
opticaldielectric 1.43
$end

--------------------------------------------------------------

             Standard Nuclear Orientation (Angstroms)
    I     Atom           X                Y                Z
 ----------------------------------------------------------------
    1      C       4.2157029165    -0.0814535485    -0.0176533246
    2      C       2.7271425555     0.1821235500    -0.0059781028
    3      C       2.2406217922     1.5186754207     0.0045987783
    4      C       0.8818252517     1.7721176709     0.0134229111
    5      C      -0.0783486804     0.7341470741     0.0024054085
    6      C      -1.4999498142     1.0611272253    -0.0009273857
    7      O      -1.9357518045     2.2760177997     0.0015542818
    8      C      -2.3733576691    -0.0698678174    -0.0057171795
    9      C      -1.8930892087    -1.3896827393     0.0007549308
   10      C      -0.5183042724    -1.7616593220     0.0061216914
   11      O      -0.1115121197    -2.9831734739     0.0038229455
   12      C       0.4018003312    -0.6243548136     0.0104955543
   13      C       1.7996769194    -0.8462415120     0.0083548398
   14      C      -3.8557660643     0.2044011801    -0.0113613624
   15      H       4.7014921049     0.3265558947    -0.9117263699
   16      H       4.4327092504    -1.1540816517     0.0106127799
   17      H       4.7313541707     0.3787484765     0.8441726392
   18      H       2.9504335697     2.3455523018     0.0010687522
   19      H       0.4994037905     2.7886398870     0.0188623198
   20      H      -2.6098167479    -2.2124524982    -0.0070779509
   21      H       2.1217186898    -1.8841257904     0.0157141885
   22      H      -4.1674936591     0.7338734468    -0.9241682466
   23      H      -4.1391182340     0.8657948176     0.8190946426
   24      H      -4.4302958854    -0.7272536995     0.0633288712
 ----------------------------------------------------------------

   20    -613.8868862874      7.54e-06  Convergence criterion met
 Total energy in the final basis set =     -613.8868862874
    6    -614.1750447573      3.67e-06  Convergence criterion met
 Total energy in the final basis set =     -614.1750447573

                    Orbital Energies (a.u.)
 --------------------------------------------------------------

 Alpha MOs
 -- Occupied --
-19.0212 -19.0193 -10.1708 -10.1662 -10.1564 -10.1516 -10.1462 -10.1449
-10.1414 -10.1376 -10.1358 -10.1352 -10.1262 -10.1174  -0.9382  -0.9340
 -0.8284  -0.7744  -0.7417  -0.7209  -0.6798  -0.6602  -0.6148  -0.5842
 -0.5526  -0.5181  -0.4750  -0.4535  -0.4380  -0.4103  -0.4029  -0.3985
 -0.3932  -0.3922  -0.3730  -0.3637  -0.3587  -0.3562  -0.3465  -0.3364
 -0.3202  -0.3117  -0.3036  -0.3020  -0.2288  -0.2246  -0.2069  -0.2031
 -0.1964  -0.1119

          Ground-State Mulliken Net Atomic Charges

     Atom                 Charge (a.u.)
  ----------------------------------------
      1 C                    -0.458772
      2 C                     0.401064
      3 C                    -0.476001
      4 C                    -0.007971
      5 C                    -0.106958
      6 C                    -0.459232
      7 O                    -0.742634
      8 C                     0.659207
      9 C                    -0.467598
     10 C                    -0.635495
     11 O                    -0.756839
     12 C                     0.198005
     13 C                    -0.306493
     14 C                    -0.314469
     15 H                     0.160053
     16 H                     0.165781
     17 H                     0.155466
     18 H                     0.176039
     19 H                     0.152565
     20 H                     0.107670
     21 H                     0.120622
     22 H                     0.146227
     23 H                     0.146347
     24 H                     0.143418
  ----------------------------------------
  Sum of atomic charges =    -2.000000

                    Cartesian Multipole Moments
 -----------------------------------------------------------------
    Charge (ESU x 10^10)
                -9.6064
    Dipole Moment (Debye)
         X       8.0990      Y       3.0108      Z      -0.0500
       Tot       8.6407
    Quadrupole Moments (Debye-Ang)
        XX    -109.4844     XY      14.2460     YY    -147.6717
        XZ      -0.0322     YZ       0.0312     ZZ     -93.8300

 Total job time:  63.12s(wall), 485.47s(cpu)
        *  Thank you very much for using Q-Chem.  Have a nice day.  *
