 Q-Chem 5.4, Q-Chem, Inc., Pleasanton, CA (2021)
 Q-Chem 5.4.0 for Intel X86 EM64T Linux

User input:
--------------------------------------------------------------
$molecule
0 1
C                  4.7184490000      0.1112400000      1.0138670000
C                  3.9615600000     -0.6112410000     -0.1157340000
C                  4.6135960000     -0.3414800000     -1.4842090000
C                  2.4816980000     -0.2631250000     -0.1173710000
C                  2.0302730000      1.0469540000     -0.3384560000
C                  0.6779860000      1.3630420000     -0.3441760000
C                 -0.3045310000      0.3849640000     -0.1232430000
C                  0.1486080000     -0.9249330000      0.1241890000
C                  1.5139790000     -1.2346900000      0.1131170000
C                 -0.8195660000     -1.9989260000      0.4283840000
O                 -0.5312040000     -3.1755540000      0.4599260000
C                 -2.2685650000     -1.5648710000      0.7698390000
O                 -2.9553420000     -2.3342140000      1.4090570000
C                 -2.7258440000     -0.2414460000      0.2795290000
C                 -4.1086460000      0.0722660000      0.2476640000
C                 -5.1887360000     -0.8713940000      0.7141050000
C                 -4.4937850000      1.3173490000     -0.2558810000
C                 -3.5524530000      2.2341490000     -0.7069470000
C                 -2.1984460000      1.9286060000     -0.6637970000
C                 -1.7568560000      0.6961420000     -0.1705320000
H                  4.2775310000     -0.1075990000      1.9895720000
H                  4.7026980000      1.1964390000      0.8742980000
H                  5.7653550000     -0.2047050000      1.0351620000
H                  4.0316030000     -1.6873350000      0.0763390000
H                  4.0980570000     -0.8815790000     -2.2822060000
H                  5.6597610000     -0.6605160000     -1.4782950000
H                  4.5937440000      0.7239910000     -1.7328050000
H                  2.7476030000      1.8430280000     -0.5074370000
H                  0.3966800000      2.3939850000     -0.5121390000
H                  1.7972080000     -2.2643620000      0.3020150000
H                 -5.1335270000     -1.0378410000      1.7917930000
H                 -6.1699520000     -0.4591240000      0.4707110000
H                 -5.0952920000     -1.8578390000      0.2557590000
H                 -5.5487990000      1.5638320000     -0.2982240000
H                 -3.8747120000      3.1917650000     -1.1006620000
H                 -1.4899340000      2.6554230000     -1.0358670000
$end
$rem
MAX_SCF_CYCLES=200
BASIS  =  6-311++G(d,p)
GUI  =  2
JOB_TYPE  =  SP
METHOD  =  B3LYP
SOLVENT_METHOD = PCM
$end
$pcm
theory = CPCM
$end
$solvent
dielectric 37.219
opticaldielectric 1.43
$end

--------------------------------------------------------------

             Standard Nuclear Orientation (Angstroms)
    I     Atom           X                Y                Z
 ----------------------------------------------------------------
    1      C       4.7184490000     0.1112400000     1.0138670000
    2      C       3.9615600000    -0.6112410000    -0.1157340000
    3      C       4.6135960000    -0.3414800000    -1.4842090000
    4      C       2.4816980000    -0.2631250000    -0.1173710000
    5      C       2.0302730000     1.0469540000    -0.3384560000
    6      C       0.6779860000     1.3630420000    -0.3441760000
    7      C      -0.3045310000     0.3849640000    -0.1232430000
    8      C       0.1486080000    -0.9249330000     0.1241890000
    9      C       1.5139790000    -1.2346900000     0.1131170000
   10      C      -0.8195660000    -1.9989260000     0.4283840000
   11      O      -0.5312040000    -3.1755540000     0.4599260000
   12      C      -2.2685650000    -1.5648710000     0.7698390000
   13      O      -2.9553420000    -2.3342140000     1.4090570000
   14      C      -2.7258440000    -0.2414460000     0.2795290000
   15      C      -4.1086460000     0.0722660000     0.2476640000
   16      C      -5.1887360000    -0.8713940000     0.7141050000
   17      C      -4.4937850000     1.3173490000    -0.2558810000
   18      C      -3.5524530000     2.2341490000    -0.7069470000
   19      C      -2.1984460000     1.9286060000    -0.6637970000
   20      C      -1.7568560000     0.6961420000    -0.1705320000
   21      H       4.2775310000    -0.1075990000     1.9895720000
   22      H       4.7026980000     1.1964390000     0.8742980000
   23      H       5.7653550000    -0.2047050000     1.0351620000
   24      H       4.0316030000    -1.6873350000     0.0763390000
   25      H       4.0980570000    -0.8815790000    -2.2822060000
   26      H       5.6597610000    -0.6605160000    -1.4782950000
   27      H       4.5937440000     0.7239910000    -1.7328050000
   28      H       2.7476030000     1.8430280000    -0.5074370000
   29      H       0.3966800000     2.3939850000    -0.5121390000
   30      H       1.7972080000    -2.2643620000     0.3020150000
   31      H      -5.1335270000    -1.0378410000     1.7917930000
   32      H      -6.1699520000    -0.4591240000     0.4707110000
   33      H      -5.0952920000    -1.8578390000     0.2557590000
   34      H      -5.5487990000     1.5638320000    -0.2982240000
   35      H      -3.8747120000     3.1917650000    -1.1006620000
   36      H      -1.4899340000     2.6554230000    -1.0358670000
 ----------------------------------------------------------------

    8    -846.2526785781      6.33e-06  Convergence criterion met
 Total energy in the final basis set =     -846.2526785781

                    Orbital Energies (a.u.)
 --------------------------------------------------------------

 Alpha MOs
 -- Occupied --
-19.1403 -19.1383 -10.2813 -10.2810 -10.2143 -10.2115 -10.2094 -10.2033
-10.1995 -10.1942 -10.1930 -10.1911 -10.1904 -10.1904 -10.1881 -10.1843
-10.1828 -10.1664 -10.1581 -10.1581  -1.0864  -1.0590  -0.8991  -0.8744
 -0.8254  -0.7958  -0.7882  -0.7742  -0.7397  -0.7169  -0.6849  -0.6838
 -0.6502  -0.6321  -0.6145  -0.5940  -0.5819  -0.5473  -0.5246  -0.5074
 -0.4949  -0.4830  -0.4750  -0.4677  -0.4608  -0.4547  -0.4488  -0.4404
 -0.4315  -0.4260  -0.4239  -0.4177  -0.4056  -0.3995  -0.3912  -0.3888
 -0.3853  -0.3763  -0.3661  -0.3630  -0.3592  -0.3445  -0.3384  -0.3311
 -0.3129  -0.2973  -0.2766  -0.2692  -0.2604  -0.2407

          Ground-State Mulliken Net Atomic Charges

     Atom                 Charge (a.u.)
  ----------------------------------------
      1 C                    -0.726828
      2 C                     0.177546
      3 C                    -0.727149
      4 C                     0.837158
      5 C                    -0.720198
      6 C                    -0.128300
      7 C                     0.380567
      8 C                     0.999100
      9 C                    -0.587658
     10 C                    -0.571610
     11 O                    -0.299473
     12 C                    -0.644517
     13 O                    -0.269946
     14 C                     0.629870
     15 C                     0.697258
     16 C                    -0.443257
     17 C                    -0.749252
     18 C                    -0.753991
     19 C                    -0.292282
     20 C                     0.341971
     21 H                     0.147450
     22 H                     0.166895
     23 H                     0.165670
     24 H                     0.208972
     25 H                     0.147943
     26 H                     0.167185
     27 H                     0.168172
     28 H                     0.223635
     29 H                     0.158671
     30 H                     0.199549
     31 H                     0.198736
     32 H                     0.167245
     33 H                     0.174311
     34 H                     0.165976
     35 H                     0.235443
     36 H                     0.155137
  ----------------------------------------
  Sum of atomic charges =     0.000001

                    Cartesian Multipole Moments
 -----------------------------------------------------------------
    Charge (ESU x 10^10)
                -0.0000
    Dipole Moment (Debye)
         X       2.0708      Y       8.1688      Z      -2.6876
       Tot       8.8454
    Quadrupole Moments (Debye-Ang)
        XX     -95.4124     XY     -14.6968     YY    -130.3822
        XZ       5.8546     YZ       2.6897     ZZ    -122.9646

 Total job time:  73.45s(wall), 517.32s(cpu)
        *  Thank you very much for using Q-Chem.  Have a nice day.  *
