 Gaussian 16, Revision A.03,
 Gaussian 16:  ES64L-G16RevA.03 25-Dec-2016

 --------------------------------------
 #P UB3LYP/6-311++G(d,p) nosym opt freq
 --------------------------------------

 --------
 Oxidized
 --------
 Symbolic Z-matrix:
 Charge =  0 Multiplicity = 1

 SCF Done:  E(UB3LYP) =  -846.235100922     A.U. after   15 cycles
 SCF Done:  E(UB3LYP) =  -846.235101045     A.U. after   10 cycles
 SCF Done:  E(UB3LYP) =  -846.235101007     A.U. after   10 cycles
 SCF Done:  E(UB3LYP) =  -846.235101532     A.U. after    9 cycles
 SCF Done:  E(UB3LYP) =  -846.235102612     A.U. after   10 cycles
 SCF Done:  E(UB3LYP) =  -846.232616114     A.U. after   14 cycles
 SCF Done:  E(UB3LYP) =  -846.235286824     A.U. after   15 cycles
 SCF Done:  E(UB3LYP) =  -846.180989656     A.U. after   16 cycles
 SCF Done:  E(UB3LYP) =  -846.235071179     A.U. after   16 cycles
 SCF Done:  E(UB3LYP) =  -846.235417482     A.U. after   12 cycles
 SCF Done:  E(UB3LYP) =  -846.235429872     A.U. after   13 cycles
 SCF Done:  E(UB3LYP) =  -846.235477869     A.U. after   13 cycles
 SCF Done:  E(UB3LYP) =  -846.235483707     A.U. after   11 cycles
 SCF Done:  E(UB3LYP) =  -846.235485136     A.U. after   11 cycles
 SCF Done:  E(UB3LYP) =  -846.235485834     A.U. after   10 cycles
 SCF Done:  E(UB3LYP) =  -846.235485933     A.U. after   10 cycles
 SCF Done:  E(UB3LYP) =  -846.235485950     A.U. after    9 cycles
 Optimization completed.
    -- Stationary point found.
 Normal termination of Gaussian 16 at Fri Jan 12 21:48:47 2024.

 ----------------------------------------------------------------------
 #P Geom=AllCheck Guess=TCheck SCRF=Check GenChk UB3LYP/6-311++G(d,p) F
 req
 ----------------------------------------------------------------------

 Structure from the checkpoint file:  "330.chk"
 --------
 Oxidized
 --------
 Charge =  0 Multiplicity = 1

                          Input orientation:
 ---------------------------------------------------------------------
 Center     Atomic      Atomic             Coordinates (Angstroms)
 Number     Number       Type             X           Y           Z
 ---------------------------------------------------------------------
      1          6           0        4.718449    0.111240    1.013867
      2          6           0        3.961560   -0.611241   -0.115734
      3          6           0        4.613596   -0.341480   -1.484209
      4          6           0        2.481698   -0.263125   -0.117371
      5          6           0        2.030273    1.046954   -0.338456
      6          6           0        0.677986    1.363042   -0.344176
      7          6           0       -0.304531    0.384964   -0.123243
      8          6           0        0.148608   -0.924933    0.124189
      9          6           0        1.513979   -1.234690    0.113117
     10          6           0       -0.819566   -1.998926    0.428384
     11          8           0       -0.531204   -3.175554    0.459926
     12          6           0       -2.268565   -1.564871    0.769839
     13          8           0       -2.955342   -2.334214    1.409057
     14          6           0       -2.725844   -0.241446    0.279529
     15          6           0       -4.108646    0.072266    0.247664
     16          6           0       -5.188736   -0.871394    0.714105
     17          6           0       -4.493785    1.317349   -0.255881
     18          6           0       -3.552453    2.234149   -0.706947
     19          6           0       -2.198446    1.928606   -0.663797
     20          6           0       -1.756856    0.696142   -0.170532
     21          1           0        4.277531   -0.107599    1.989572
     22          1           0        4.702698    1.196439    0.874298
     23          1           0        5.765355   -0.204705    1.035162
     24          1           0        4.031603   -1.687335    0.076339
     25          1           0        4.098057   -0.881579   -2.282206
     26          1           0        5.659761   -0.660516   -1.478295
     27          1           0        4.593744    0.723991   -1.732805
     28          1           0        2.747603    1.843028   -0.507437
     29          1           0        0.396680    2.393985   -0.512139
     30          1           0        1.797208   -2.264362    0.302015
     31          1           0       -5.133527   -1.037841    1.791793
     32          1           0       -6.169952   -0.459124    0.470711
     33          1           0       -5.095292   -1.857839    0.255759
     34          1           0       -5.548799    1.563832   -0.298224
     35          1           0       -3.874712    3.191765   -1.100662
     36          1           0       -1.489934    2.655423   -1.035867
 ---------------------------------------------------------------------

 SCF Done:  E(UB3LYP) =  -846.235485950     A.U. after    1 cycles

 Alpha  occ. eigenvalues --  -19.12784 -19.12744 -10.27105 -10.26959 -10.21788
 Alpha  occ. eigenvalues --  -10.21489 -10.21222 -10.20459 -10.20067 -10.20048
 Alpha  occ. eigenvalues --  -10.20041 -10.19883 -10.19815 -10.19559 -10.19489
 Alpha  occ. eigenvalues --  -10.19351 -10.19140 -10.17165 -10.17165 -10.17002
 Alpha  occ. eigenvalues --   -1.07310  -1.04579  -0.90250  -0.87899  -0.83231
 Alpha  occ. eigenvalues --   -0.79916  -0.79559  -0.77811  -0.74558  -0.71878
 Alpha  occ. eigenvalues --   -0.69794  -0.68599  -0.65556  -0.63586  -0.61771
 Alpha  occ. eigenvalues --   -0.60075  -0.58632  -0.54989  -0.52775  -0.51084
 Alpha  occ. eigenvalues --   -0.49622  -0.48641  -0.48046  -0.46670  -0.45603
 Alpha  occ. eigenvalues --   -0.45250  -0.44763  -0.44325  -0.44074  -0.43063
 Alpha  occ. eigenvalues --   -0.42902  -0.42063  -0.41464  -0.40242  -0.39960
 Alpha  occ. eigenvalues --   -0.39283  -0.38419  -0.38139  -0.37220  -0.36644
 Alpha  occ. eigenvalues --   -0.36440  -0.35442  -0.34743  -0.34360  -0.30340
 Alpha  occ. eigenvalues --   -0.29946  -0.27785  -0.27106  -0.24916  -0.24425
 Alpha virt. eigenvalues --   -0.11583  -0.05839  -0.04704  -0.01687  -0.00989
 Alpha virt. eigenvalues --   -0.00965  -0.00029   0.00162   0.00860   0.01057
 Alpha virt. eigenvalues --    0.01090   0.02518   0.02623   0.03506   0.03650

  Beta  occ. eigenvalues --  -19.12784 -19.12744 -10.27105 -10.26959 -10.21788
  Beta  occ. eigenvalues --  -10.21489 -10.21222 -10.20459 -10.20067 -10.20048
  Beta  occ. eigenvalues --  -10.20041 -10.19883 -10.19815 -10.19559 -10.19489
  Beta  occ. eigenvalues --  -10.19351 -10.19140 -10.17165 -10.17165 -10.17002
  Beta  occ. eigenvalues --   -1.07310  -1.04579  -0.90250  -0.87899  -0.83231
  Beta  occ. eigenvalues --   -0.79916  -0.79559  -0.77811  -0.74558  -0.71878
  Beta  occ. eigenvalues --   -0.69794  -0.68599  -0.65556  -0.63586  -0.61771
  Beta  occ. eigenvalues --   -0.60075  -0.58632  -0.54989  -0.52775  -0.51084
  Beta  occ. eigenvalues --   -0.49622  -0.48641  -0.48046  -0.46670  -0.45603
  Beta  occ. eigenvalues --   -0.45250  -0.44763  -0.44325  -0.44074  -0.43063
  Beta  occ. eigenvalues --   -0.42902  -0.42063  -0.41464  -0.40242  -0.39960
  Beta  occ. eigenvalues --   -0.39283  -0.38419  -0.38139  -0.37220  -0.36644
  Beta  occ. eigenvalues --   -0.36440  -0.35442  -0.34743  -0.34360  -0.30340
  Beta  occ. eigenvalues --   -0.29946  -0.27785  -0.27106  -0.24916  -0.24425
  Beta virt. eigenvalues --   -0.11583  -0.05839  -0.04704  -0.01687  -0.00989
  Beta virt. eigenvalues --   -0.00965  -0.00029   0.00162   0.00860   0.01057
  Beta virt. eigenvalues --    0.01090   0.02518   0.02623   0.03506   0.03650

 Mulliken charges and spin densities:
               1          2
     1  C   -0.666553   0.000000
     2  C    0.173923  -0.000000
     3  C   -0.666856   0.000000
     4  C    0.861113   0.000000
     5  C   -0.707307   0.000000
     6  C   -0.105002   0.000000
     7  C    0.422197  -0.000000
     8  C    0.983153  -0.000000
     9  C   -0.595320  -0.000000
    10  C   -0.616852  -0.000000
    11  O   -0.201863  -0.000000
    12  C   -0.700754   0.000000
    13  O   -0.180525  -0.000000
    14  C    0.612531  -0.000000
    15  C    0.698429   0.000000
    16  C   -0.393145  -0.000000
    17  C   -0.741838  -0.000000
    18  C   -0.733077   0.000000
    19  C   -0.292134   0.000000
    20  C    0.411051  -0.000000
    21  H    0.143300  -0.000000
    22  H    0.150036  -0.000000
    23  H    0.152038  -0.000000
    24  H    0.190471   0.000000
    25  H    0.143692   0.000000
    26  H    0.153733  -0.000000
    27  H    0.151566  -0.000000
    28  H    0.164080   0.000000
    29  H    0.095198  -0.000000
    30  H    0.187632   0.000000
    31  H    0.198470   0.000000
    32  H    0.138147   0.000000
    33  H    0.172902  -0.000000
    34  H    0.115060  -0.000000
    35  H    0.188878   0.000000
    36  H    0.093627   0.000000
 Sum of Mulliken charges =  -0.00000  -0.00000

 Dipole moment (field-independent basis, Debye):
    X=              1.5446    Y=              5.3940    Z=             -1.7790  Tot=              5.8861
 Quadrupole moment (field-independent basis, Debye-Ang):
   XX=           -100.7425   YY=           -128.0695   ZZ=           -122.2714
   XY=            -10.5170   XZ=              4.0506   YZ=              2.0290

  Exact polarizability: 326.384  -8.912 222.285 -10.913 -30.586 136.842
 Approx polarizability: 442.128  -6.992 410.999 -15.662 -65.211 221.156

                      1                      2                      3
                      A                      A                      A
 Frequencies --     26.2054                40.3065                43.8424
 Red. masses --      3.1320                 4.9480                 4.6864
 Frc consts  --      0.0013                 0.0047                 0.0053
 IR Inten    --      0.0289                 0.8317                 0.7644

                      4                      5                      6
                      A                      A                      A
 Frequencies --     67.9269               125.2315               131.3417
 Red. masses --      4.0700                 3.9886                 4.2350
 Frc consts  --      0.0111                 0.0369                 0.0430
 IR Inten    --      0.3587                 0.8061                 0.4385

                      7                      8                      9
                      A                      A                      A
 Frequencies --    149.9817               200.1289               223.2651
 Red. masses --      4.6427                 2.1271                 1.3197
 Frc consts  --      0.0615                 0.0502                 0.0388
 IR Inten    --      0.4279                 0.4511                 0.2459

                     10                     11                     12
                      A                      A                      A
 Frequencies --    228.9445               230.0520               242.0013
 Red. masses --      1.4077                 1.6576                 2.3281
 Frc consts  --      0.0435                 0.0517                 0.0803
 IR Inten    --      0.0919                 0.1488                 0.5240

                     13                     14                     15
                      A                      A                      A
 Frequencies --    254.5195               269.3580               313.6462
 Red. masses --      1.8503                 2.8818                 4.5894
 Frc consts  --      0.0706                 0.1232                 0.2660
 IR Inten    --      0.5924                 2.2644                 2.7798

                     16                     17                     18
                      A                      A                      A
 Frequencies --    351.5010               370.9274               374.9836
 Red. masses --      4.1863                 4.0680                 9.6295
 Frc consts  --      0.3047                 0.3298                 0.7978
 IR Inten    --      2.5827                 2.7641                 3.3428

                     19                     20                     21
                      A                      A                      A
 Frequencies --    387.5528               418.4984               439.2792
 Red. masses --      4.3784                 4.0734                 3.9620
 Frc consts  --      0.3875                 0.4203                 0.4504
 IR Inten    --      0.1480                 0.9029                 1.4119

                     22                     23                     24
                      A                      A                      A
 Frequencies --    445.1196               461.6368               499.3888
 Red. masses --      4.2178                 6.4467                 3.6853
 Frc consts  --      0.4924                 0.8094                 0.5415
 IR Inten    --      5.7689                 2.5221                 0.7427

                     25                     26                     27
                      A                      A                      A
 Frequencies --    525.1957               557.8216               567.9572
 Red. masses --      4.1074                 5.2293                 4.4681
 Frc consts  --      0.6675                 0.9587                 0.8492
 IR Inten    --      4.5727                 1.0605                 3.0768

                     28                     29                     30
                      A                      A                      A
 Frequencies --    596.6531               625.7300               656.7039
 Red. masses --      3.2409                 3.2035                 5.8431
 Frc consts  --      0.6798                 0.7390                 1.4847
 IR Inten    --      1.1295                 3.7319                 6.7311

                     31                     32                     33
                      A                      A                      A
 Frequencies --    696.3825               724.8891               736.0197
 Red. masses --      6.9583                 4.1996                 3.1857
 Frc consts  --      1.9881                 1.3002                 1.0168
 IR Inten    --      3.2605                 4.4503                 8.1230

                     34                     35                     36
                      A                      A                      A
 Frequencies --    749.0985               799.0429               808.6753
 Red. masses --      4.1467                 1.5153                 5.2038
 Frc consts  --      1.3710                 0.5700                 2.0050
 IR Inten    --      7.0319                37.2567                 1.4200

                     37                     38                     39
                      A                      A                      A
 Frequencies --    844.2794               852.7994               875.3623
 Red. masses --      3.1666                 2.0954                 4.9178
 Frc consts  --      1.3299                 0.8979                 2.2202
 IR Inten    --      2.0736                14.9163                 8.0434

                     40                     41                     42
                      A                      A                      A
 Frequencies --    894.7200               913.5545               931.3263
 Red. masses --      3.1811                 1.3831                 1.2016
 Frc consts  --      1.5004                 0.6801                 0.6141
 IR Inten    --     18.8471                 0.2362                 0.0845

                     43                     44                     45
                      A                      A                      A
 Frequencies --    947.3671               960.0196               962.3965
 Red. masses --      1.4725                 4.2520                 1.5363
 Frc consts  --      0.7787                 2.3089                 0.8384
 IR Inten    --      7.2123                11.9316                 0.0334

                     46                     47                     48
                      A                      A                      A
 Frequencies --    986.4341               998.7890              1021.9563
 Red. masses --      1.3652                 1.3318                 1.7263
 Frc consts  --      0.7827                 0.7828                 1.0623
 IR Inten    --      0.3979                 0.1209                 1.0110

                     49                     50                     51
                      A                      A                      A
 Frequencies --   1047.2036              1055.3500              1070.5691
 Red. masses --      3.8637                 1.5816                 1.7378
 Frc consts  --      2.4964                 1.0379                 1.1735
 IR Inten    --      4.7469                 3.3934                10.2079

                     52                     53                     54
                      A                      A                      A
 Frequencies --   1088.7822              1118.2224              1128.3869
 Red. masses --      3.2139                 2.3646                 1.8702
 Frc consts  --      2.2447                 1.7421                 1.4030
 IR Inten    --     10.5233                 1.1204                 5.5471

                     55                     56                     57
                      A                      A                      A
 Frequencies --   1162.2673              1180.9213              1203.8115
 Red. masses --      1.8102                 1.5960                 1.6887
 Frc consts  --      1.4407                 1.3114                 1.4418
 IR Inten    --      4.8585                 6.3623                18.4575

                     58                     59                     60
                      A                      A                      A
 Frequencies --   1211.6016              1242.4447              1252.9645
 Red. masses --      1.6917                 3.2695                 1.8628
 Frc consts  --      1.4632                 2.9737                 1.7230
 IR Inten    --     18.8637                48.7625                15.1223

                     61                     62                     63
                      A                      A                      A
 Frequencies --   1274.7928              1294.3570              1309.3944
 Red. masses --      2.1973                 3.4376                 3.5635
 Frc consts  --      2.1039                 3.3933                 3.5997
 IR Inten    --     24.1703                14.4253                 1.6602

                     64                     65                     66
                      A                      A                      A
 Frequencies --   1317.4521              1331.2948              1345.3359
 Red. masses --      3.3543                 2.6623                 1.3127
 Frc consts  --      3.4302                 2.7800                 1.3998
 IR Inten    --     69.2207                20.0916                 1.7011

                     67                     68                     69
                      A                      A                      A
 Frequencies --   1373.3262              1399.4720              1418.9206
 Red. masses --      2.1345                 1.2150                 1.2336
 Frc consts  --      2.3718                 1.4020                 1.4633
 IR Inten    --      7.4594                 6.4187                16.3911

                     70                     71                     72
                      A                      A                      A
 Frequencies --   1420.6672              1438.7603              1463.8508
 Red. masses --      1.2242                 2.6086                 2.4714
 Frc consts  --      1.4558                 3.1815                 3.1202
 IR Inten    --      5.2171                13.5257                11.8934

                     73                     74                     75
                      A                      A                      A
 Frequencies --   1476.7651              1482.4440              1487.5679
 Red. masses --      1.0623                 1.6907                 1.0438
 Frc consts  --      1.3649                 2.1891                 1.3609
 IR Inten    --      7.9357                13.8821                 0.0018

                     76                     77                     78
                      A                      A                      A
 Frequencies --   1491.4382              1496.6298              1503.8296
 Red. masses --      1.0459                 1.5483                 1.0528
 Frc consts  --      1.3708                 2.0433                 1.4027
 IR Inten    --      3.4521                54.0211                12.0598

                     79                     80                     81
                      A                      A                      A
 Frequencies --   1508.7651              1533.0651              1594.2581
 Red. masses --      1.0941                 2.6799                 5.8709
 Frc consts  --      1.4674                 3.7110                 8.7916
 IR Inten    --     14.7406                 8.6527                19.0774

                     82                     83                     84
                      A                      A                      A
 Frequencies --   1609.8221              1629.0789              1641.3721
 Red. masses --      5.7484                 5.7238                 6.0209
 Frc consts  --      8.7771                 8.9498                 9.5571
 IR Inten    --     47.3857                27.7614                15.7062

                     85                     86                     87
                      A                      A                      A
 Frequencies --   1739.9314              1761.5245              3020.4764
 Red. masses --     12.7552                12.8110                 1.0345
 Frc consts  --     22.7511                23.4212                 5.5608
 IR Inten    --    349.1069                57.7785                24.1173

                     88                     89                     90
                      A                      A                      A
 Frequencies --   3022.5270              3026.0962              3040.8888
 Red. masses --      1.0587                 1.0598                 1.0355
 Frc consts  --      5.6985                 5.7181                 5.6415
 IR Inten    --     19.5427                24.4246                19.4940

                     91                     92                     93
                      A                      A                      A
 Frequencies --   3080.8567              3087.8092              3093.2690
 Red. masses --      1.1020                 1.1007                 1.1023
 Frc consts  --      6.1627                 6.1836                 6.2143
 IR Inten    --      0.7699                80.6737                18.6811

                     94                     95                     96
                      A                      A                      A
 Frequencies --   3095.0684              3100.1594              3110.0771
 Red. masses --      1.1019                 1.0989                 1.1035
 Frc consts  --      6.2193                 6.2227                 6.2888
 IR Inten    --     35.1611                 5.9772                24.1272

                     97                     98                     99
                      A                      A                      A
 Frequencies --   3165.2983              3166.1988              3179.3323
 Red. masses --      1.0871                 1.0882                 1.0902
 Frc consts  --      6.4174                 6.4274                 6.4929
 IR Inten    --      1.1310                17.0258                 4.4687

                    100                    101                    102
                      A                      A                      A
 Frequencies --   3181.1724              3195.9257              3213.1595
 Red. masses --      1.0935                 1.0936                 1.0899
 Frc consts  --      6.5200                 6.5810                 6.6300
 IR Inten    --     21.2713                 0.7210                12.0440

 - Thermochemistry -
 -------------------
 Temperature   298.150 Kelvin.  Pressure   1.00000 Atm.
 Atom     1 has atomic number  6 and mass  12.00000

 Molecular mass:   264.11503 amu.
 Principal axes and moments of inertia in atomic units:
                           1         2         3
     Eigenvalues --  2442.881938960.37080**********
           X            0.99787   0.00698   0.06491
           Y           -0.02673   0.95083   0.30856
           Z           -0.05957  -0.30963   0.94899
 This molecule is an asymmetric top.
 Rotational symmetry number  1.
 Warning -- assumption of classical behavior for rotation
           may cause significant error
 Rotational temperatures (Kelvin)      0.03546     0.00967     0.00793
 Rotational constants (GHZ):           0.73878     0.20141     0.16523
 Zero-point vibrational energy     762103.6 (Joules/Mol)
                                  182.14713 (Kcal/Mol)
 Warning -- explicit consideration of  28 degrees of freedom as
           vibrations may cause significant error
 Vibrational temperatures:     37.70    57.99    63.08    97.73   180.18
          (Kelvin)            188.97   215.79   287.94   321.23   329.40
                              330.99   348.19   366.20   387.55   451.27
                              505.73   533.68   539.52   557.60   602.13
                              632.02   640.43   664.19   718.51   755.64
                              802.58   817.16   858.45   900.29   944.85
                             1001.94  1042.95  1058.97  1077.79  1149.64
                             1163.50  1214.73  1226.99  1259.45  1287.30
                             1314.40  1339.97  1363.05  1381.25  1384.67
                             1419.26  1437.03  1470.37  1506.69  1518.41
                             1540.31  1566.51  1608.87  1623.50  1672.24
                             1699.08  1732.02  1743.22  1787.60  1802.74
                             1834.14  1862.29  1883.93  1895.52  1915.44
                             1935.64  1975.91  2013.53  2041.51  2044.02
                             2070.06  2106.15  2124.74  2132.91  2140.28
                             2145.85  2153.32  2163.68  2170.78  2205.74
                             2293.78  2316.17  2343.88  2361.57  2503.37
                             2534.44  4345.79  4348.74  4353.88  4375.16
                             4432.67  4442.67  4450.52  4453.11  4460.44
                             4474.71  4554.16  4555.45  4574.35  4577.00
                             4598.22  4623.02

 Zero-point correction=                           0.290270 (Hartree/Particle)
 Thermal correction to Energy=                    0.307699
 Thermal correction to Enthalpy=                  0.308643
 Thermal correction to Gibbs Free Energy=         0.244437
 Sum of electronic and zero-point Energies=           -845.945216
 Sum of electronic and thermal Energies=              -845.927787
 Sum of electronic and thermal Enthalpies=            -845.926843
 Sum of electronic and thermal Free Energies=         -845.991049

                     E (Thermal)             CV                S
                      KCal/Mol        Cal/Mol-Kelvin    Cal/Mol-Kelvin
 Total                  193.084             68.248            135.132
 Electronic               0.000              0.000              0.000
 Translational            0.889              2.981             42.613
 Rotational               0.889              2.981             33.835
 Vibrational            191.306             62.287             58.684
 Vibration     1          0.593              1.985              6.098
 Vibration     2          0.594              1.981              5.244
 Vibration     3          0.595              1.980              5.077
 Vibration     4          0.598              1.970              4.213
 Vibration     5          0.610              1.928              3.018
 Vibration     6          0.612              1.922              2.926
 Vibration     7          0.618              1.903              2.672
 Vibration     8          0.638              1.840              2.132
 Vibration     9          0.649              1.806              1.932
 Vibration    10          0.652              1.797              1.887
 Vibration    11          0.652              1.795              1.879
 Vibration    12          0.658              1.776              1.788
 Vibration    13          0.665              1.755              1.699
 Vibration    14          0.674              1.730              1.600
 Vibration    15          0.701              1.648              1.343
 Vibration    16          0.728              1.572              1.159
 Vibration    17          0.743              1.532              1.076
 Vibration    18          0.746              1.523              1.059
 Vibration    19          0.756              1.497              1.010
 Vibration    20          0.781              1.430              0.897
 Vibration    21          0.799              1.385              0.829
 Vibration    22          0.804              1.372              0.811
 Vibration    23          0.819              1.335              0.761
 Vibration    24          0.855              1.251              0.660
 Vibration    25          0.880              1.194              0.598
 Vibration    26          0.913              1.123              0.528
 Vibration    27          0.924              1.101              0.508
 Vibration    28          0.954              1.039              0.455

 Optimization completed.
    -- Stationary point found.
 Normal termination of Gaussian 16 at Fri Jan 12 23:46:05 2024.
