 Gaussian 16, Revision A.03,
 Gaussian 16:  ES64L-G16RevA.03 25-Dec-2016

 ----------------------------------------------------------------
 #P UB3LYP/6-311++G(d,p) SCRF=(PCM,Solvent=n,n-DiMethylFormamide)
 ----------------------------------------------------------------

 -------
 Reduced
 -------
 Symbolic Z-matrix:
 Charge = -2 Multiplicity = 1

                         Standard orientation:
 ---------------------------------------------------------------------
 Center     Atomic      Atomic             Coordinates (Angstroms)
 Number     Number       Type             X           Y           Z
 ---------------------------------------------------------------------
      1          6           0        2.529628    1.095487   -0.030890
      2          6           0        3.591584    0.211772   -0.021909
      3          6           0        3.344535   -1.189075   -0.003062
      4          6           0        1.178751    0.658073   -0.022588
      5          6           0        0.927491   -0.773960    0.006245
      6          6           0        2.038051   -1.647642    0.013328
      7          6           0        0.108508    1.616543   -0.011466
      8          6           0       -1.197824    1.054686    0.001689
      9          6           0       -1.435810   -0.336865   -0.012291
     10          6           0       -0.418174   -1.326927    0.028013
     11          8           0        0.276369    2.916007    0.007680
     12          8           0       -0.668640   -2.592061    0.075622
     13          7           0       -2.265897    2.009009   -0.001056
     14         16           0       -3.122990   -0.996166   -0.044451
     15          1           0        2.690042    2.169761   -0.044553
     16          1           0        4.615233    0.585564   -0.031267
     17          1           0        4.175836   -1.892915    0.002619
     18          1           0        1.813464   -2.710429    0.033775
     19          1           0       -1.778386    2.909371    0.067016
     20          1           0       -2.863977    1.892349    0.816060
     21          1           0       -3.685372    0.157765   -0.473880
 ---------------------------------------------------------------------

 SCF Done:  E(UB3LYP) =  -989.111626984     A.U. after   17 cycles

 The electronic state is 1-A.
 Alpha  occ. eigenvalues --  -88.82932 -19.02158 -19.01889 -14.28485 -10.17614
 Alpha  occ. eigenvalues --  -10.16589 -10.16195 -10.15648 -10.14899 -10.14711
 Alpha  occ. eigenvalues --  -10.14548 -10.14460 -10.13808 -10.13746  -7.91557
 Alpha  occ. eigenvalues --   -5.87893  -5.87564  -5.87022  -0.93881  -0.93234
 Alpha  occ. eigenvalues --   -0.86913  -0.82317  -0.77073  -0.73197  -0.72210
 Alpha  occ. eigenvalues --   -0.67256  -0.63567  -0.57818  -0.56887  -0.52637
 Alpha  occ. eigenvalues --   -0.50178  -0.47567  -0.44753  -0.43494  -0.41289
 Alpha  occ. eigenvalues --   -0.40395  -0.39523  -0.37628  -0.37347  -0.36191
 Alpha  occ. eigenvalues --   -0.35958  -0.33601  -0.32645  -0.32194  -0.31699
 Alpha  occ. eigenvalues --   -0.30166  -0.27516  -0.25637  -0.22820  -0.22230
 Alpha  occ. eigenvalues --   -0.20596  -0.19890  -0.18240  -0.11212
 Alpha virt. eigenvalues --   -0.00450  -0.00196   0.00717   0.01440   0.01720
 Alpha virt. eigenvalues --    0.02772   0.03096   0.04049   0.04143   0.05236
 Alpha virt. eigenvalues --    0.05667   0.05961   0.06281   0.06752   0.07711

  Beta  occ. eigenvalues --  -88.82932 -19.02158 -19.01889 -14.28485 -10.17614
  Beta  occ. eigenvalues --  -10.16589 -10.16195 -10.15648 -10.14899 -10.14711
  Beta  occ. eigenvalues --  -10.14548 -10.14460 -10.13808 -10.13746  -7.91557
  Beta  occ. eigenvalues --   -5.87893  -5.87564  -5.87022  -0.93881  -0.93234
  Beta  occ. eigenvalues --   -0.86913  -0.82317  -0.77073  -0.73197  -0.72210
  Beta  occ. eigenvalues --   -0.67256  -0.63567  -0.57818  -0.56887  -0.52637
  Beta  occ. eigenvalues --   -0.50178  -0.47567  -0.44753  -0.43494  -0.41289
  Beta  occ. eigenvalues --   -0.40395  -0.39523  -0.37628  -0.37347  -0.36191
  Beta  occ. eigenvalues --   -0.35958  -0.33601  -0.32645  -0.32194  -0.31699
  Beta  occ. eigenvalues --   -0.30166  -0.27516  -0.25637  -0.22820  -0.22230
  Beta  occ. eigenvalues --   -0.20596  -0.19890  -0.18240  -0.11212
  Beta virt. eigenvalues --   -0.00450  -0.00196   0.00717   0.01440   0.01720
  Beta virt. eigenvalues --    0.02772   0.03096   0.04049   0.04143   0.05236
  Beta virt. eigenvalues --    0.05667   0.05961   0.06281   0.06752   0.07711

 Mulliken charges and spin densities:
               1          2
     1  C    0.028218   0.000000
     2  C   -0.397792  -0.000000
     3  C   -0.400586  -0.000000
     4  C   -0.155724  -0.000000
     5  C    0.677767   0.000000
     6  C    0.099292  -0.000000
     7  C   -0.912042   0.000000
     8  C   -0.015267   0.000000
     9  C    1.500508  -0.000000
    10  C   -1.183454   0.000000
    11  O   -0.722133  -0.000000
    12  O   -0.634525  -0.000000
    13  N   -0.450779   0.000000
    14  S   -0.645640   0.000000
    15  H    0.148621  -0.000000
    16  H    0.153460  -0.000000
    17  H    0.157830   0.000000
    18  H    0.137774  -0.000000
    19  H    0.278645  -0.000000
    20  H    0.239282   0.000000
    21  H    0.096545  -0.000000
 Sum of Mulliken charges =  -2.00000  -0.00000

 Dipole moment (field-independent basis, Debye):
    X=              1.5267    Y=              0.8789    Z=              0.9962  Tot=              2.0238
 Quadrupole moment (field-independent basis, Debye-Ang):
   XX=           -117.4656   YY=           -152.6658   ZZ=           -101.2940
   XY=            -14.0254   XZ=             -2.9591   YZ=              2.9433

 Normal termination of Gaussian 16 at Sun Jan 21 08:57:39 2024.
