 Gaussian 16, Revision A.03,
 Gaussian 16:  ES64L-G16RevA.03 25-Dec-2016

 ----------------------------------------------------------------
 #P UB3LYP/6-311++G(d,p) SCRF=(PCM,Solvent=n,n-DiMethylFormamide)
 ----------------------------------------------------------------

 ------------------
 Radical PCM in DMF
 ------------------
 Symbolic Z-matrix:
 Charge = -1 Multiplicity = 2

                         Standard orientation:
 ---------------------------------------------------------------------
 Center     Atomic      Atomic             Coordinates (Angstroms)
 Number     Number       Type             X           Y           Z
 ---------------------------------------------------------------------
      1          6           0        1.916985   -1.659182    0.000055
      2          6           0        0.762862   -0.691976   -0.000019
      3          6           0       -0.542465   -1.116974   -0.000079
      4          6           0       -1.680187   -0.218581   -0.000039
      5          8           0       -2.875312   -0.637892    0.000034
      6          6           0       -1.347883    1.190871    0.000036
      7          6           0       -0.050273    1.631799    0.000016
      8          6           0        1.083178    0.732955   -0.000046
      9          8           0        2.280237    1.148447   -0.000019
     10          1           0        2.558791   -1.503971    0.874313
     11          1           0        2.559443   -1.503245   -0.873598
     12          1           0        1.562999   -2.694404   -0.000374
     13          1           0       -0.774521   -2.180163   -0.000173
     14          1           0       -2.180463    1.889754    0.000126
     15          1           0        0.181048    2.694113    0.000040
 ---------------------------------------------------------------------

 SCF Done:  E(UB3LYP) =  -421.052979627     A.U. after   18 cycles

 The electronic state is 2-A.
 Alpha  occ. eigenvalues --  -19.07567 -19.07530 -10.21683 -10.21567 -10.17153
 Alpha  occ. eigenvalues --  -10.16154 -10.16059 -10.15716 -10.15703  -0.99588
 Alpha  occ. eigenvalues --   -0.99336  -0.82250  -0.76200  -0.69565  -0.66271
 Alpha  occ. eigenvalues --   -0.58870  -0.55200  -0.47467  -0.46514  -0.43718
 Alpha  occ. eigenvalues --   -0.42246  -0.40579  -0.39884  -0.38719  -0.38659
 Alpha  occ. eigenvalues --   -0.36683  -0.36173  -0.34929  -0.27901  -0.25055
 Alpha  occ. eigenvalues --   -0.24127  -0.23584  -0.16061
 Alpha virt. eigenvalues --   -0.00606  -0.00013   0.01216   0.01716   0.02785
 Alpha virt. eigenvalues --    0.03661   0.04038   0.04098   0.06032   0.07207
 Alpha virt. eigenvalues --    0.07346   0.07662   0.08210   0.09603   0.11105

  Beta  occ. eigenvalues --  -19.06868 -19.06836 -10.21548 -10.21413 -10.17038
  Beta  occ. eigenvalues --  -10.16042 -10.15928 -10.15725 -10.15626  -0.98367
  Beta  occ. eigenvalues --   -0.98089  -0.81648  -0.75922  -0.69094  -0.65468
  Beta  occ. eigenvalues --   -0.58458  -0.54786  -0.47249  -0.46051  -0.43351
  Beta  occ. eigenvalues --   -0.41430  -0.40390  -0.39319  -0.38486  -0.37101
  Beta  occ. eigenvalues --   -0.35866  -0.34697  -0.33896  -0.24709  -0.24113
  Beta  occ. eigenvalues --   -0.23473  -0.22964
  Beta virt. eigenvalues --   -0.08770   0.00012   0.00743   0.01230   0.01750
  Beta virt. eigenvalues --    0.03679   0.04073   0.04107   0.04992   0.06097
  Beta virt. eigenvalues --    0.07248   0.07690   0.07758   0.08342   0.09642

 Mulliken charges and spin densities:
               1          2
     1  C   -0.436895   0.006938
     2  C    1.279485   0.098308
     3  C   -0.748910   0.017606
     4  C   -0.379915   0.130864
     5  O   -0.522106   0.240238
     6  C    0.066861   0.096696
     7  C    0.111375   0.086882
     8  C   -0.857277   0.084783
     9  O   -0.500874   0.250982
    10  H    0.162199   0.004465
    11  H    0.162155   0.004458
    12  H    0.145369  -0.000482
    13  H    0.155109  -0.006265
    14  H    0.181567  -0.007601
    15  H    0.181857  -0.007872
 Sum of Mulliken charges =  -1.00000   1.00000

 Dipole moment (field-independent basis, Debye):
    X=              2.0627    Y=             -1.4058    Z=              0.0001  Tot=              2.4962
 Quadrupole moment (field-independent basis, Debye-Ang):
   XX=            -93.5901   YY=            -58.1975   ZZ=            -57.1347
   XY=            -14.0500   XZ=              0.0006   YZ=              0.0001

 Normal termination of Gaussian 16 at Sun Jan 21 07:17:10 2024.
