 Gaussian 16, Revision A.03,
 Gaussian 16:  ES64L-G16RevA.03 25-Dec-2016

 ----------------------------------------------------------------------
 #P UB3LYP/6-311++G(d,p) nosym opt freq SCRF=(PCM,Solvent=n,n-DiMethylF
 ormamide)
 ----------------------------------------------------------------------

 -------
 Radical
 -------
 Symbolic Z-matrix:
 Charge = -1 Multiplicity = 2

 SCF Done:  E(UB3LYP) =  -5721.82206386     A.U. after   19 cycles
 SCF Done:  E(UB3LYP) =  -5721.82228612     A.U. after   14 cycles
 SCF Done:  E(UB3LYP) =  -5721.82230613     A.U. after   14 cycles
 SCF Done:  E(UB3LYP) =  -5721.82230759     A.U. after   13 cycles
 SCF Done:  E(UB3LYP) =  -5721.82231967     A.U. after   13 cycles
 SCF Done:  E(UB3LYP) =  -5721.82232031     A.U. after    9 cycles
 SCF Done:  E(UB3LYP) =  -5721.82232074     A.U. after    9 cycles
 SCF Done:  E(UB3LYP) =  -5721.82232086     A.U. after    8 cycles
 SCF Done:  E(UB3LYP) =  -5721.82232097     A.U. after    9 cycles
 Optimization completed.
    -- Stationary point found.
 Normal termination of Gaussian 16 at Sun Feb 11 01:39:02 2024.

 ----------------------------------------------------------------------
 #P Geom=AllCheck Guess=TCheck SCRF=Check GenChk UB3LYP/6-311++G(d,p) F
 req
 ----------------------------------------------------------------------

 Structure from the checkpoint file:  "234-rad.chk"
 -------
 Radical
 -------
 Charge = -1 Multiplicity = 2

                          Input orientation:
 ---------------------------------------------------------------------
 Center     Atomic      Atomic             Coordinates (Angstroms)
 Number     Number       Type             X           Y           Z
 ---------------------------------------------------------------------
      1          6           0        5.727028   -5.237935    1.114491
      2          6           0        6.666473   -5.108785    0.109967
      3          6           0        6.543741   -4.071159   -0.838106
      4          6           0        4.641272   -4.349526    1.213550
      5          6           0        4.518733   -3.307605    0.258838
      6          6           0        5.482621   -3.190114   -0.756504
      7          6           0        3.662182   -4.517014    2.297487
      8          6           0        2.571784   -3.568098    2.338057
      9          6           0        2.470734   -2.561636    1.397545
     10          6           0        3.398871   -2.357586    0.324742
     11          8           0        3.776763   -5.447675    3.146711
     12          8           0        3.272750   -1.421507   -0.518534
     13          1           0        5.811765   -6.030121    1.846706
     14          1           0        5.375695   -2.389918   -1.477145
     15         35           0        8.112745   -6.369626    0.057203
     16         35           0        7.812704   -3.831260   -2.257596
     17          6           0        1.553878   -3.711893    3.437012
     18          1           0        1.640984   -1.861994    1.450946
     19          1           0        2.019633   -3.608719    4.422587
     20          1           0        1.091079   -4.703497    3.417952
     21          1           0        0.768538   -2.959260    3.345732
 ---------------------------------------------------------------------

 SCF Done:  E(UB3LYP) =  -5721.82232097     A.U. after    1 cycles

 Alpha  occ. eigenvalues -- -482.83803-482.83803 -62.49083 -62.49083 -56.31120
 Alpha  occ. eigenvalues --  -56.31120 -56.30736 -56.30736 -56.30715 -56.30715
 Alpha  occ. eigenvalues --  -19.08063 -19.07989 -10.24413 -10.24358 -10.22659
 Alpha  occ. eigenvalues --  -10.22523 -10.19046 -10.19008 -10.18577 -10.18503
 Alpha  occ. eigenvalues --  -10.17794 -10.16315 -10.15955  -8.70053  -8.70052
 Alpha  occ. eigenvalues --   -6.53193  -6.53193  -6.51915  -6.51915  -6.51862
 Alpha  occ. eigenvalues --   -6.51861  -2.64287  -2.64286  -2.63927  -2.63926
 Alpha  occ. eigenvalues --   -2.63889  -2.63889  -2.62871  -2.62871  -2.62870
 Alpha  occ. eigenvalues --   -2.62870  -1.00333  -1.00003  -0.89361  -0.83414
 Alpha  occ. eigenvalues --   -0.81470  -0.80037  -0.75204  -0.74194  -0.70159
 Alpha  occ. eigenvalues --   -0.66385  -0.62693  -0.60069  -0.56512  -0.51288
 Alpha  occ. eigenvalues --   -0.49380  -0.48436  -0.44851  -0.44448  -0.43458
 Alpha  occ. eigenvalues --   -0.43334  -0.41634  -0.41004  -0.39677  -0.38986
 Alpha  occ. eigenvalues --   -0.38532  -0.37809  -0.37388  -0.35987  -0.35392
 Alpha  occ. eigenvalues --   -0.32531  -0.31545  -0.31474  -0.28716  -0.27274
 Alpha  occ. eigenvalues --   -0.26168  -0.24917  -0.24781  -0.24210  -0.15817
 Alpha virt. eigenvalues --   -0.04834  -0.03988  -0.02827  -0.00345   0.00242
 Alpha virt. eigenvalues --    0.00702   0.01521   0.02970   0.03156   0.03483
 Alpha virt. eigenvalues --    0.04032   0.04124   0.04784   0.05055   0.05272

  Beta  occ. eigenvalues -- -482.83802-482.83802 -62.49083 -62.49083 -56.31120
  Beta  occ. eigenvalues --  -56.31120 -56.30734 -56.30733 -56.30714 -56.30714
  Beta  occ. eigenvalues --  -19.07419 -19.07361 -10.24372 -10.24310 -10.22514
  Beta  occ. eigenvalues --  -10.22355 -10.19054 -10.19006 -10.18515 -10.18432
  Beta  occ. eigenvalues --  -10.17641 -10.16207 -10.15965  -8.70052  -8.70051
  Beta  occ. eigenvalues --   -6.53194  -6.53194  -6.51910  -6.51909  -6.51861
  Beta  occ. eigenvalues --   -6.51861  -2.64286  -2.64285  -2.63925  -2.63924
  Beta  occ. eigenvalues --   -2.63889  -2.63889  -2.62869  -2.62868  -2.62868
  Beta  occ. eigenvalues --   -2.62867  -0.99222  -0.98880  -0.89234  -0.83013
  Beta  occ. eigenvalues --   -0.81410  -0.79799  -0.75043  -0.74014  -0.69783
  Beta  occ. eigenvalues --   -0.65719  -0.62584  -0.59762  -0.56191  -0.51145
  Beta  occ. eigenvalues --   -0.49107  -0.48169  -0.44749  -0.44397  -0.43039
  Beta  occ. eigenvalues --   -0.42498  -0.41076  -0.40716  -0.39434  -0.38853
  Beta  occ. eigenvalues --   -0.37741  -0.37172  -0.35810  -0.35203  -0.35158
  Beta  occ. eigenvalues --   -0.32297  -0.31537  -0.30692  -0.28701  -0.25610
  Beta  occ. eigenvalues --   -0.24727  -0.24324  -0.24261  -0.23631
  Beta virt. eigenvalues --   -0.09201  -0.04186  -0.03944  -0.01692  -0.00323
  Beta virt. eigenvalues --    0.00285   0.00707   0.01546   0.02981   0.03176
  Beta virt. eigenvalues --    0.03715   0.04144   0.04519   0.05144   0.05276

 Mulliken charges and spin densities:
               1          2
     1  C   -0.071744   0.020082
     2  C    0.001811   0.021117
     3  C   -0.051480   0.031881
     4  C    0.239965   0.018006
     5  C    0.617722   0.067920
     6  C   -0.093993   0.010990
     7  C   -0.623048   0.110920
     8  C    0.752085   0.086340
     9  C   -0.390355   0.080263
    10  C   -0.900310   0.081000
    11  O   -0.462089   0.238857
    12  O   -0.484877   0.225787
    13  H    0.226726  -0.002248
    14  H    0.220742  -0.002486
    15  Br  -0.153466   0.001593
    16  Br  -0.158431   0.001966
    17  C   -0.317702   0.006030
    18  H    0.154034  -0.008250
    19  H    0.170311   0.005478
    20  H    0.168397   0.004968
    21  H    0.155703  -0.000214
 Sum of Mulliken charges =  -1.00000   1.00000

 Dipole moment (field-independent basis, Debye):
    X=            -21.0632    Y=             17.6585    Z=             -3.6560  Tot=             27.7281
 Quadrupole moment (field-independent basis, Debye-Ang):
   XX=           -219.1240   YY=           -202.9505   ZZ=           -137.4915
   XY=             84.3861   XZ=            -13.7189   YZ=             29.0298

  Exact polarizability: 321.726 -77.487 271.420 -92.228 -65.792 290.490
 Approx polarizability: 328.631 -76.362 311.832 -80.326 -86.818 321.909

                      1                      2                      3
                      A                      A                      A
 Frequencies --     42.3877                62.0426               108.1969
 Red. masses --     13.2537                 4.7363                 1.2012
 Frc consts  --      0.0140                 0.0107                 0.0083
 IR Inten    --      0.3614                 6.9015                 0.4458

                      4                      5                      6
                      A                      A                      A
 Frequencies --    124.3614               124.9328               131.5258
 Red. masses --      6.8685                22.8250                 9.1006
 Frc consts  --      0.0626                 0.2099                 0.0928
 IR Inten    --     11.0420                 2.8331                 0.7878

                      7                      8                      9
                      A                      A                      A
 Frequencies --    187.6674               204.3219               222.1197
 Red. masses --      4.0018                 5.5971                12.7955
 Frc consts  --      0.0830                 0.1377                 0.3719
 IR Inten    --      0.6648                 0.1528                 3.1966

                     10                     11                     12
                      A                      A                      A
 Frequencies --    237.6765               286.6773               303.3339
 Red. masses --     16.3854                 3.4978                 7.4456
 Frc consts  --      0.5454                 0.1694                 0.4036
 IR Inten    --      0.6915                 2.4693                 1.9831

                     13                     14                     15
                      A                      A                      A
 Frequencies --    390.6821               397.4889               407.5372
 Red. masses --      4.9415                 8.8210                 7.6584
 Frc consts  --      0.4444                 0.8211                 0.7494
 IR Inten    --      4.4931                39.2198                 6.4591

                     16                     17                     18
                      A                      A                      A
 Frequencies --    440.4814               465.3411               503.7707
 Red. masses --      3.3255                 9.6552                 7.9046
 Frc consts  --      0.3802                 1.2318                 1.1819
 IR Inten    --      4.8793                17.4173                 4.6545

                     19                     20                     21
                      A                      A                      A
 Frequencies --    541.8971               583.6624               638.2519
 Red. masses --      6.8047                 7.1560                 5.0417
 Frc consts  --      1.1773                 1.4363                 1.2101
 IR Inten    --      0.3023                38.5987                 0.0031

                     22                     23                     24
                      A                      A                      A
 Frequencies --    659.3754               680.8713               693.4831
 Red. masses --      4.6017                 6.3794                 4.1837
 Frc consts  --      1.1788                 1.7425                 1.1855
 IR Inten    --      4.6143                35.9327                 9.5587

                     25                     26                     27
                      A                      A                      A
 Frequencies --    746.0586               773.3738               850.3371
 Red. masses --      6.4173                 5.5385                 6.0554
 Frc consts  --      2.1045                 1.9517                 2.5797
 IR Inten    --     56.7570                 1.6313                67.2982

                     28                     29                     30
                      A                      A                      A
 Frequencies --    875.9423               903.8465               929.0603
 Red. masses --      1.4438                 1.3673                 1.4377
 Frc consts  --      0.6527                 0.6581                 0.7312
 IR Inten    --     50.7462                 0.0170                28.1752

                     31                     32                     33
                      A                      A                      A
 Frequencies --    965.3504              1020.1911              1044.0006
 Red. masses --      4.2305                 1.7979                 1.5125
 Frc consts  --      2.3228                 1.1025                 0.9713
 IR Inten    --     94.0249                18.5660                 3.5530

                     34                     35                     36
                      A                      A                      A
 Frequencies --   1098.6746              1117.8779              1166.7905
 Red. masses --      1.7558                 4.5009                 5.0640
 Frc consts  --      1.2487                 3.3139                 4.0619
 IR Inten    --     27.7079                23.3708                10.8224

                     37                     38                     39
                      A                      A                      A
 Frequencies --   1215.2750              1234.3645              1255.2878
 Red. masses --      5.7850                 1.2863                 2.1335
 Frc consts  --      5.0339                 1.1547                 1.9807
 IR Inten    --     22.1259                52.9939                82.5281

                     40                     41                     42
                      A                      A                      A
 Frequencies --   1336.6015              1353.1568              1396.4582
 Red. masses --      9.9682                 3.7943                 1.3744
 Frc consts  --     10.4923                 4.0933                 1.5791
 IR Inten    --      4.3325                41.3359                79.7953

                     43                     44                     45
                      A                      A                      A
 Frequencies --   1428.2601              1443.7716              1458.8512
 Red. masses --      4.2645                 3.2576                 1.0476
 Frc consts  --      5.1255                 4.0007                 1.3136
 IR Inten    --    182.4098               179.5969                10.1618

                     46                     47                     48
                      A                      A                      A
 Frequencies --   1464.1935              1496.7076              1499.3522
 Red. masses --      1.5012                 8.5446                 3.2669
 Frc consts  --      1.8963                11.2776                 4.3271
 IR Inten    --    214.6125               696.5571               711.1581

                     49                     50                     51
                      A                      A                      A
 Frequencies --   1528.3850              1592.6761              1614.3934
 Red. masses --      6.0651                 7.4645                 7.3302
 Frc consts  --      8.3475                11.1560                11.2560
 IR Inten    --     87.2087                10.5512                37.5341

                     52                     53                     54
                      A                      A                      A
 Frequencies --   3018.3149              3061.8020              3101.8161
 Red. masses --      1.0370                 1.0991                 1.1012
 Frc consts  --      5.5661                 6.0706                 6.2425
 IR Inten    --     74.7265                33.0239                31.9158

                     55                     56                     57
                      A                      A                      A
 Frequencies --   3146.3693              3200.6936              3202.5586
 Red. masses --      1.0893                 1.0903                 1.0906
 Frc consts  --      6.3533                 6.5811                 6.5904
 IR Inten    --     47.8453                 2.0747                11.0568

 - Thermochemistry -
 -------------------
 Temperature   298.150 Kelvin.  Pressure   1.00000 Atm.
 Atom     1 has atomic number  6 and mass  12.00000

 Molecular mass:   327.87345 amu.
 Principal axes and moments of inertia in atomic units:
                           1         2         3
     Eigenvalues --  3148.288928468.39801**********
           X            0.82445  -0.15480   0.54435
           Y           -0.25384   0.75853   0.60017
           Z           -0.50581  -0.63298   0.58608
 This molecule is an asymmetric top.
 Rotational symmetry number  1.
 Warning -- assumption of classical behavior for rotation
           may cause significant error
 Rotational temperatures (Kelvin)      0.02751     0.01023     0.00746
 Rotational constants (GHZ):           0.57325     0.21311     0.15551
 Zero-point vibrational energy     358753.4 (Joules/Mol)
                                   85.74411 (Kcal/Mol)
 Warning -- explicit consideration of  20 degrees of freedom as
           vibrations may cause significant error
 Vibrational temperatures:     60.99    89.27   155.67   178.93   179.75
          (Kelvin)            189.24   270.01   293.97   319.58   341.96
                              412.46   436.43   562.10   571.90   586.36
                              633.75   669.52   724.81   779.67   839.76
                              918.30   948.69   979.62   997.77  1073.41
                             1112.71  1223.45  1260.29  1300.43  1336.71
                             1388.92  1467.83  1502.08  1580.75  1608.38
                             1678.75  1748.51  1775.98  1806.08  1923.07
                             1946.89  2009.19  2054.95  2077.27  2098.96
                             2106.65  2153.43  2157.23  2199.01  2291.51
                             2322.75  4342.68  4405.25  4462.82  4526.92
                             4605.08  4607.77

 Zero-point correction=                           0.136642 (Hartree/Particle)
 Thermal correction to Energy=                    0.150170
 Thermal correction to Enthalpy=                  0.151114
 Thermal correction to Gibbs Free Energy=         0.093676
 Sum of electronic and zero-point Energies=          -5721.685679
 Sum of electronic and thermal Energies=             -5721.672151
 Sum of electronic and thermal Enthalpies=           -5721.671207
 Sum of electronic and thermal Free Energies=        -5721.728645

                     E (Thermal)             CV                S
                      KCal/Mol        Cal/Mol-Kelvin    Cal/Mol-Kelvin
 Total                   94.233             49.417            120.889
 Electronic               0.000              0.000              1.377
 Translational            0.889              2.981             43.258
 Rotational               0.889              2.981             34.092
 Vibrational             92.456             43.456             42.162
 Vibration     1          0.595              1.980              5.144
 Vibration     2          0.597              1.972              4.391
 Vibration     3          0.606              1.943              3.301
 Vibration     4          0.610              1.929              3.031
 Vibration     5          0.610              1.928              3.023
 Vibration     6          0.612              1.922              2.924
 Vibration     7          0.632              1.857              2.251
 Vibration     8          0.640              1.834              2.094
 Vibration     9          0.648              1.807              1.942
 Vibration    10          0.656              1.783              1.820
 Vibration    11          0.684              1.698              1.493
 Vibration    12          0.695              1.667              1.398
 Vibration    13          0.758              1.490              0.998
 Vibration    14          0.764              1.476              0.972
 Vibration    15          0.772              1.454              0.935
 Vibration    16          0.800              1.382              0.825
 Vibration    17          0.823              1.327              0.751
 Vibration    18          0.859              1.242              0.649
 Vibration    19          0.897              1.157              0.561
 Vibration    20          0.941              1.067              0.479

 Optimization completed.
    -- Stationary point found.
 Normal termination of Gaussian 16 at Sun Feb 11 02:26:37 2024.
