 Q-Chem 5.4, Q-Chem, Inc., Pleasanton, CA (2021)
 Q-Chem 5.4.0 for Intel X86 EM64T Linux

User input:
--------------------------------------------------------------
$molecule
-1 2
N                 -4.7144670000      0.3826640000      0.3399510000
C                 -3.7380330000     -0.1657990000      0.6517600000
C                 -2.5440450000     -0.8227960000      1.0218560000
C                 -2.6658100000     -1.9054550000      1.9202850000
N                 -2.7538970000     -2.7983010000      2.6595550000
C                 -1.2736570000     -0.4118420000      0.5116890000
C                 -1.1504710000      0.6799800000     -0.3939260000
C                  0.0696780000      1.0745770000     -0.8840660000
C                  1.2736630000      0.4119470000     -0.5115790000
C                  1.1504980000     -0.6798260000      0.3941220000
C                 -0.0696480000     -1.0743950000      0.8843000000
C                  2.5440060000      0.8227040000     -1.0219560000
C                  3.7379370000      0.1654310000     -0.6522270000
N                  4.7143520000     -0.3832230000     -0.3406840000
C                  2.6658550000      1.9054790000     -1.9202560000
N                  2.7539920000      2.7983460000     -2.6594920000
H                 -2.0448220000      1.2100460000     -0.7014100000
H                  0.1222940000      1.9109900000     -1.5718340000
H                  2.0448500000     -1.2098630000      0.7016750000
H                 -0.1222760000     -1.9106660000      1.5722360000
$end
$rem
MAX_SCF_CYCLES=200
BASIS  =  6-311++G(d,p)
GUI  =  2
JOB_TYPE  =  SP
METHOD  =  B3LYP
SOLVENT_METHOD = COSMO
$end
$solvent
dielectric 37.219
opticaldielectric 1.43
$end

--------------------------------------------------------------

             Standard Nuclear Orientation (Angstroms)
    I     Atom           X                Y                Z
 ----------------------------------------------------------------
    1      N       4.2014908710    -2.1990218661    -0.0005889353
    2      C       3.6026240859    -1.2026191563    -0.0002974913
    3      C       2.8624055912     0.0000029517     0.0000133338
    4      C       3.6025687387     1.2026294107     0.0001068275
    5      N       4.2014195699     2.1990385128     0.0002307020
    6      C       1.4330563666    -0.0000045838     0.0001645688
    7      C       0.6864310305    -1.2124150478     0.0004340758
    8      C      -0.6864154988    -1.2124242069     0.0003989643
    9      C      -1.4330463692    -0.0000104136     0.0000837569
   10      C      -0.6864230799     1.2124193110    -0.0000864382
   11      C       0.6864263008     1.2124295891    -0.0000041290
   12      C      -2.8623739430    -0.0000062286    -0.0000554007
   13      C      -3.6025934632     1.2025966159    -0.0002068978
   14      N      -4.2014834226     2.1989887677    -0.0002424851
   15      C      -3.6025990380    -1.2026111390     0.0000323546
   16      N      -4.2014882064    -2.1989952175    -0.0000467865
   17      H       1.2191762726    -2.1566409368     0.0006858184
   18      H      -1.2191330146    -2.1566656373     0.0007750342
   19      H      -1.2191529134     2.1566610497    -0.0002666661
   20      H       1.2191736415     2.1566515321    -0.0001627991
 ----------------------------------------------------------------

    8    -678.8911036058      5.95e-06  Convergence criterion met
 Total energy in the final basis set =     -678.8911036058
    4    -678.9575140547      6.73e-06  Convergence criterion met
 Total energy in the final basis set =     -678.9575140547

                    Orbital Energies (a.u.)
 --------------------------------------------------------------

 Alpha MOs
 -- Occupied --
-14.3224 -14.3224 -14.3224 -14.3224 -10.2330 -10.2330 -10.2277 -10.2277
-10.2277 -10.2277 -10.2181 -10.2181 -10.1918 -10.1917 -10.1911 -10.1911
 -0.9321  -0.9309  -0.9192  -0.9192  -0.8875  -0.8425  -0.7986  -0.7691
 -0.7302  -0.6453  -0.6311  -0.5965  -0.5629  -0.5518  -0.5191  -0.4608
 -0.4570  -0.4386  -0.4328  -0.4216  -0.4064  -0.3943  -0.3920  -0.3900
 -0.3878  -0.3797  -0.3623  -0.3622  -0.3607  -0.3591  -0.3559  -0.3481
 -0.3448  -0.3141  -0.2796  -0.2462  -0.1904

 Beta MOs
 -- Occupied --
-14.3204 -14.3204 -14.3203 -14.3203 -10.2294 -10.2294 -10.2285 -10.2285
-10.2284 -10.2283 -10.2171 -10.2171 -10.1912 -10.1911 -10.1905 -10.1905
 -0.9287  -0.9275  -0.9162  -0.9161  -0.8836  -0.8363  -0.7915  -0.7675
 -0.7232  -0.6427  -0.6292  -0.5942  -0.5603  -0.5507  -0.5171  -0.4593
 -0.4553  -0.4381  -0.4217  -0.4098  -0.4044  -0.3911  -0.3894  -0.3870
 -0.3847  -0.3705  -0.3595  -0.3581  -0.3550  -0.3548  -0.3548  -0.3468
 -0.3436  -0.2995  -0.2751  -0.2204

          Ground-State Mulliken Net Atomic Charges

     Atom                 Charge (a.u.)    Spin (a.u.)
  --------------------------------------------------------
      1 N                    -0.323885       0.107313
      2 C                    -1.400934      -0.069513
      3 C                     2.375031       0.293484
      4 C                    -1.400831      -0.069516
      5 N                    -0.323937       0.107344
      6 C                     1.599318       0.123929
      7 C                    -0.680870       0.008559
      8 C                    -0.680102       0.008505
      9 C                     1.599757       0.124020
     10 C                    -0.680370       0.008496
     11 C                    -0.681108       0.008537
     12 C                     2.375409       0.293340
     13 C                    -1.400946      -0.069487
     14 N                    -0.323826       0.107296
     15 C                    -1.400905      -0.069486
     16 N                    -0.323853       0.107300
     17 H                     0.168077      -0.005032
     18 H                     0.167954      -0.005029
     19 H                     0.167953      -0.005029
     20 H                     0.168067      -0.005031
  --------------------------------------------------------
  Sum of atomic charges =    -1.000000

                    Cartesian Multipole Moments
 -----------------------------------------------------------------
    Charge (ESU x 10^10)
                -4.8032
    Dipole Moment (Debye)
         X       0.0018      Y      -0.0001      Z       0.0011
       Tot       0.0021
    Quadrupole Moments (Debye-Ang)
        XX    -205.9974     XY      -0.0009     YY    -129.1921
        XZ       0.0007     YZ      -0.0057     ZZ     -95.4297

 Total job time:  41.49s(wall), 282.59s(cpu)
        *  Thank you very much for using Q-Chem.  Have a nice day.  *
