 Gaussian 16, Revision A.03,
 Gaussian 16:  ES64L-G16RevA.03 25-Dec-2016

 ----------------------------------------------------------------------
 #P UB3LYP/6-311++G(d,p) nosym opt freq SCRF=(PCM,Solvent=n,n-DiMethylF
 ormamide)
 ----------------------------------------------------------------------

 -------
 Radical
 -------
 Symbolic Z-matrix:
 Charge = -1 Multiplicity = 2

 SCF Done:  E(UB3LYP) =  -653.381696151     A.U. after   19 cycles
 SCF Done:  E(UB3LYP) =  -653.381949636     A.U. after   14 cycles
 SCF Done:  E(UB3LYP) =  -653.381998032     A.U. after   14 cycles
 SCF Done:  E(UB3LYP) =  -653.382004840     A.U. after   12 cycles
 SCF Done:  E(UB3LYP) =  -653.382005920     A.U. after   11 cycles
 SCF Done:  E(UB3LYP) =  -653.382006565     A.U. after   10 cycles
 SCF Done:  E(UB3LYP) =  -653.382007006     A.U. after   10 cycles
 SCF Done:  E(UB3LYP) =  -653.382007525     A.U. after   11 cycles
 SCF Done:  E(UB3LYP) =  -653.382008102     A.U. after   11 cycles
 SCF Done:  E(UB3LYP) =  -653.382008744     A.U. after   11 cycles
 SCF Done:  E(UB3LYP) =  -653.382009180     A.U. after    9 cycles
 SCF Done:  E(UB3LYP) =  -653.382009625     A.U. after   10 cycles
 SCF Done:  E(UB3LYP) =  -653.382009824     A.U. after    9 cycles
 SCF Done:  E(UB3LYP) =  -653.382010169     A.U. after   10 cycles
 SCF Done:  E(UB3LYP) =  -653.382010353     A.U. after   10 cycles
 SCF Done:  E(UB3LYP) =  -653.382010421     A.U. after    9 cycles
 SCF Done:  E(UB3LYP) =  -653.382010447     A.U. after    8 cycles
 Optimization completed.
    -- Stationary point found.
 Normal termination of Gaussian 16 at Sun Feb 11 01:52:33 2024.

 ----------------------------------------------------------------------
 #P Geom=AllCheck Guess=TCheck SCRF=Check GenChk UB3LYP/6-311++G(d,p) F
 req
 ----------------------------------------------------------------------

 Structure from the checkpoint file:  "255-rad.chk"
 -------
 Radical
 -------
 Charge = -1 Multiplicity = 2

                          Input orientation:
 ---------------------------------------------------------------------
 Center     Atomic      Atomic             Coordinates (Angstroms)
 Number     Number       Type             X           Y           Z
 ---------------------------------------------------------------------
      1          6           0       -1.634074    2.791830    0.038698
      2          6           0       -2.889818    2.221924    0.077065
      3          6           0       -3.013489    0.824786    0.092573
      4          6           0       -0.478908    1.985627    0.016529
      5          6           0       -0.596789    0.563668    0.037216
      6          6           0       -1.904133   -0.016305    0.073757
      7          6           0        0.829743    2.656796   -0.029134
      8          6           0        2.003655    1.822375   -0.051846
      9          6           0        1.905026    0.437892   -0.032309
     10          6           0        0.630850   -0.253585    0.021357
     11          8           0        0.899983    3.926329   -0.048987
     12          8           0        0.585375   -1.520957    0.055680
     13          6           0        3.352286    2.497725   -0.097654
     14          6           0        3.153712   -0.409536   -0.059628
     15          6           0       -2.169514   -1.506013    0.090289
     16          1           0       -1.503537    3.866487    0.024161
     17          1           0       -3.778354    2.844468    0.093909
     18          1           0       -4.003572    0.380763    0.119613
     19          1           0        3.230616    3.579416   -0.066133
     20          1           0        3.902124    2.239730   -1.010234
     21          1           0        3.984540    2.193431    0.743750
     22          1           0        3.772486   -0.243335    0.830307
     23          1           0        3.782437   -0.171268   -0.924478
     24          1           0        2.890418   -1.464972   -0.099840
     25          1           0       -1.718944   -1.988944    0.958888
     26          1           0       -1.744566   -2.003308   -0.783270
     27          1           0       -3.247832   -1.685425    0.107400
 ---------------------------------------------------------------------

 SCF Done:  E(UB3LYP) =  -653.382010447     A.U. after    1 cycles

 Alpha  occ. eigenvalues --  -19.06634 -19.06550 -10.21480 -10.21207 -10.18039
 Alpha  occ. eigenvalues --  -10.17069 -10.16715 -10.16675 -10.16330 -10.16256
 Alpha  occ. eigenvalues --  -10.16145 -10.16144 -10.15212 -10.15036 -10.14949
 Alpha  occ. eigenvalues --   -0.99008  -0.98665  -0.85334  -0.81262  -0.76607
 Alpha  occ. eigenvalues --   -0.75254  -0.71930  -0.68356  -0.66679  -0.64371
 Alpha  occ. eigenvalues --   -0.58549  -0.58255  -0.53398  -0.50505  -0.48374
 Alpha  occ. eigenvalues --   -0.46318  -0.44318  -0.43325  -0.42326  -0.41138
 Alpha  occ. eigenvalues --   -0.40755  -0.39840  -0.39191  -0.38234  -0.38109
 Alpha  occ. eigenvalues --   -0.38037  -0.37349  -0.36723  -0.35875  -0.34997
 Alpha  occ. eigenvalues --   -0.33766  -0.33375  -0.32948  -0.26179  -0.24356
 Alpha  occ. eigenvalues --   -0.23688  -0.23591  -0.22576  -0.14424
 Alpha virt. eigenvalues --   -0.02525  -0.01034  -0.00500   0.00445   0.01068
 Alpha virt. eigenvalues --    0.02428   0.02563   0.03085   0.03973   0.04016
 Alpha virt. eigenvalues --    0.04746   0.04910   0.05517   0.06139   0.06265

  Beta  occ. eigenvalues --  -19.06026 -19.05909 -10.21324 -10.21021 -10.18036
  Beta  occ. eigenvalues --  -10.17024 -10.16659 -10.16642 -10.16282 -10.16132
  Beta  occ. eigenvalues --  -10.16108 -10.16034 -10.15212 -10.15045 -10.14961
  Beta  occ. eigenvalues --   -0.97905  -0.97560  -0.85139  -0.80833  -0.76491
  Beta  occ. eigenvalues --   -0.75054  -0.71592  -0.68217  -0.66460  -0.63799
  Beta  occ. eigenvalues --   -0.58351  -0.57954  -0.53112  -0.50341  -0.48138
  Beta  occ. eigenvalues --   -0.46108  -0.44219  -0.42664  -0.42058  -0.40984
  Beta  occ. eigenvalues --   -0.40366  -0.39621  -0.38731  -0.38104  -0.37914
  Beta  occ. eigenvalues --   -0.37243  -0.37203  -0.36643  -0.34874  -0.33609
  Beta  occ. eigenvalues --   -0.33211  -0.32779  -0.32669  -0.24052  -0.23649
  Beta  occ. eigenvalues --   -0.23120  -0.22496  -0.22010
  Beta virt. eigenvalues --   -0.07850  -0.01779  -0.00481   0.00069   0.00449
  Beta virt. eigenvalues --    0.01080   0.02434   0.02575   0.03116   0.04006
  Beta virt. eigenvalues --    0.04186   0.04754   0.04915   0.05741   0.06243

 Mulliken charges and spin densities:
               1          2
     1  C   -0.227412   0.029347
     2  C   -0.356568   0.023717
     3  C   -0.589986   0.033078
     4  C    0.477554   0.013708
     5  C    0.544104   0.029075
     6  C    0.607418   0.014083
     7  C   -1.076654   0.091307
     8  C    0.785326   0.090803
     9  C    0.829565   0.138833
    10  C   -1.550872   0.067240
    11  O   -0.494986   0.222655
    12  O   -0.443795   0.232470
    13  C   -0.549963   0.001725
    14  C   -0.377532   0.000492
    15  C   -0.469101   0.004856
    16  H    0.161011  -0.002506
    17  H    0.188943  -0.002019
    18  H    0.120136  -0.003235
    19  H    0.180811  -0.001283
    20  H    0.151007   0.003965
    21  H    0.146216   0.003451
    22  H    0.151960   0.005457
    23  H    0.144174   0.004432
    24  H    0.188282  -0.001027
    25  H    0.158204  -0.000157
    26  H    0.157626  -0.000093
    27  H    0.144530  -0.000374
 Sum of Mulliken charges =  -1.00000   1.00000

 Dipole moment (field-independent basis, Debye):
    X=             -2.5551    Y=             -6.6950    Z=             -0.0369  Tot=              7.1661
 Quadrupole moment (field-independent basis, Debye-Ang):
   XX=            -91.4054   YY=           -138.3895   ZZ=            -94.5850
   XY=             -5.1737   XZ=             -0.1069   YZ=              0.6747

  Exact polarizability: 329.809   1.460 327.222  -5.192  -3.026 134.278
 Approx polarizability: 339.481  -0.429 380.749  -4.936  -3.586 153.928

                      1                      2                      3
                      A                      A                      A
 Frequencies --     56.3459                67.1970                71.8682
 Red. masses --      2.6355                 1.3051                 3.9601
 Frc consts  --      0.0049                 0.0035                 0.0121
 IR Inten    --     13.4241                 4.4890                 2.4383

                      4                      5                      6
                      A                      A                      A
 Frequencies --    125.4657               127.9364               178.9718
 Red. masses --      1.2981                 2.2145                 4.0231
 Frc consts  --      0.0120                 0.0214                 0.0759
 IR Inten    --      0.0187                 0.0126                 2.3538

                      7                      8                      9
                      A                      A                      A
 Frequencies --    207.4272               229.0504               245.2029
 Red. masses --      1.3417                 1.9960                 3.6952
 Frc consts  --      0.0340                 0.0617                 0.1309
 IR Inten    --      2.3669                 0.9043                 9.9148

                     10                     11                     12
                      A                      A                      A
 Frequencies --    296.3447               322.5813               349.1056
 Red. masses --      3.6828                 2.6327                 3.5857
 Frc consts  --      0.1906                 0.1614                 0.2575
 IR Inten    --      0.0386                 0.2916                 2.3138

                     13                     14                     15
                      A                      A                      A
 Frequencies --    359.5981               396.6685               419.1722
 Red. masses --      5.1003                 8.3569                 5.7019
 Frc consts  --      0.3886                 0.7747                 0.5903
 IR Inten    --      1.8937                18.6575                 0.9654

                     16                     17                     18
                      A                      A                      A
 Frequencies --    421.0628               449.3838               510.2985
 Red. masses --      6.2840                 4.1887                 7.8606
 Frc consts  --      0.6564                 0.4984                 1.2060
 IR Inten    --     14.8076                 6.0832                 1.0140

                     19                     20                     21
                      A                      A                      A
 Frequencies --    516.7095               531.3985               565.0354
 Red. masses --      3.7132                 3.7158                 4.9647
 Frc consts  --      0.5841                 0.6182                 0.9339
 IR Inten    --      4.5731                 0.7943                 8.8694

                     22                     23                     24
                      A                      A                      A
 Frequencies --    616.1299               685.6732               690.0185
 Red. masses --      5.5401                 4.1407                 4.3885
 Frc consts  --      1.2391                 1.1470                 1.2311
 IR Inten    --     33.3790                 8.3536                 3.7241

                     25                     26                     27
                      A                      A                      A
 Frequencies --    717.3224               781.6463               800.8565
 Red. masses --      3.7535                 2.2993                 4.0202
 Frc consts  --      1.1379                 0.8277                 1.5192
 IR Inten    --     42.5586                28.2581                 6.6260

                     28                     29                     30
                      A                      A                      A
 Frequencies --    807.8536               850.5592               916.4215
 Red. masses --      2.4474                 4.3623                 1.3594
 Frc consts  --      0.9411                 1.8594                 0.6726
 IR Inten    --     24.4545                25.7771                 0.1696

                     31                     32                     33
                      A                      A                      A
 Frequencies --    942.3517               983.2812               992.7699
 Red. masses --      2.3389                 3.1222                 1.3075
 Frc consts  --      1.2237                 1.7786                 0.7593
 IR Inten    --     13.9632                 6.3252                 1.3379

                     34                     35                     36
                      A                      A                      A
 Frequencies --   1008.8575              1024.3527              1037.0736
 Red. masses --      1.5500                 1.4192                 2.2861
 Frc consts  --      0.9295                 0.8774                 1.4487
 IR Inten    --     21.4541                 0.5890                21.1875

                     37                     38                     39
                      A                      A                      A
 Frequencies --   1053.2026              1054.5888              1100.7945
 Red. masses --      1.5274                 1.5428                 2.1190
 Frc consts  --      0.9982                 1.0110                 1.5129
 IR Inten    --      0.4024                 4.2376                14.0796

                     40                     41                     42
                      A                      A                      A
 Frequencies --   1108.2899              1163.6046              1179.6879
 Red. masses --      2.4312                 1.5671                 2.1105
 Frc consts  --      1.7595                 1.2502                 1.7305
 IR Inten    --     83.7221                 9.6736                15.5169

                     43                     44                     45
                      A                      A                      A
 Frequencies --   1235.3839              1243.8062              1262.4907
 Red. masses --      5.4618                 4.7219                 2.0306
 Frc consts  --      4.9112                 4.3040                 1.9070
 IR Inten    --     25.0256                11.9340                57.3568

                     46                     47                     48
                      A                      A                      A
 Frequencies --   1331.9029              1370.9538              1387.0246
 Red. masses --      8.1926                 1.3839                 1.2797
 Frc consts  --      8.5628                 1.5325                 1.4505
 IR Inten    --     11.1027                73.6328                 4.5476

                     49                     50                     51
                      A                      A                      A
 Frequencies --   1399.2713              1410.5284              1418.3417
 Red. masses --      3.1650                 1.2574                 2.4545
 Frc consts  --      3.6512                 1.4739                 2.9092
 IR Inten    --    286.4968                 2.3033                12.5195

                     52                     53                     54
                      A                      A                      A
 Frequencies --   1448.3995              1459.5023              1466.6152
 Red. masses --      2.6748                 1.0471                 1.2294
 Frc consts  --      3.3061                 1.3142                 1.5580
 IR Inten    --    733.8390                 7.9749                 1.4722

                     55                     56                     57
                      A                      A                      A
 Frequencies --   1478.4793              1480.7361              1482.1354
 Red. masses --      1.2768                 1.1296                 1.2399
 Frc consts  --      1.6443                 1.4592                 1.6048
 IR Inten    --     42.5320                16.3519                31.6633

                     58                     59                     60
                      A                      A                      A
 Frequencies --   1495.1019              1496.0101              1506.5358
 Red. masses --      1.0658                 3.8483                 3.6884
 Frc consts  --      1.4036                 5.0745                 4.9323
 IR Inten    --     27.6814                 9.8168               786.0390

                     61                     62                     63
                      A                      A                      A
 Frequencies --   1546.6261              1609.1060              1616.1042
 Red. masses --      5.8835                 7.2930                 5.5633
 Frc consts  --      8.2920                11.1257                 8.5609
 IR Inten    --     66.7032                 7.1002                 1.9415

                     64                     65                     66
                      A                      A                      A
 Frequencies --   3005.9186              3007.7189              3031.9545
 Red. masses --      1.0429                 1.0419                 1.0382
 Frc consts  --      5.5521                 5.5532                 5.6229
 IR Inten    --    108.2681                84.0979                69.2989

                     67                     68                     69
                      A                      A                      A
 Frequencies --   3042.4046              3045.8540              3097.1568
 Red. masses --      1.0979                 1.0985                 1.0995
 Frc consts  --      5.9875                 6.0045                 6.2143
 IR Inten    --     82.9988                 5.9488                38.5310

                     70                     71                     72
                      A                      A                      A
 Frequencies --   3098.8409              3124.4885              3127.5769
 Red. masses --      1.0992                 1.0949                 1.0946
 Frc consts  --      6.2193                 6.2975                 6.3087
 IR Inten    --     26.4151                15.2927                16.7256

                     73                     74                     75
                      A                      A                      A
 Frequencies --   3149.8163              3166.9927              3191.9333
 Red. masses --      1.0865                 1.0921                 1.0929
 Frc consts  --      6.3513                 6.4539                 6.5607
 IR Inten    --     26.4867                45.7559                24.1100

 - Thermochemistry -
 -------------------
 Temperature   298.150 Kelvin.  Pressure   1.00000 Atm.
 Atom     1 has atomic number  6 and mass  12.00000

 Molecular mass:   200.08373 amu.
 Principal axes and moments of inertia in atomic units:
                           1         2         3
     Eigenvalues --  1991.997353113.483165072.24139
           X            0.97654  -0.21372   0.02638
           Y            0.21343   0.97687   0.01348
           Z           -0.02865  -0.00753   0.99956
 This molecule is an asymmetric top.
 Rotational symmetry number  1.
 Warning -- assumption of classical behavior for rotation
           may cause significant error
 Rotational temperatures (Kelvin)      0.04348     0.02782     0.01708
 Rotational constants (GHZ):           0.90600     0.57965     0.35581
 Zero-point vibrational energy     557447.1 (Joules/Mol)
                                  133.23305 (Kcal/Mol)
 Warning -- explicit consideration of  22 degrees of freedom as
           vibrations may cause significant error
 Vibrational temperatures:     81.07    96.68   103.40   180.52   184.07
          (Kelvin)            257.50   298.44   329.55   352.79   426.37
                              464.12   502.29   517.38   570.72   603.10
                              605.82   646.56   734.21   743.43   764.56
                              812.96   886.47   986.53   992.78  1032.07
                             1124.61  1152.25  1162.32  1223.76  1318.53
                             1355.83  1414.72  1428.37  1451.52  1473.82
                             1492.12  1515.32  1517.32  1583.80  1594.58
                             1674.17  1697.31  1777.44  1789.56  1816.44
                             1916.31  1972.50  1995.62  2013.24  2029.44
                             2040.68  2083.92  2099.90  2110.13  2127.20
                             2130.45  2132.46  2151.12  2152.42  2167.57
                             2225.25  2315.14  2325.21  4324.85  4327.44
                             4362.31  4377.34  4382.30  4456.12  4458.54
                             4495.44  4499.89  4531.88  4556.60  4592.48

 Zero-point correction=                           0.212320 (Hartree/Particle)
 Thermal correction to Energy=                    0.225950
 Thermal correction to Enthalpy=                  0.226894
 Thermal correction to Gibbs Free Energy=         0.171563
 Sum of electronic and zero-point Energies=           -653.169690
 Sum of electronic and thermal Energies=              -653.156060
 Sum of electronic and thermal Enthalpies=            -653.155116
 Sum of electronic and thermal Free Energies=         -653.210447

                     E (Thermal)             CV                S
                      KCal/Mol        Cal/Mol-Kelvin    Cal/Mol-Kelvin
 Total                  141.786             52.388            116.455
 Electronic               0.000              0.000              1.377
 Translational            0.889              2.981             41.785
 Rotational               0.889              2.981             31.820
 Vibrational            140.008             46.426             41.472
 Vibration     1          0.596              1.975              4.581
 Vibration     2          0.598              1.970              4.234
 Vibration     3          0.598              1.967              4.102
 Vibration     4          0.610              1.928              3.014
 Vibration     5          0.611              1.925              2.977
 Vibration     6          0.629              1.868              2.339
 Vibration     7          0.641              1.829              2.066
 Vibration     8          0.652              1.797              1.886
 Vibration     9          0.660              1.771              1.765
 Vibration    10          0.690              1.681              1.437
 Vibration    11          0.708              1.630              1.297
 Vibration    12          0.726              1.577              1.170
 Vibration    13          0.734              1.556              1.124
 Vibration    14          0.763              1.477              0.975
 Vibration    15          0.782              1.429              0.895
 Vibration    16          0.784              1.424              0.888
 Vibration    17          0.808              1.362              0.798
 Vibration    18          0.865              1.227              0.633
 Vibration    19          0.872              1.213              0.618
 Vibration    20          0.886              1.181              0.584
 Vibration    21          0.921              1.107              0.514
 Vibration    22          0.976              0.998              0.423

                           ! Non-Optimized Parameters !
 Normal termination of Gaussian 16 at Sun Feb 11 02:20:21 2024.
