 Q-Chem 5.4, Q-Chem, Inc., Pleasanton, CA (2021)
 Q-Chem 5.4.0 for Intel X86 EM64T Linux

User input:
--------------------------------------------------------------
$molecule
-1 2
C                 -4.0695480000      3.5961490000      1.5374880000
C                 -4.5554290000      3.8204700000      0.2667510000
C                 -3.9605740000      3.1717900000     -0.8267210000
C                 -2.8876740000      2.3059830000     -0.6447760000
C                 -2.3588830000      2.0496770000      0.6510290000
C                 -2.9837840000      2.7237740000      1.7482520000
C                 -2.5166540000      2.5312250000      3.1338230000
C                 -1.4105600000      1.6357420000      3.3018050000
C                 -0.7935120000      0.9767720000      2.2640120000
C                 -1.2207940000      1.1369880000      0.8826410000
O                 -3.0647040000      3.1232540000      4.1052470000
O                 -0.6293420000      0.5159860000     -0.0364020000
H                 -4.4972840000      4.0747060000      2.4099360000
H                 -4.3359650000      3.3413030000     -1.8346070000
O                 -2.3355310000      1.6919930000     -1.7426570000
C                  0.3663670000      0.0474660000      2.5052400000
H                 -5.3923940000      4.4926940000      0.1025550000
H                 -1.0654030000      1.4930130000      4.3234050000
H                 -2.8300000000      1.9937310000     -2.5123160000
H                  0.6098640000     -0.0053610000      3.5702850000
H                  1.2536300000      0.3751880000      1.9526550000
H                  0.1441150000     -0.9610710000      2.1399780000
$end

$rem
BASIS  =  6-311++G(d,p)
GUI  =  2
JOB_TYPE  =  SP
METHOD  =  B3LYP
SCF_CONVERGENCE  = 8
SOLVENT_METHOD = sm12
$end

$smx
solvent dimethylformamide
charges CM5
$end

--------------------------------------------------------------

             Standard Nuclear Orientation (Angstroms)
    I     Atom           X                Y                Z
 ----------------------------------------------------------------
    1      C      -4.0695480000     3.5961490000     1.5374880000
    2      C      -4.5554290000     3.8204700000     0.2667510000
    3      C      -3.9605740000     3.1717900000    -0.8267210000
    4      C      -2.8876740000     2.3059830000    -0.6447760000
    5      C      -2.3588830000     2.0496770000     0.6510290000
    6      C      -2.9837840000     2.7237740000     1.7482520000
    7      C      -2.5166540000     2.5312250000     3.1338230000
    8      C      -1.4105600000     1.6357420000     3.3018050000
    9      C      -0.7935120000     0.9767720000     2.2640120000
   10      C      -1.2207940000     1.1369880000     0.8826410000
   11      O      -3.0647040000     3.1232540000     4.1052470000
   12      O      -0.6293420000     0.5159860000    -0.0364020000
   13      H      -4.4972840000     4.0747060000     2.4099360000
   14      H      -4.3359650000     3.3413030000    -1.8346070000
   15      O      -2.3355310000     1.6919930000    -1.7426570000
   16      C       0.3663670000     0.0474660000     2.5052400000
   17      H      -5.3923940000     4.4926940000     0.1025550000
   18      H      -1.0654030000     1.4930130000     4.3234050000
   19      H      -2.8300000000     1.9937310000    -2.5123160000
   20      H       0.6098640000    -0.0053610000     3.5702850000
   21      H       1.2536300000     0.3751880000     1.9526550000
   22      H       0.1441150000    -0.9610710000     2.1399780000
 ----------------------------------------------------------------

   17    -649.8909461445      8.58e-09  Convergence criterion met
 Total energy in the final basis set =     -649.9847803580

                    Orbital Energies (a.u.)
 --------------------------------------------------------------

 Alpha MOs
 -- Occupied --
-19.1548 -19.0721 -19.0708 -10.2457 -10.2225 -10.2198 -10.1837 -10.1829
-10.1804 -10.1797 -10.1753 -10.1702 -10.1664 -10.1626  -1.0664  -0.9973
 -0.9941  -0.8602  -0.8150  -0.7631  -0.7490  -0.7069  -0.6635  -0.6343
 -0.6024  -0.5758  -0.5279  -0.5157  -0.4818  -0.4730  -0.4566  -0.4378
 -0.4359  -0.4139  -0.4123  -0.3973  -0.3944  -0.3886  -0.3835  -0.3697
 -0.3639  -0.3558  -0.3531  -0.3361  -0.2737  -0.2562  -0.2388  -0.2378
 -0.2298  -0.1500

 Beta MOs
 -- Occupied --
-19.1547 -19.0656 -19.0641 -10.2458 -10.2214 -10.2184 -10.1833 -10.1825
-10.1796 -10.1790 -10.1733 -10.1701 -10.1666 -10.1618  -1.0662  -0.9859
 -0.9827  -0.8582  -0.8100  -0.7611  -0.7470  -0.7036  -0.6573  -0.6323
 -0.5998  -0.5738  -0.5254  -0.5138  -0.4799  -0.4714  -0.4554  -0.4353
 -0.4284  -0.4121  -0.4084  -0.3951  -0.3915  -0.3821  -0.3752  -0.3681
 -0.3537  -0.3510  -0.3419  -0.3282  -0.2512  -0.2438  -0.2327  -0.2308
 -0.2237

          Ground-State Mulliken Net Atomic Charges

     Atom                 Charge (a.u.)    Spin (a.u.)
  --------------------------------------------------------
      1 C                    -0.320650       0.035240
      2 C                     1.256539       0.032779
      3 C                     2.078852       0.049422
      4 C                     0.371379       0.024782
      5 C                    -0.673873       0.002880
      6 C                    -1.267393       0.064880
      7 C                    -2.009398       0.054715
      8 C                    -0.756324       0.069391
      9 C                     0.190100       0.124511
     10 C                    -1.753838       0.048235
     11 O                    -0.360530       0.237325
     12 O                    -0.276018       0.255031
     13 H                     0.107911      -0.003424
     14 H                     0.366918      -0.004230
     15 O                    -0.115662       0.000276
     16 C                     0.692866       0.004353
     17 H                     0.375018      -0.002054
     18 H                     0.108383      -0.007766
     19 H                     0.348913      -0.000366
     20 H                     0.261240       0.000129
     21 H                     0.187956       0.006970
     22 H                     0.187607       0.006919
  --------------------------------------------------------
  Sum of atomic charges =    -1.000000

                    Cartesian Multipole Moments
 -----------------------------------------------------------------
    Charge (ESU x 10^10)
                -4.8032
    Dipole Moment (Debye)
         X       8.7215      Y      -8.7747      Z     -10.8878
       Tot      16.4804
    Quadrupole Moments (Debye-Ang)
        XX    -107.6584     XY      21.8151     YY    -110.7105
        XZ      36.6780     YZ     -35.2989     ZZ    -121.9960

 Total job time:  397.61s(wall), 2777.02s(cpu)
        *  Thank you very much for using Q-Chem.  Have a nice day.  *
