 Q-Chem 5.4, Q-Chem, Inc., Pleasanton, CA (2021)
 Q-Chem 5.4.0 for Intel X86 EM64T Linux

User input:
--------------------------------------------------------------
$molecule
-2 1
N                 -2.9260460000     -2.5947260000     -0.1104500000
C                 -2.6120180000     -1.2330640000      0.1222620000
C                 -3.6165580000     -0.3658210000      0.5143000000
C                 -3.3636340000      1.0098500000      0.6691830000
C                 -2.1065310000      1.5485230000      0.4466550000
N                 -1.9301210000      2.9499840000      0.5639450000
C                 -1.0101290000      0.6855510000      0.0864450000
C                  0.3382840000      1.2481280000     -0.0488150000
O                  0.5611770000      2.5182480000     -0.0341260000
C                  1.4013340000      0.3142340000     -0.2024060000
C                  1.1367710000     -1.0849090000     -0.4830920000
C                  2.1773280000     -1.9176070000     -0.9136320000
C                  3.4814690000     -1.4580600000     -1.0564970000
C                  3.7860090000     -0.1374130000     -0.6817730000
C                  2.7928290000      0.7047970000     -0.2167230000
N                  3.2898580000      1.9028520000      0.4267350000
O                  2.7970880000      2.2517140000      1.5074920000
O                  4.2638760000      2.5102820000     -0.1012420000
C                 -0.1966320000     -1.6536030000     -0.3990710000
O                 -0.3776090000     -2.9128160000     -0.6151870000
C                 -1.2740940000     -0.7353920000     -0.0779530000
H                 -3.5142310000     -2.9805660000      0.6172900000
H                 -2.0516540000     -3.1184640000     -0.2618140000
H                 -4.6253700000     -0.7526780000      0.6477020000
H                 -4.1783480000      1.6839310000      0.9279930000
H                 -2.3164650000      3.3055980000      1.4297530000
H                 -0.9201400000      3.1563710000      0.4513360000
H                  1.9140600000     -2.9459790000     -1.1373220000
H                  4.2723900000     -2.1231440000     -1.3927600000
H                  4.8071050000      0.2241820000     -0.6782290000
$end

$rem
BASIS  =  6-311++G(d,p)
GUI  =  2
JOB_TYPE  =  SP
METHOD  =  B3LYP
SCF_CONVERGENCE  = 8
SOLVENT_METHOD = sm12
$end

$smx
solvent dimethylformamide
charges CM5
$end

--------------------------------------------------------------

             Standard Nuclear Orientation (Angstroms)
    I     Atom           X                Y                Z
 ----------------------------------------------------------------
    1      N      -2.9260460000    -2.5947260000    -0.1104500000
    2      C      -2.6120180000    -1.2330640000     0.1222620000
    3      C      -3.6165580000    -0.3658210000     0.5143000000
    4      C      -3.3636340000     1.0098500000     0.6691830000
    5      C      -2.1065310000     1.5485230000     0.4466550000
    6      N      -1.9301210000     2.9499840000     0.5639450000
    7      C      -1.0101290000     0.6855510000     0.0864450000
    8      C       0.3382840000     1.2481280000    -0.0488150000
    9      O       0.5611770000     2.5182480000    -0.0341260000
   10      C       1.4013340000     0.3142340000    -0.2024060000
   11      C       1.1367710000    -1.0849090000    -0.4830920000
   12      C       2.1773280000    -1.9176070000    -0.9136320000
   13      C       3.4814690000    -1.4580600000    -1.0564970000
   14      C       3.7860090000    -0.1374130000    -0.6817730000
   15      C       2.7928290000     0.7047970000    -0.2167230000
   16      N       3.2898580000     1.9028520000     0.4267350000
   17      O       2.7970880000     2.2517140000     1.5074920000
   18      O       4.2638760000     2.5102820000    -0.1012420000
   19      C      -0.1966320000    -1.6536030000    -0.3990710000
   20      O      -0.3776090000    -2.9128160000    -0.6151870000
   21      C      -1.2740940000    -0.7353920000    -0.0779530000
   22      H      -3.5142310000    -2.9805660000     0.6172900000
   23      H      -2.0516540000    -3.1184640000    -0.2618140000
   24      H      -4.6253700000    -0.7526780000     0.6477020000
   25      H      -4.1783480000     1.6839310000     0.9279930000
   26      H      -2.3164650000     3.3055980000     1.4297530000
   27      H      -0.9201400000     3.1563710000     0.4513360000
   28      H       1.9140600000    -2.9459790000    -1.1373220000
   29      H       4.2723900000    -2.1231440000    -1.3927600000
   30      H       4.8071050000     0.2241820000    -0.6782290000
 ----------------------------------------------------------------

   19   -1004.2594306593      4.99e-09  Convergence criterion met
 Total energy in the final basis set =    -1004.5209998906

                    Orbital Energies (a.u.)
 --------------------------------------------------------------

 Alpha MOs
 -- Occupied --
-19.1243 -19.1176 -19.0547 -19.0340 -14.5053 -14.2972 -14.2897 -10.2137
-10.2129 -10.2051 -10.2002 -10.1970 -10.1865 -10.1771 -10.1746 -10.1708
-10.1693 -10.1655 -10.1649 -10.1635 -10.1602  -1.1805  -1.0071  -0.9759
 -0.9593  -0.9014  -0.8893  -0.8626  -0.8158  -0.7883  -0.7740  -0.7349
 -0.7084  -0.6843  -0.6567  -0.6249  -0.6206  -0.5666  -0.5502  -0.5407
 -0.5235  -0.5104  -0.4948  -0.4881  -0.4859  -0.4719  -0.4660  -0.4617
 -0.4508  -0.4378  -0.4315  -0.4094  -0.4065  -0.3876  -0.3814  -0.3775
 -0.3756  -0.3704  -0.3554  -0.3460  -0.3406  -0.3309  -0.3185  -0.2876
 -0.2821  -0.2725  -0.2653  -0.2483  -0.2431  -0.2395  -0.2268  -0.2120
 -0.1904  -0.1244

          Ground-State Mulliken Net Atomic Charges

     Atom                 Charge (a.u.)
  ----------------------------------------
      1 N                    -0.220419
      2 C                    -0.602372
      3 C                     1.698362
      4 C                     1.846079
      5 C                    -1.260760
      6 N                    -0.300345
      7 C                    -1.390663
      8 C                    -2.270443
      9 O                    -0.328010
     10 C                    -0.806768
     11 C                    -1.285432
     12 C                     0.617852
     13 C                     1.715112
     14 C                     2.052976
     15 C                    -0.894289
     16 N                    -0.198962
     17 O                    -0.055442
     18 O                     0.017382
     19 C                    -1.979738
     20 O                    -0.231694
     21 C                    -1.002526
     22 H                     0.368883
     23 H                     0.303640
     24 H                     0.343760
     25 H                     0.311784
     26 H                     0.338286
     27 H                     0.239839
     28 H                     0.216033
     29 H                     0.445552
     30 H                     0.312323
  ----------------------------------------
  Sum of atomic charges =    -2.000000

                    Cartesian Multipole Moments
 -----------------------------------------------------------------
    Charge (ESU x 10^10)
                -9.6064
    Dipole Moment (Debye)
         X      -4.8681      Y      -6.1115      Z       1.5095
       Tot       7.9579
    Quadrupole Moments (Debye-Ang)
        XX    -187.3086     XY     -25.6609     YY    -186.6061
        XZ      -8.8417     YZ      -8.1341     ZZ    -137.3100

 Total job time:  1019.43s(wall), 7964.04s(cpu)
        *  Thank you very much for using Q-Chem.  Have a nice day.  *
