 Q-Chem 5.4, Q-Chem, Inc., Pleasanton, CA (2021)
 Q-Chem 5.4.0 for Intel X86 EM64T Linux

User input:
--------------------------------------------------------------
$molecule
0 1
C                  5.7669820000     -5.3002400000      1.2623960000
C                  6.7059600000     -5.1493690000      0.2334160000
C                  6.5885180000     -4.1631320000     -0.7403670000
C                  4.6693600000     -4.4060290000      1.2906920000
C                  4.5572550000     -3.4069450000      0.2979590000
C                  5.5109000000     -3.2873830000     -0.7100130000
C                  3.6199490000     -4.4911220000      2.3485350000
C                  2.4795820000     -3.5134170000      2.3239000000
C                  2.4068940000     -2.5764870000      1.3634200000
C                  3.4118450000     -2.4458840000      0.2966520000
O                  3.6494230000     -5.3277270000      3.2393210000
O                  3.3030670000     -1.5770520000     -0.5563120000
C                  5.9885260000     -6.4026400000      2.2681280000
H                  7.5508440000     -5.8288610000      0.2018440000
C                  1.4609280000     -3.6539220000      3.4137940000
H                  1.5929850000     -1.8594380000      1.3250020000
H                  5.3874360000     -2.5080460000     -1.4513310000
H                  7.3376660000     -4.0806310000     -1.5197670000
H                  6.9030590000     -6.9469730000      2.0243530000
H                  5.1533830000     -7.1054810000      2.2865750000
H                  6.0705760000     -6.0112170000      3.2839270000
H                  1.0113790000     -4.6503690000      3.3939290000
H                  0.6756700000     -2.9039530000      3.3128870000
H                  1.9314510000     -3.5522680000      4.3954580000
$end
$rem
MAX_SCF_CYCLES=200
BASIS  =  6-311++G(d,p)
GUI  =  2
JOB_TYPE  =  SP
METHOD  =  B3LYP
SOLVENT_METHOD = COSMO
$end
$solvent
dielectric 37.219
opticaldielectric 1.43
$end

--------------------------------------------------------------

             Standard Nuclear Orientation (Angstroms)
    I     Atom           X                Y                Z
 ----------------------------------------------------------------
    1      C       1.6762481167    -1.0445194247     0.0000056359
    2      C       2.8539657486    -0.2854260887    -0.0002591383
    3      C       2.8409883544     1.1054516780    -0.0002651831
    4      C       0.4427269733    -0.3490960979     0.0001331978
    5      C       0.4380250273     1.0637850262     0.0001535757
    6      C       1.6295751457     1.7848603994    -0.0000259900
    7      C      -0.8621123567    -1.0736169056     0.0001156256
    8      C      -2.1368947126    -0.2787076452    -0.0001244877
    9      C      -2.1014472495     1.0645669502     0.0000740312
   10      C      -0.8453807543     1.8309053698     0.0001640646
   11      O      -0.9376818764    -2.2936847573     0.0002748171
   12      O      -0.8633706578     3.0531678810     0.0001643791
   13      C       1.8019249113    -2.5478722393     0.0001394426
   14      H       3.8046851711    -0.8076020118    -0.0004257033
   15      C      -3.4110359927    -1.0672699310    -0.0004032256
   16      H      -3.0088320934     1.6601639750     0.0000532595
   17      H       1.5815306474     2.8664581168    -0.0000322649
   18      H       3.7755428060     1.6550892293    -0.0004652527
   19      H       2.8565272968    -2.8305541528     0.0000057232
   20      H       1.3167404481    -2.9931680217    -0.8705483868
   21      H       1.3170467054    -2.9929546715     0.8711081733
   22      H      -3.4576845049    -1.7223982598    -0.8744892251
   23      H      -4.2786874752    -0.4066287631    -0.0004515041
   24      H      -3.4579479977    -1.7226369776     0.8734863190
 ----------------------------------------------------------------

    9    -613.9145901804      3.18e-06  Convergence criterion met
 Total energy in the final basis set =     -613.9145901804
    5    -613.9274227392      2.63e-06  Convergence criterion met
 Total energy in the final basis set =     -613.9274227392

                    Orbital Energies (a.u.)
 --------------------------------------------------------------

 Alpha MOs
 -- Occupied --
-19.1332 -19.1327 -10.2827 -10.2809 -10.2178 -10.2103 -10.2074 -10.2051
-10.1985 -10.1937 -10.1918 -10.1904 -10.1733 -10.1663  -1.0678  -1.0653
 -0.8886  -0.8452  -0.7942  -0.7822  -0.7274  -0.7089  -0.6719  -0.6396
 -0.6178  -0.5688  -0.5415  -0.5256  -0.5006  -0.4752  -0.4641  -0.4606
 -0.4603  -0.4281  -0.4260  -0.4255  -0.4244  -0.4127  -0.3971  -0.3948
 -0.3871  -0.3746  -0.3686  -0.3643  -0.2971  -0.2861  -0.2758  -0.2724
 -0.2672

          Ground-State Mulliken Net Atomic Charges

     Atom                 Charge (a.u.)
  ----------------------------------------
      1 C                     0.616523
      2 C                    -0.523300
      3 C                    -0.356173
      4 C                     0.573306
      5 C                     0.653092
      6 C                    -0.062024
      7 C                    -0.811459
      8 C                     0.579992
      9 C                    -0.488180
     10 C                    -0.747709
     11 O                    -0.256297
     12 O                    -0.323383
     13 C                    -0.485163
     14 H                     0.169464
     15 C                    -0.304096
     16 H                     0.215421
     17 H                     0.193253
     18 H                     0.237710
     19 H                     0.174220
     20 H                     0.179480
     21 H                     0.179323
     22 H                     0.200159
     23 H                     0.185768
     24 H                     0.200074
  ----------------------------------------
  Sum of atomic charges =     0.000000

                    Cartesian Multipole Moments
 -----------------------------------------------------------------
    Charge (ESU x 10^10)
                 0.0000
    Dipole Moment (Debye)
         X       1.5847      Y      -1.7552      Z      -0.0016
       Tot       2.3648
    Quadrupole Moments (Debye-Ang)
        XX     -61.9529     XY       1.7358     YY     -98.8216
        XZ      -0.0019     YZ       0.0033     ZZ     -82.7295

 Total job time:  33.00s(wall), 241.15s(cpu)
        *  Thank you very much for using Q-Chem.  Have a nice day.  *
