 Gaussian 16, Revision A.03,
 Gaussian 16:  ES64L-G16RevA.03 25-Dec-2016

 --------------------------------------
 #P UB3LYP/6-311++G(d,p) nosym opt freq
 --------------------------------------

 --------
 Oxidized
 --------
 Symbolic Z-matrix:
 Charge =  0 Multiplicity = 1

 SCF Done:  E(UB3LYP) =  -613.912366291     A.U. after   15 cycles
 SCF Done:  E(UB3LYP) =  -613.912365310     A.U. after    9 cycles
 SCF Done:  E(UB3LYP) =  -613.912366452     A.U. after    9 cycles
 SCF Done:  E(UB3LYP) =  -613.912366490     A.U. after    8 cycles
 SCF Done:  E(UB3LYP) =  -613.912366593     A.U. after    8 cycles
 SCF Done:  E(UB3LYP) =  -613.894454325     A.U. after   14 cycles
 SCF Done:  E(UB3LYP) =  -613.912694275     A.U. after   14 cycles
 SCF Done:  E(UB3LYP) =  -613.911587369     A.U. after   14 cycles
 SCF Done:  E(UB3LYP) =  -613.913105557     A.U. after   12 cycles
 SCF Done:  E(UB3LYP) =  -613.913304473     A.U. after   12 cycles
 SCF Done:  E(UB3LYP) =  -613.913994409     A.U. after   13 cycles
 SCF Done:  E(UB3LYP) =  -613.914245289     A.U. after   12 cycles
 SCF Done:  E(UB3LYP) =  -613.914513249     A.U. after   13 cycles
 SCF Done:  E(UB3LYP) =  -613.914527238     A.U. after   11 cycles
 SCF Done:  E(UB3LYP) =  -613.914532116     A.U. after   11 cycles
 SCF Done:  E(UB3LYP) =  -613.914533551     A.U. after   10 cycles
 SCF Done:  E(UB3LYP) =  -613.914534057     A.U. after   10 cycles
 SCF Done:  E(UB3LYP) =  -613.914534334     A.U. after    9 cycles
 SCF Done:  E(UB3LYP) =  -613.914534376     A.U. after    8 cycles
 Optimization completed.
    -- Stationary point found.
 Normal termination of Gaussian 16 at Sun Jan  7 21:09:44 2024.

 ----------------------------------------------------------------------
 #P Geom=AllCheck Guess=TCheck SCRF=Check GenChk UB3LYP/6-311++G(d,p) F
 req
 ----------------------------------------------------------------------

 Structure from the checkpoint file:  "244.chk"
 --------
 Oxidized
 --------
 Charge =  0 Multiplicity = 1

                          Input orientation:
 ---------------------------------------------------------------------
 Center     Atomic      Atomic             Coordinates (Angstroms)
 Number     Number       Type             X           Y           Z
 ---------------------------------------------------------------------
      1          6           0        5.766982   -5.300240    1.262396
      2          6           0        6.705960   -5.149369    0.233416
      3          6           0        6.588518   -4.163132   -0.740367
      4          6           0        4.669360   -4.406029    1.290692
      5          6           0        4.557255   -3.406945    0.297959
      6          6           0        5.510900   -3.287383   -0.710013
      7          6           0        3.619949   -4.491122    2.348535
      8          6           0        2.479582   -3.513417    2.323900
      9          6           0        2.406894   -2.576487    1.363420
     10          6           0        3.411845   -2.445884    0.296652
     11          8           0        3.649423   -5.327727    3.239321
     12          8           0        3.303067   -1.577052   -0.556312
     13          6           0        5.988526   -6.402640    2.268128
     14          1           0        7.550844   -5.828861    0.201844
     15          6           0        1.460928   -3.653922    3.413794
     16          1           0        1.592985   -1.859438    1.325002
     17          1           0        5.387436   -2.508046   -1.451331
     18          1           0        7.337666   -4.080631   -1.519767
     19          1           0        6.903059   -6.946973    2.024353
     20          1           0        5.153383   -7.105481    2.286575
     21          1           0        6.070576   -6.011217    3.283927
     22          1           0        1.011379   -4.650369    3.393929
     23          1           0        0.675670   -2.903953    3.312887
     24          1           0        1.931451   -3.552268    4.395458
 ---------------------------------------------------------------------

 SCF Done:  E(UB3LYP) =  -613.914534376     A.U. after    1 cycles

 Alpha  occ. eigenvalues --  -19.13125 -19.12640 -10.28160 -10.27592 -10.22078
 Alpha  occ. eigenvalues --  -10.21458 -10.21039 -10.20743 -10.20293 -10.20061
 Alpha  occ. eigenvalues --  -10.19742 -10.19549 -10.18332 -10.17332  -1.06538
 Alpha  occ. eigenvalues --   -1.05798  -0.89194  -0.84930  -0.79833  -0.78737
 Alpha  occ. eigenvalues --   -0.73230  -0.71337  -0.67597  -0.64362  -0.62274
 Alpha  occ. eigenvalues --   -0.57083  -0.54456  -0.52919  -0.50114  -0.48165
 Alpha  occ. eigenvalues --   -0.46541  -0.46259  -0.45308  -0.43257  -0.43192
 Alpha  occ. eigenvalues --   -0.42916  -0.42215  -0.41775  -0.40353  -0.40005
 Alpha  occ. eigenvalues --   -0.39289  -0.38002  -0.37086  -0.36912  -0.29782
 Alpha  occ. eigenvalues --   -0.28036  -0.28025  -0.26997  -0.26929
 Alpha virt. eigenvalues --   -0.12192  -0.05377  -0.03465  -0.01146  -0.00413
 Alpha virt. eigenvalues --    0.00631   0.01776   0.02119   0.02189   0.02712
 Alpha virt. eigenvalues --    0.03420   0.04230   0.04635   0.05002   0.05455

  Beta  occ. eigenvalues --  -19.13125 -19.12640 -10.28160 -10.27592 -10.22078
  Beta  occ. eigenvalues --  -10.21458 -10.21039 -10.20743 -10.20293 -10.20061
  Beta  occ. eigenvalues --  -10.19742 -10.19549 -10.18332 -10.17332  -1.06538
  Beta  occ. eigenvalues --   -1.05798  -0.89194  -0.84930  -0.79833  -0.78737
  Beta  occ. eigenvalues --   -0.73230  -0.71337  -0.67597  -0.64362  -0.62274
  Beta  occ. eigenvalues --   -0.57083  -0.54456  -0.52919  -0.50114  -0.48165
  Beta  occ. eigenvalues --   -0.46541  -0.46259  -0.45308  -0.43257  -0.43192
  Beta  occ. eigenvalues --   -0.42916  -0.42215  -0.41775  -0.40353  -0.40005
  Beta  occ. eigenvalues --   -0.39289  -0.38002  -0.37086  -0.36912  -0.29782
  Beta  occ. eigenvalues --   -0.28036  -0.28025  -0.26997  -0.26929
  Beta virt. eigenvalues --   -0.12192  -0.05377  -0.03465  -0.01146  -0.00413
  Beta virt. eigenvalues --    0.00631   0.01776   0.02119   0.02189   0.02712
  Beta virt. eigenvalues --    0.03420   0.04230   0.04635   0.05002   0.05455

 Mulliken charges and spin densities:
               1          2
     1  C    0.611572  -0.000000
     2  C   -0.502109  -0.000000
     3  C   -0.257646   0.000000
     4  C    0.564675  -0.000000
     5  C    0.648057  -0.000000
     6  C   -0.083407  -0.000000
     7  C   -0.922141   0.000000
     8  C    0.633160   0.000000
     9  C   -0.408620  -0.000000
    10  C   -0.881369   0.000000
    11  O   -0.190449  -0.000000
    12  O   -0.226614  -0.000000
    13  C   -0.437554  -0.000000
    14  H    0.118725  -0.000000
    15  C   -0.248482   0.000000
    16  H    0.180511  -0.000000
    17  H    0.180268  -0.000000
    18  H    0.189986   0.000000
    19  H    0.147020   0.000000
    20  H    0.174556  -0.000000
    21  H    0.174576  -0.000000
    22  H    0.187382  -0.000000
    23  H    0.160521  -0.000000
    24  H    0.187383  -0.000000
 Sum of Mulliken charges =  -0.00000   0.00000

 Dipole moment (field-independent basis, Debye):
    X=              0.9785    Y=             -1.2320    Z=              0.4505  Tot=              1.6365
 Quadrupole moment (field-independent basis, Debye-Ang):
   XX=            -63.3929   YY=            -78.0059   ZZ=            -84.0552
   XY=            -11.9561   XZ=             -4.0102   YZ=              4.7978

  Exact polarizability: 151.249 -31.701 139.168 -32.620 -38.018 149.618
 Approx polarizability: 221.759 -44.238 245.368 -40.827 -91.821 262.814

                      1                      2                      3
                      A                      A                      A
 Frequencies --     45.5203                70.7575               134.6144
 Red. masses --      5.5764                 4.3305                 1.6606
 Frc consts  --      0.0068                 0.0128                 0.0177
 IR Inten    --      7.4428                 0.1303                 0.1259

                      4                      5                      6
                      A                      A                      A
 Frequencies --    162.4717               197.6715               215.3466
 Red. masses --      1.9122                 2.9109                 1.5798
 Frc consts  --      0.0297                 0.0670                 0.0432
 IR Inten    --      1.3667                 0.1421                 2.0911

                      7                      8                      9
                      A                      A                      A
 Frequencies --    234.1543               240.6586               316.5362
 Red. masses --      1.8144                 3.4719                 4.2883
 Frc consts  --      0.0586                 0.1185                 0.2532
 IR Inten    --      0.3149                 0.6012                 0.2010

                     10                     11                     12
                      A                      A                      A
 Frequencies --    359.6558               367.8704               386.6388
 Red. masses --      3.7622                 4.0134                 7.8847
 Frc consts  --      0.2867                 0.3200                 0.6945
 IR Inten    --      0.0371                 2.3389                 3.0480

                     13                     14                     15
                      A                      A                      A
 Frequencies --    408.0175               461.5414               484.0927
 Red. masses --      6.7551                 6.1181                 3.9664
 Frc consts  --      0.6626                 0.7679                 0.5477
 IR Inten    --     18.2216                 3.6440                 0.0073

                     16                     17                     18
                      A                      A                      A
 Frequencies --    503.8633               519.1635               563.8846
 Red. masses --      3.5364                 6.7567                 5.1593
 Frc consts  --      0.5290                 1.0730                 0.9665
 IR Inten    --      3.2270                 6.6172                 0.7934

                     19                     20                     21
                      A                      A                      A
 Frequencies --    663.2963               697.4099               707.1701
 Red. masses --      4.1546                 3.9429                 3.1256
 Frc consts  --      1.0769                 1.1299                 0.9209
 IR Inten    --      0.2879                 0.0011                17.3800

                     22                     23                     24
                      A                      A                      A
 Frequencies --    707.6947               784.7770               793.2046
 Red. masses --      6.2060                 4.9047                 3.0399
 Frc consts  --      1.8313                 1.7797                 1.1269
 IR Inten    --      7.2665                 2.5656                10.0307

                     25                     26                     27
                      A                      A                      A
 Frequencies --    814.4318               883.3794               915.8051
 Red. masses --      1.7111                 4.9839                 1.5094
 Frc consts  --      0.6687                 2.2915                 0.7458
 IR Inten    --     27.4411                 7.6024                16.3443

                     28                     29                     30
                      A                      A                      A
 Frequencies --    946.6555               962.1180              1014.0804
 Red. masses --      1.3458                 3.3637                 1.3402
 Frc consts  --      0.7106                 1.8345                 0.8120
 IR Inten    --      0.1739                27.6004                 0.2769

                     31                     32                     33
                      A                      A                      A
 Frequencies --   1029.9662              1037.8405              1056.6121
 Red. masses --      1.7952                 1.5909                 1.5430
 Frc consts  --      1.1220                 1.0096                 1.0150
 IR Inten    --     10.8931                 5.5734                 5.5543

                     34                     35                     36
                      A                      A                      A
 Frequencies --   1058.9550              1098.4571              1166.5119
 Red. masses --      1.5537                 2.4775                 2.2813
 Frc consts  --      1.0266                 1.7613                 1.8290
 IR Inten    --      0.1412                 1.6903                 2.0210

                     37                     38                     39
                      A                      A                      A
 Frequencies --   1175.1380              1196.1228              1250.5541
 Red. masses --      2.1435                 1.4092                 2.9357
 Frc consts  --      1.7440                 1.1879                 2.7050
 IR Inten    --     32.4762                 3.5597               100.7743

                     40                     41                     42
                      A                      A                      A
 Frequencies --   1264.2604              1312.6975              1343.7499
 Red. masses --      2.1638                 3.4896                 5.6775
 Frc consts  --      2.0377                 3.5429                 6.0401
 IR Inten    --     16.9275               172.8100                37.7313

                     43                     44                     45
                      A                      A                      A
 Frequencies --   1364.1496              1415.2330              1420.3296
 Red. masses --      2.8187                 1.2824                 1.2271
 Frc consts  --      3.0904                 1.5134                 1.4585
 IR Inten    --     20.4199                15.2995                 7.6226

                     46                     47                     48
                      A                      A                      A
 Frequencies --   1452.1585              1466.8787              1475.7486
 Red. masses --      2.3857                 1.0436                 1.0441
 Frc consts  --      2.9641                 1.3231                 1.3398
 IR Inten    --     15.6256                 8.8702                 8.4681

                     49                     50                     51
                      A                      A                      A
 Frequencies --   1479.0700              1486.2479              1496.8792
 Red. masses --      1.0695                 1.7790                 1.5772
 Frc consts  --      1.3786                 2.3153                 2.0821
 IR Inten    --     11.5063                 0.6303                 4.6615

                     52                     53                     54
                      A                      A                      A
 Frequencies --   1604.8746              1624.2745              1682.6485
 Red. masses --      6.1625                 5.8688                 8.7310
 Frc consts  --      9.3517                 9.1226                14.5647
 IR Inten    --     19.9331                55.2188                70.6782

                     55                     56                     57
                      A                      A                      A
 Frequencies --   1710.3515              1717.1723              3037.5010
 Red. masses --     10.7834                10.5048                 1.0356
 Frc consts  --     18.5856                18.2502                 5.6294
 IR Inten    --    129.4695               285.0970                 9.3627

                     58                     59                     60
                      A                      A                      A
 Frequencies --   3041.0517              3088.6468              3100.6538
 Red. masses --      1.0355                 1.0986                 1.0989
 Frc consts  --      5.6423                 6.1750                 6.2248
 IR Inten    --     17.6881                 6.1618                 6.7476

                     61                     62                     63
                      A                      A                      A
 Frequencies --   3109.7527              3121.7755              3164.3653
 Red. masses --      1.1034                 1.1035                 1.0875
 Frc consts  --      6.2869                 6.3361                 6.4156
 IR Inten    --     23.5202                12.4572                 7.3749

                     64                     65                     66
                      A                      A                      A
 Frequencies --   3170.0219              3181.4828              3203.3027
 Red. masses --      1.0919                 1.0930                 1.0937
 Frc consts  --      6.4648                 6.5180                 6.6119
 IR Inten    --      7.5126                14.5039                 4.2555

 - Thermochemistry -
 -------------------
 Temperature   298.150 Kelvin.  Pressure   1.00000 Atm.
 Atom     1 has atomic number  6 and mass  12.00000

 Molecular mass:   186.06808 amu.
 Principal axes and moments of inertia in atomic units:
                           1         2         3
     Eigenvalues --  1874.653912473.416354326.15659
           X            0.84690  -0.07464   0.52648
           Y           -0.32840   0.70530   0.62826
           Z           -0.41822  -0.70497   0.57280
 This molecule is an asymmetric top.
 Rotational symmetry number  1.
 Warning -- assumption of classical behavior for rotation
           may cause significant error
 Rotational temperatures (Kelvin)      0.04620     0.03502     0.02002
 Rotational constants (GHZ):           0.96271     0.72966     0.41717
 Zero-point vibrational energy     491473.3 (Joules/Mol)
                                  117.46494 (Kcal/Mol)
 Warning -- explicit consideration of  18 degrees of freedom as
           vibrations may cause significant error
 Vibrational temperatures:     65.49   101.80   193.68   233.76   284.41
          (Kelvin)            309.84   336.90   346.25   455.43   517.46
                              529.28   556.29   587.05   664.06   696.50
                              724.95   746.96   811.30   954.34  1003.42
                             1017.46  1018.21  1129.12  1141.24  1171.79
                             1270.99  1317.64  1362.03  1384.27  1459.04
                             1481.89  1493.22  1520.23  1523.60  1580.43
                             1678.35  1690.76  1720.95  1799.27  1818.99
                             1888.68  1933.36  1962.71  2036.20  2043.54
                             2089.33  2110.51  2123.27  2128.05  2138.38
                             2153.68  2309.06  2336.97  2420.96  2460.81
                             2470.63  4370.29  4375.40  4443.87  4461.15
                             4474.24  4491.54  4552.82  4560.95  4577.44
                             4608.84

 Zero-point correction=                           0.187192 (Hartree/Particle)
 Thermal correction to Energy=                    0.199131
 Thermal correction to Enthalpy=                  0.200075
 Thermal correction to Gibbs Free Energy=         0.149111
 Sum of electronic and zero-point Energies=           -613.727342
 Sum of electronic and thermal Energies=              -613.715403
 Sum of electronic and thermal Enthalpies=            -613.714459
 Sum of electronic and thermal Free Energies=         -613.765423

                     E (Thermal)             CV                S
                      KCal/Mol        Cal/Mol-Kelvin    Cal/Mol-Kelvin
 Total                  124.957             46.250            107.263
 Electronic               0.000              0.000              0.000
 Translational            0.889              2.981             41.569
 Rotational               0.889              2.981             31.373
 Vibrational            123.179             40.289             34.321
 Vibration     1          0.595              1.979              5.003
 Vibration     2          0.598              1.968              4.132
 Vibration     3          0.613              1.919              2.879
 Vibration     4          0.623              1.888              2.521
 Vibration     5          0.637              1.843              2.155
 Vibration     6          0.645              1.818              1.998
 Vibration     7          0.654              1.789              1.847
 Vibration     8          0.658              1.778              1.798
 Vibration     9          0.703              1.642              1.328
 Vibration    10          0.734              1.555              1.124
 Vibration    11          0.740              1.538              1.089
 Vibration    12          0.755              1.499              1.013
 Vibration    13          0.773              1.453              0.934
 Vibration    14          0.819              1.335              0.762
 Vibration    15          0.840              1.285              0.699
 Vibration    16          0.859              1.241              0.649
 Vibration    17          0.874              1.208              0.612
 Vibration    18          0.920              1.109              0.516

 Optimization completed.
    -- Stationary point found.
 Normal termination of Gaussian 16 at Sun Jan  7 21:34:45 2024.
