 Q-Chem 5.4, Q-Chem, Inc., Pleasanton, CA (2021)
 Q-Chem 5.4.0 for Intel X86 EM64T Linux

User input:
--------------------------------------------------------------
$molecule
0 1
C                 -2.2574540000      3.2351400000      4.1119890000
C                 -3.4949630000      2.6700290000      4.3809410000
C                 -3.9238420000      1.5438580000      3.6871750000
C                 -3.1131730000      0.9602760000      2.7041360000
C                 -1.8401770000      1.5260640000      2.4140790000
C                 -1.4360990000      2.6681740000      3.1364150000
C                 -0.1129070000      3.3332080000      2.9001670000
C                 -0.9353100000      0.9518460000      1.3812390000
C                  0.7816810000      2.7772350000      1.8892660000
C                  0.3898460000      1.6311390000      1.1558120000
C                  2.0533550000      3.3727560000      1.6254350000
C                  2.8763830000      2.7893350000      0.6346970000
C                  2.4657490000      1.6721660000     -0.0629940000
C                  1.2218700000      1.0841930000      0.1903830000
O                  0.1795110000      4.3315080000      3.5686230000
O                 -1.2208760000     -0.0322270000      0.7203820000
N                  2.4858590000      4.4724840000      2.2948570000
O                 -3.4942790000     -0.1308370000      2.0114900000
C                 -4.7608300000     -0.7237430000      2.2733820000
H                 -1.9053310000      4.1105600000      4.6400330000
H                 -4.1389000000      3.1047210000      5.1373800000
H                 -4.8921060000      1.1203850000      3.9134310000
H                  3.8434140000      3.2376980000      0.4304300000
H                  3.1182860000      1.2463470000     -0.8174040000
H                  0.8891220000      0.2085080000     -0.3498370000
H                  1.8834030000      4.8762970000      3.0007760000
H                  3.3859500000      4.8683670000      2.0864490000
H                 -4.8256830000     -1.5719360000      1.5946620000
H                 -5.5802270000     -0.0279000000      2.0650510000
H                 -4.8315730000     -1.0788210000      3.3067950000
$end

$rem
BASIS  =  6-311++G(d,p)
GUI  =  2
JOB_TYPE  =  SP
METHOD  =  B3LYP
SCF_CONVERGENCE  = 8
SOLVENT_METHOD = sm12
$end

$smx
solvent dimethylformamide
charges CM5
$end

--------------------------------------------------------------

             Standard Nuclear Orientation (Angstroms)
    I     Atom           X                Y                Z
 ----------------------------------------------------------------
    1      C      -2.2574540000     3.2351400000     4.1119890000
    2      C      -3.4949630000     2.6700290000     4.3809410000
    3      C      -3.9238420000     1.5438580000     3.6871750000
    4      C      -3.1131730000     0.9602760000     2.7041360000
    5      C      -1.8401770000     1.5260640000     2.4140790000
    6      C      -1.4360990000     2.6681740000     3.1364150000
    7      C      -0.1129070000     3.3332080000     2.9001670000
    8      C      -0.9353100000     0.9518460000     1.3812390000
    9      C       0.7816810000     2.7772350000     1.8892660000
   10      C       0.3898460000     1.6311390000     1.1558120000
   11      C       2.0533550000     3.3727560000     1.6254350000
   12      C       2.8763830000     2.7893350000     0.6346970000
   13      C       2.4657490000     1.6721660000    -0.0629940000
   14      C       1.2218700000     1.0841930000     0.1903830000
   15      O       0.1795110000     4.3315080000     3.5686230000
   16      O      -1.2208760000    -0.0322270000     0.7203820000
   17      N       2.4858590000     4.4724840000     2.2948570000
   18      O      -3.4942790000    -0.1308370000     2.0114900000
   19      C      -4.7608300000    -0.7237430000     2.2733820000
   20      H      -1.9053310000     4.1105600000     4.6400330000
   21      H      -4.1389000000     3.1047210000     5.1373800000
   22      H      -4.8921060000     1.1203850000     3.9134310000
   23      H       3.8434140000     3.2376980000     0.4304300000
   24      H       3.1182860000     1.2463470000    -0.8174040000
   25      H       0.8891220000     0.2085080000    -0.3498370000
   26      H       1.8834030000     4.8762970000     3.0007760000
   27      H       3.3859500000     4.8683670000     2.0864490000
   28      H      -4.8256830000    -1.5719360000     1.5946620000
   29      H      -5.5802270000    -0.0279000000     2.0650510000
   30      H      -4.8315730000    -1.0788210000     3.3067950000
 ----------------------------------------------------------------

   15    -858.8815815156      4.43e-09  Convergence criterion met
 Total energy in the final basis set =     -858.9076349244

                    Orbital Energies (a.u.)
 --------------------------------------------------------------

 Alpha MOs
 -- Occupied --
-19.1622 -19.1196 -19.1129 -14.3315 -10.2732 -10.2716 -10.2611 -10.2451
-10.2185 -10.2054 -10.2034 -10.2014 -10.1966 -10.1957 -10.1942 -10.1904
-10.1886 -10.1842 -10.1809  -1.0837  -1.0537  -1.0490  -0.9410  -0.8822
 -0.8625  -0.8068  -0.7772  -0.7673  -0.7525  -0.7106  -0.6826  -0.6567
 -0.6478  -0.6057  -0.5803  -0.5713  -0.5562  -0.5296  -0.5107  -0.5082
 -0.4895  -0.4883  -0.4762  -0.4700  -0.4678  -0.4477  -0.4471  -0.4441
 -0.4293  -0.4169  -0.4113  -0.3987  -0.3957  -0.3873  -0.3806  -0.3748
 -0.3692  -0.3428  -0.3358  -0.3284  -0.2843  -0.2767  -0.2733  -0.2577
 -0.2427  -0.2228

          Ground-State Mulliken Net Atomic Charges

     Atom                 Charge (a.u.)
  ----------------------------------------
      1 C                    -0.467770
      2 C                     0.596335
      3 C                     1.365418
      4 C                    -0.277938
      5 C                    -0.085688
      6 C                    -0.651597
      7 C                    -1.646352
      8 C                    -1.707570
      9 C                    -0.990983
     10 C                     0.226362
     11 C                     0.152221
     12 C                     1.657281
     13 C                     0.304178
     14 C                    -0.422627
     15 O                    -0.265273
     16 O                    -0.270063
     17 N                    -0.316780
     18 O                    -0.172226
     19 C                    -0.119199
     20 H                     0.162661
     21 H                     0.344556
     22 H                     0.374184
     23 H                     0.322396
     24 H                     0.317312
     25 H                     0.139992
     26 H                     0.305132
     27 H                     0.442722
     28 H                     0.222332
     29 H                     0.230526
     30 H                     0.230460
  ----------------------------------------
  Sum of atomic charges =     0.000000

                    Cartesian Multipole Moments
 -----------------------------------------------------------------
    Charge (ESU x 10^10)
                 0.0000
    Dipole Moment (Debye)
         X      -0.5491      Y       0.8975      Z       1.0903
       Tot       1.5152
    Quadrupole Moments (Debye-Ang)
        XX     -68.3423     XY      12.9035     YY    -105.4741
        XZ     -16.4916     YZ      -0.7963     ZZ    -104.4354

 Total job time:  735.00s(wall), 5742.12s(cpu)
        *  Thank you very much for using Q-Chem.  Have a nice day.  *
