 Q-Chem 5.4, Q-Chem, Inc., Pleasanton, CA (2021)
 Q-Chem 5.4.0 for Intel X86 EM64T Linux

User input:
--------------------------------------------------------------
$molecule
-1 2
O                  3.3906070000      2.7157570000      0.9626380000
C                  3.0429620000      1.5390320000      0.6935460000
C                  4.0212410000      0.4664940000      0.4916640000
C                  5.3977110000      0.7587410000      0.6031560000
C                  6.3562300000     -0.2184510000      0.4200320000
C                  5.9612490000     -1.5404660000      0.1145670000
C                  4.6212800000     -1.8508950000      0.0003800000
C                  3.6213060000     -0.8683070000      0.1832800000
C                  2.2152260000     -1.2474440000      0.0535750000
O                  1.8623980000     -2.4262350000     -0.2177590000
C                  1.2391150000     -0.1764350000      0.2584210000
C                 -0.1352650000     -0.4799900000      0.1346450000
C                 -1.1202970000      0.4803820000      0.3224330000
C                 -0.7080610000      1.8103690000      0.6239860000
C                  0.6287360000      2.1226630000      0.7357210000
C                  1.6387200000      1.1538970000      0.5614140000
N                 -2.5063310000      0.1918420000      0.2487170000
C                 -2.9237890000     -1.1913470000      0.0633520000
C                 -4.3480690000     -1.4168420000      0.6087140000
C                 -5.2754440000     -0.2083310000      0.3440700000
C                 -4.7215590000      0.6323560000     -0.8071140000
C                 -3.3392980000      1.1907490000     -0.4432310000
H                  5.6699110000      1.7815530000      0.8381070000
H                  7.4105330000      0.0265100000      0.5100590000
H                  6.7131570000     -2.3110650000     -0.0299590000
H                  4.2912820000     -2.8568210000     -0.2328160000
H                 -0.3662280000     -1.5039680000     -0.1252290000
H                 -1.4494340000      2.5831510000      0.7891570000
H                  0.9430530000      3.1329810000      0.9727270000
H                 -2.8632910000     -1.5030770000     -0.9945880000
H                 -2.2320340000     -1.8321890000      0.6075160000
H                 -4.2963410000     -1.6132500000      1.6834920000
H                 -4.7551280000     -2.3205660000      0.1408550000
H                 -6.2956310000     -0.5423960000      0.1288260000
H                 -5.3337830000      0.4196720000      1.2398290000
H                 -4.6572140000      0.0187420000     -1.7127220000
H                 -5.3868180000      1.4687790000     -1.0446050000
H                 -3.4787010000      2.0580690000      0.2124910000
H                 -2.8319970000      1.5563340000     -1.3494580000
$end
$rem
MAX_SCF_CYCLES=200
BASIS  =  6-311++G(d,p)
GUI  =  2
JOB_TYPE  =  SP
METHOD  =  B3LYP
SOLVENT_METHOD = COSMO
$end
$solvent
dielectric 37.219
opticaldielectric 1.43
$end

--------------------------------------------------------------

             Standard Nuclear Orientation (Angstroms)
    I     Atom           X                Y                Z
 ----------------------------------------------------------------
    1      O      -2.6950391228    -2.7780687989     0.2027164466
    2      C      -2.3612599915    -1.5698632081     0.1203755813
    3      C      -3.3526030067    -0.4938549889     0.0333741812
    4      C      -4.7261110027    -0.8192543596     0.0433476593
    5      C      -5.6964974438     0.1599983763    -0.0379635448
    6      C      -5.3169734676     1.5178998952    -0.1333969417
    7      C      -3.9801968807     1.8611435216    -0.1449695659
    8      C      -2.9682770697     0.8771911099    -0.0628992542
    9      C      -1.5662528336     1.2916235401    -0.0771477690
   10      O      -1.2272492161     2.5022727669    -0.1611891624
   11      C      -0.5772250784     0.2166685716     0.0129119959
   12      C       0.7944510829     0.5549988074    -0.0076715118
   13      C       1.7907919994    -0.4078969601     0.0817894931
   14      C       1.3943501637    -1.7733740735     0.1714793764
   15      C       0.0608783697    -2.1180626006     0.1804941266
   16      C      -0.9610988052    -1.1491728283     0.1045109948
   17      N       3.1724273260    -0.0914780468     0.1090388037
   18      C       3.5683666543     1.3099437005     0.1420889067
   19      C       4.9648698917     1.4751850940     0.7740028362
   20      C       5.9267258413     0.3312370135     0.3780538550
   21      C       5.4365187716    -0.3424986878    -0.9043443128
   22      C       4.0526604024    -0.9677437016    -0.6832928729
   23      H      -4.9863308738    -1.8691429177     0.1172315824
   24      H      -6.7482812574    -0.1108004827    -0.0287790206
   25      H      -6.0782392748     2.2901989291    -0.1974656315
   26      H      -3.6619592618     2.8949175806    -0.2170957387
   27      H       1.0144432323     1.6090347786    -0.1077763240
   28      H       2.1443148794    -2.5509672002     0.2552006907
   29      H      -0.2417552055    -3.1565025672     0.2564206482
   30      H       3.5436147975     1.7701958208    -0.8617178356
   31      H       2.8424568222     1.8553317873     0.7428589610
   32      H       4.8663770562     1.5136211576     1.8626816080
   33      H       5.3715341483     2.4428386058     0.4584445927
   34      H       6.9475767843     0.7077718255     0.2564158422
   35      H       5.9622865034    -0.4185636964     1.1759947850
   36      H       5.3956463386     0.3943989713    -1.7143440375
   37      H       6.1277809918    -1.1260523749    -1.2311089213
   38      H       4.1836834095    -1.9184949017    -0.1536197216
   39      H       3.5894607560    -1.2060800602    -1.6532907802
 ----------------------------------------------------------------

   11    -939.7792736015      5.81e-06  Convergence criterion met
 Total energy in the final basis set =     -939.7792736015
    4    -939.8667062439      6.54e-06  Convergence criterion met
 Total energy in the final basis set =     -939.8667062439

                    Orbital Energies (a.u.)
 --------------------------------------------------------------

 Alpha MOs
 -- Occupied --
-19.0780 -19.0768 -14.3208 -10.2256 -10.2217 -10.2110 -10.1935 -10.1905
-10.1719 -10.1714 -10.1713 -10.1708 -10.1705 -10.1698 -10.1685 -10.1684
-10.1679 -10.1652 -10.1631 -10.1605 -10.1605 -10.1599  -1.0049  -1.0014
 -0.9416  -0.8586  -0.8469  -0.7988  -0.7745  -0.7561  -0.7496  -0.7433
 -0.7310  -0.6687  -0.6559  -0.6351  -0.6231  -0.6044  -0.5833  -0.5556
 -0.5459  -0.5295  -0.5226  -0.4942  -0.4899  -0.4721  -0.4662  -0.4549
 -0.4402  -0.4320  -0.4235  -0.4220  -0.4212  -0.4166  -0.4146  -0.4092
 -0.4043  -0.3956  -0.3828  -0.3820  -0.3770  -0.3641  -0.3590  -0.3505
 -0.3469  -0.3432  -0.3331  -0.3271  -0.3153  -0.3133  -0.2767  -0.2624
 -0.2569  -0.2515  -0.2490  -0.2390  -0.2035  -0.1405

 Beta MOs
 -- Occupied --
-19.0731 -19.0711 -14.3206 -10.2240 -10.2195 -10.2106 -10.1935 -10.1905
-10.1711 -10.1709 -10.1707 -10.1699 -10.1699 -10.1698 -10.1686 -10.1681
-10.1678 -10.1648 -10.1631 -10.1605 -10.1600 -10.1599  -0.9962  -0.9913
 -0.9412  -0.8559  -0.8458  -0.7977  -0.7716  -0.7555  -0.7472  -0.7418
 -0.7296  -0.6635  -0.6534  -0.6337  -0.6220  -0.6024  -0.5827  -0.5532
 -0.5448  -0.5281  -0.5217  -0.4930  -0.4891  -0.4705  -0.4643  -0.4537
 -0.4397  -0.4313  -0.4217  -0.4205  -0.4160  -0.4110  -0.4105  -0.4064
 -0.4024  -0.3946  -0.3813  -0.3762  -0.3621  -0.3589  -0.3586  -0.3494
 -0.3447  -0.3385  -0.3316  -0.3218  -0.3151  -0.3133  -0.2687  -0.2525
 -0.2463  -0.2445  -0.2441  -0.2341  -0.1986

          Ground-State Mulliken Net Atomic Charges

     Atom                 Charge (a.u.)    Spin (a.u.)
  --------------------------------------------------------
      1 O                    -0.497675       0.176213
      2 C                    -0.652013       0.094458
      3 C                     0.068462       0.048632
      4 C                     0.084437       0.016509
      5 C                    -0.485947       0.057903
      6 C                    -0.499489       0.026744
      7 C                     0.025703       0.041851
      8 C                     0.403808       0.025793
      9 C                    -0.657048       0.135425
     10 O                    -0.503377       0.209375
     11 C                     0.422964       0.044920
     12 C                    -0.000586       0.054297
     13 C                    -0.379564       0.017575
     14 C                    -0.097065       0.029182
     15 C                     0.081333       0.020701
     16 C                     0.061933       0.004166
     17 N                     0.259271       0.010964
     18 C                    -0.220856      -0.002848
     19 C                    -0.420081       0.002452
     20 C                    -0.328857      -0.000842
     21 C                    -0.544329      -0.000438
     22 C                    -0.117916      -0.000937
     23 H                     0.175645      -0.000513
     24 H                     0.200416      -0.004223
     25 H                     0.202023      -0.002636
     26 H                     0.174088      -0.002332
     27 H                     0.154443      -0.002406
     28 H                     0.215583      -0.002240
     29 H                     0.191120      -0.001063
     30 H                     0.180421       0.001618
     31 H                     0.166959       0.000464
     32 H                     0.165472       0.000154
     33 H                     0.155122      -0.000065
     34 H                     0.189271       0.000010
     35 H                     0.149964      -0.000087
     36 H                     0.155846      -0.000052
     37 H                     0.190023       0.000003
     38 H                     0.159509       0.000328
     39 H                     0.170980       0.000944
  --------------------------------------------------------
  Sum of atomic charges =    -1.000008

                    Cartesian Multipole Moments
 -----------------------------------------------------------------
    Charge (ESU x 10^10)
                -4.8032
    Dipole Moment (Debye)
         X      12.3358      Y       0.9087      Z      -0.7921
       Tot      12.3946
    Quadrupole Moments (Debye-Ang)
        XX    -137.6265     XY     -11.1851     YY    -163.6768
        XZ      -2.0925     YZ       2.5903     ZZ    -137.7782

 Total job time:  174.94s(wall), 1318.13s(cpu)
        *  Thank you very much for using Q-Chem.  Have a nice day.  *
