 Q-Chem 5.4, Q-Chem, Inc., Pleasanton, CA (2021)
 Q-Chem 5.4.0 for Intel X86 EM64T Linux

User input:
--------------------------------------------------------------
$molecule
-1 2
C                 -0.6761620000      3.2713240000      0.7697650000
C                 -1.4982530000      3.4080840000     -0.3333400000
C                 -1.0465230000      3.0004900000     -1.6048970000
C                  0.6197870000      2.7257640000      0.6430180000
C                  1.0779510000      2.3128500000     -0.6411290000
C                  0.2224420000      2.4624930000     -1.7465350000
C                  1.4799190000      2.5832230000      1.7985190000
C                  2.7877980000      2.0143160000      1.5685680000
C                  3.2656180000      1.6117120000      0.3393330000
C                  2.4249270000      1.7335750000     -0.8322250000
O                  1.1718690000      2.9188240000      2.9894220000
O                  2.8159460000      1.3671430000     -1.9713140000
O                  3.5407330000      1.9077280000      2.7022580000
C                  4.6447330000      1.0250670000      0.1828670000
C                  4.6617420000     -0.5143270000      0.2499960000
C                  6.0612510000     -1.1096250000      0.0611960000
C                  6.0936410000     -2.6409180000      0.1280190000
C                  7.4926570000     -3.2401520000     -0.0573620000
C                  7.5231040000     -4.7714520000      0.0100130000
C                  8.9227240000     -5.3708570000     -0.1693840000
C                  8.9501940000     -6.9022370000     -0.1020790000
C                 10.3508080000     -7.5003870000     -0.2717740000
C                 10.3669830000     -9.0398150000     -0.2016960000
C                 11.7462830000     -9.6382420000     -0.3633770000
C                 12.5586120000     -9.9036720000      0.7389400000
C                 12.2749090000     -9.9171580000     -1.6317730000
C                 13.5544420000    -10.4311420000     -1.7901850000
C                 14.3567820000    -10.6868870000     -0.6716730000
C                 13.8483060000    -10.4236810000      0.6018350000
O                 15.6059660000    -11.1800850000     -0.9399130000
C                 16.5226650000    -11.4682550000      0.1274160000
C                 16.1969750000    -12.8184840000      0.8117820000
C                 17.9185680000    -11.4837500000     -0.4889940000
C                 19.0047770000    -11.6688590000      0.5932970000
C                 18.5479430000    -12.6039590000      1.7407760000
C                 17.4651330000    -13.5772140000      1.2597600000
H                 -1.0010240000      3.5775510000      1.7578000000
H                 -2.4930840000      3.8295910000     -0.2210270000
H                 -1.6928810000      3.1082840000     -2.4708910000
H                  0.5953910000      2.1398590000     -2.7120720000
H                  2.9351010000      2.2784040000      3.3820000000
H                  5.3031330000      1.4242080000      0.9613850000
H                  5.0378550000      1.3325260000     -0.7914970000
H                  3.9899600000     -0.9022680000     -0.5231690000
H                  4.2553390000     -0.8344220000      1.2169560000
H                  6.7359340000     -0.7013650000      0.8263560000
H                  6.4638690000     -0.7820960000     -0.9066280000
H                  5.4212910000     -3.0485040000     -0.6381500000
H                  5.6861250000     -2.9683910000      1.0936760000
H                  8.1649950000     -2.8318350000      0.7089860000
H                  7.9005400000     -2.9130790000     -1.0229650000
H                  6.8538110000     -5.1798000000     -0.7585710000
H                  7.1114060000     -5.0985080000      0.9739390000
H                  9.5915740000     -4.9635580000      0.6001420000
H                  9.3355330000     -5.0440160000     -1.1327220000
H                  8.2858580000     -7.3099850000     -0.8753490000
H                  8.5314710000     -7.2290120000      0.8589470000
H                 11.0181970000     -7.1010130000      0.5015310000
H                 10.7742360000     -7.1809890000     -1.2317500000
H                  9.7028620000     -9.4376260000     -0.9776550000
H                  9.9428130000     -9.3562770000      0.7578940000
H                 12.1805310000     -9.7090740000      1.7381580000
H                 11.6705560000     -9.7294450000     -2.5141810000
H                 13.9554190000    -10.6431120000     -2.7744670000
H                 14.4321910000    -10.6228700000      1.4901900000
H                 16.4752740000    -10.6488170000      0.8552080000
H                 15.6267860000    -13.4244380000      0.1018430000
H                 15.5453810000    -12.6518540000      1.6741410000
H                 18.0787280000    -10.5559900000     -1.0430010000
H                 17.9613170000    -12.2971110000     -1.2209600000
H                 19.2863860000    -10.6947320000      1.0054570000
H                 19.9051110000    -12.0717760000      0.1196620000
H                 18.1443120000    -12.0093250000      2.5690200000
H                 19.4047440000    -13.1489050000      2.1473690000
H                 17.2081040000    -14.2906330000      2.0481010000
H                 17.8600650000    -14.1706300000      0.4274420000
$end
$rem
MAX_SCF_CYCLES=200
BASIS  =  6-311++G(d,p)
GUI  =  2
JOB_TYPE  =  SP
METHOD  =  B3LYP
SCF_ALGORITHM = RCA_DIIS
THRESH = 14
SOLVENT_METHOD = PCM
$end
$pcm
theory = CPCM
$end
$solvent
dielectric 37.219
opticaldielectric 1.43
$end

--------------------------------------------------------------

             Standard Nuclear Orientation (Angstroms)
    I     Atom           X                Y                Z
 ----------------------------------------------------------------
    1      C      -0.6761620000     3.2713240000     0.7697650000
    2      C      -1.4982530000     3.4080840000    -0.3333400000
    3      C      -1.0465230000     3.0004900000    -1.6048970000
    4      C       0.6197870000     2.7257640000     0.6430180000
    5      C       1.0779510000     2.3128500000    -0.6411290000
    6      C       0.2224420000     2.4624930000    -1.7465350000
    7      C       1.4799190000     2.5832230000     1.7985190000
    8      C       2.7877980000     2.0143160000     1.5685680000
    9      C       3.2656180000     1.6117120000     0.3393330000
   10      C       2.4249270000     1.7335750000    -0.8322250000
   11      O       1.1718690000     2.9188240000     2.9894220000
   12      O       2.8159460000     1.3671430000    -1.9713140000
   13      O       3.5407330000     1.9077280000     2.7022580000
   14      C       4.6447330000     1.0250670000     0.1828670000
   15      C       4.6617420000    -0.5143270000     0.2499960000
   16      C       6.0612510000    -1.1096250000     0.0611960000
   17      C       6.0936410000    -2.6409180000     0.1280190000
   18      C       7.4926570000    -3.2401520000    -0.0573620000
   19      C       7.5231040000    -4.7714520000     0.0100130000
   20      C       8.9227240000    -5.3708570000    -0.1693840000
   21      C       8.9501940000    -6.9022370000    -0.1020790000
   22      C      10.3508080000    -7.5003870000    -0.2717740000
   23      C      10.3669830000    -9.0398150000    -0.2016960000
   24      C      11.7462830000    -9.6382420000    -0.3633770000
   25      C      12.5586120000    -9.9036720000     0.7389400000
   26      C      12.2749090000    -9.9171580000    -1.6317730000
   27      C      13.5544420000   -10.4311420000    -1.7901850000
   28      C      14.3567820000   -10.6868870000    -0.6716730000
   29      C      13.8483060000   -10.4236810000     0.6018350000
   30      O      15.6059660000   -11.1800850000    -0.9399130000
   31      C      16.5226650000   -11.4682550000     0.1274160000
   32      C      16.1969750000   -12.8184840000     0.8117820000
   33      C      17.9185680000   -11.4837500000    -0.4889940000
   34      C      19.0047770000   -11.6688590000     0.5932970000
   35      C      18.5479430000   -12.6039590000     1.7407760000
   36      C      17.4651330000   -13.5772140000     1.2597600000
   37      H      -1.0010240000     3.5775510000     1.7578000000
   38      H      -2.4930840000     3.8295910000    -0.2210270000
   39      H      -1.6928810000     3.1082840000    -2.4708910000
   40      H       0.5953910000     2.1398590000    -2.7120720000
   41      H       2.9351010000     2.2784040000     3.3820000000
   42      H       5.3031330000     1.4242080000     0.9613850000
   43      H       5.0378550000     1.3325260000    -0.7914970000
   44      H       3.9899600000    -0.9022680000    -0.5231690000
   45      H       4.2553390000    -0.8344220000     1.2169560000
   46      H       6.7359340000    -0.7013650000     0.8263560000
   47      H       6.4638690000    -0.7820960000    -0.9066280000
   48      H       5.4212910000    -3.0485040000    -0.6381500000
   49      H       5.6861250000    -2.9683910000     1.0936760000
   50      H       8.1649950000    -2.8318350000     0.7089860000
   51      H       7.9005400000    -2.9130790000    -1.0229650000
   52      H       6.8538110000    -5.1798000000    -0.7585710000
   53      H       7.1114060000    -5.0985080000     0.9739390000
   54      H       9.5915740000    -4.9635580000     0.6001420000
   55      H       9.3355330000    -5.0440160000    -1.1327220000
   56      H       8.2858580000    -7.3099850000    -0.8753490000
   57      H       8.5314710000    -7.2290120000     0.8589470000
   58      H      11.0181970000    -7.1010130000     0.5015310000
   59      H      10.7742360000    -7.1809890000    -1.2317500000
   60      H       9.7028620000    -9.4376260000    -0.9776550000
   61      H       9.9428130000    -9.3562770000     0.7578940000
   62      H      12.1805310000    -9.7090740000     1.7381580000
   63      H      11.6705560000    -9.7294450000    -2.5141810000
   64      H      13.9554190000   -10.6431120000    -2.7744670000
   65      H      14.4321910000   -10.6228700000     1.4901900000
   66      H      16.4752740000   -10.6488170000     0.8552080000
   67      H      15.6267860000   -13.4244380000     0.1018430000
   68      H      15.5453810000   -12.6518540000     1.6741410000
   69      H      18.0787280000   -10.5559900000    -1.0430010000
   70      H      17.9613170000   -12.2971110000    -1.2209600000
   71      H      19.2863860000   -10.6947320000     1.0054570000
   72      H      19.9051110000   -12.0717760000     0.1196620000
   73      H      18.1443120000   -12.0093250000     2.5690200000
   74      H      19.4047440000   -13.1489050000     2.1473690000
   75      H      17.2081040000   -14.2906330000     2.0481010000
   76      H      17.8600650000   -14.1706300000     0.4274420000
 ----------------------------------------------------------------

   89   -1545.0004964823      7.96E-06 Convergence criterion met
 Total energy in the final basis set = -1545.00049648

                    Orbital Energies (a.u.)
 --------------------------------------------------------------

 Alpha MOs
 -- Occupied --
-19.1493 -19.1435 -19.0871 -19.0753 -10.2340 -10.2241 -10.2239 -10.2220
-10.2214 -10.1748 -10.1737 -10.1726 -10.1724 -10.1724 -10.1720 -10.1714
-10.1709 -10.1706 -10.1696 -10.1691 -10.1642 -10.1624 -10.1620 -10.1619
-10.1617 -10.1610 -10.1593 -10.1592 -10.1567 -10.1561 -10.1551 -10.1544
-10.1544 -10.1541 -10.1538 -10.1535  -1.0637  -1.0635  -1.0010  -0.9969
 -0.8603  -0.8584  -0.8284  -0.8136  -0.8063  -0.7935  -0.7776  -0.7614
 -0.7514  -0.7506  -0.7445  -0.7382  -0.7302  -0.7117  -0.6878  -0.6687
 -0.6477  -0.6319  -0.6219  -0.6167  -0.6101  -0.6034  -0.5890  -0.5758
 -0.5731  -0.5697  -0.5675  -0.5657  -0.5397  -0.5366  -0.5314  -0.5043
 -0.4907  -0.4863  -0.4843  -0.4782  -0.4717  -0.4653  -0.4573  -0.4521
 -0.4493  -0.4438  -0.4389  -0.4363  -0.4279  -0.4269  -0.4259  -0.4225
 -0.4202  -0.4177  -0.4157  -0.4124  -0.4027  -0.3982  -0.3953  -0.3907
 -0.3886  -0.3868  -0.3813  -0.3751  -0.3742  -0.3720  -0.3695  -0.3649
 -0.3583  -0.3557  -0.3521  -0.3512  -0.3451  -0.3433  -0.3401  -0.3355
 -0.3334  -0.3308  -0.3271  -0.3235  -0.3219  -0.3192  -0.3174  -0.3166
 -0.3150  -0.3138  -0.3003  -0.2989  -0.2932  -0.2675  -0.2611  -0.2582
 -0.2579  -0.2409  -0.2276  -0.2195  -0.1517

 Beta MOs
 -- Occupied --
-19.1493 -19.1429 -19.0810 -19.0702 -10.2340 -10.2239 -10.2226 -10.2204
-10.2189 -10.1746 -10.1737 -10.1725 -10.1724 -10.1719 -10.1714 -10.1714
-10.1702 -10.1701 -10.1697 -10.1692 -10.1641 -10.1620 -10.1619 -10.1617
-10.1616 -10.1610 -10.1593 -10.1592 -10.1568 -10.1561 -10.1551 -10.1544
-10.1543 -10.1541 -10.1538 -10.1535  -1.0636  -1.0612  -0.9920  -0.9866
 -0.8603  -0.8561  -0.8284  -0.8118  -0.8055  -0.7927  -0.7767  -0.7606
 -0.7511  -0.7486  -0.7441  -0.7381  -0.7298  -0.7110  -0.6855  -0.6629
 -0.6460  -0.6317  -0.6213  -0.6157  -0.6091  -0.6030  -0.5878  -0.5753
 -0.5731  -0.5684  -0.5674  -0.5644  -0.5397  -0.5348  -0.5314  -0.5020
 -0.4907  -0.4862  -0.4822  -0.4776  -0.4716  -0.4645  -0.4565  -0.4512
 -0.4492  -0.4438  -0.4380  -0.4280  -0.4278  -0.4255  -0.4252  -0.4222
 -0.4201  -0.4142  -0.4117  -0.4113  -0.4016  -0.3965  -0.3932  -0.3904
 -0.3870  -0.3801  -0.3777  -0.3746  -0.3732  -0.3712  -0.3675  -0.3603
 -0.3582  -0.3530  -0.3511  -0.3468  -0.3446  -0.3395  -0.3342  -0.3328
 -0.3309  -0.3286  -0.3262  -0.3232  -0.3217  -0.3188  -0.3174  -0.3166
 -0.3149  -0.3137  -0.3000  -0.2989  -0.2929  -0.2582  -0.2558  -0.2508
 -0.2483  -0.2362  -0.2197  -0.2188

          Ground-State Mulliken Net Atomic Charges

     Atom                 Charge (a.u.)    Spin (a.u.)
  --------------------------------------------------------
      1 C                     0.026006       0.070712
      2 C                    -0.395378       0.003244
      3 C                    -0.450074       0.068168
      4 C                     0.350210      -0.004000
      5 C                     0.011185       0.058213
      6 C                     0.084520       0.008372
      7 C                    -0.804139       0.172994
      8 C                    -0.607556       0.058987
      9 C                     1.814399       0.048797
     10 C                    -0.680445       0.083421
     11 O                    -0.540614       0.224995
     12 O                    -0.479728       0.192022
     13 O                    -0.296528       0.016665
     14 C                    -0.315042       0.011608
     15 C                    -0.640262      -0.002462
     16 C                    -0.201959       0.002893
     17 C                    -0.166202      -0.002359
     18 C                    -0.266165      -0.000414
     19 C                    -0.280182      -0.000084
     20 C                    -0.211646       0.000231
     21 C                    -0.240483      -0.000006
     22 C                    -0.463341       0.000177
     23 C                    -0.772112       0.000287
     24 C                     1.311595      -0.002306
     25 C                    -0.414119       0.002005
     26 C                    -0.522270       0.002161
     27 C                    -0.196165      -0.001999
     28 C                    -0.378163       0.001871
     29 C                    -0.029830      -0.002049
     30 O                    -0.044316       0.000096
     31 C                    -0.022949       0.000002
     32 C                    -0.057907       0.000004
     33 C                    -0.598203      -0.000032
     34 C                    -0.504264       0.000017
     35 C                    -0.297993      -0.000014
     36 C                    -0.471552      -0.000001
     37 H                     0.175137      -0.003629
     38 H                     0.199138      -0.001179
     39 H                     0.194899      -0.004708
     40 H                     0.171978      -0.000789
     41 H                     0.303370      -0.003508
     42 H                     0.215945      -0.000591
     43 H                     0.198669       0.002506
     44 H                     0.177424      -0.001784
     45 H                     0.170330       0.001978
     46 H                     0.116712      -0.000461
     47 H                     0.119768       0.000366
     48 H                     0.128676      -0.000017
     49 H                     0.129319      -0.000049
     50 H                     0.137496      -0.000040
     51 H                     0.138153      -0.000028
     52 H                     0.138215      -0.000008
     53 H                     0.138076      -0.000016
     54 H                     0.128092      -0.000026
     55 H                     0.131783      -0.000022
     56 H                     0.126910      -0.000019
     57 H                     0.123325      -0.000017
     58 H                     0.161129      -0.000059
     59 H                     0.158677      -0.000062
     60 H                     0.179402      -0.000022
     61 H                     0.175604      -0.000018
     62 H                     0.210477      -0.000211
     63 H                     0.198571      -0.000209
     64 H                     0.211018       0.000197
     65 H                     0.222210       0.000188
     66 H                     0.203299       0.000019
     67 H                     0.189203      -0.000006
     68 H                     0.134998       0.000001
     69 H                     0.175389       0.000003
     70 H                     0.186441       0.000002
     71 H                     0.160251      -0.000001
     72 H                     0.164191      -0.000009
     73 H                     0.137949       0.000006
     74 H                     0.188743       0.000005
     75 H                     0.193062       0.000001
     76 H                     0.137638      -0.000002
  --------------------------------------------------------
  Sum of atomic charges =    -1.000000

                    Cartesian Multipole Moments
 -----------------------------------------------------------------
    Charge (ESU x 10^10)
                -4.8032
    Dipole Moment (Debye)
         X     -10.0341      Y      -9.9912      Z      -0.2930
       Tot      14.1630
    Quadrupole Moments (Debye-Ang)
        XX    -223.9041     XY     -34.5247     YY    -247.3533
        XZ      35.0285     YZ     -34.0711     ZZ    -247.1813

 Total job time:  8518.72s(wall), 53126.75s(cpu)
        *  Thank you very much for using Q-Chem.  Have a nice day.  *
