 Q-Chem 5.4, Q-Chem, Inc., Pleasanton, CA (2021)
 Q-Chem 5.4.0 for Intel X86 EM64T Linux

User input:
--------------------------------------------------------------
$molecule
0 1
C                 -1.2338700000      1.8892290000     -2.9138620000
C                 -2.1816830000      1.9616310000     -1.7816900000
C                  0.1892740000      1.8630570000     -2.5146540000
C                  0.5688860000      1.5069810000     -1.2712930000
C                 -0.4953670000      0.9120160000     -0.3936110000
C                 -1.8204110000      1.6061260000     -0.5327210000
C                 -0.3139470000     -0.2289470000      0.3460960000
C                 -1.3781070000     -0.8239760000      1.2238590000
C                  1.0111630000     -0.9229540000      0.4851040000
C                  1.3725340000     -1.2785570000      1.7340290000
C                  0.4247870000     -1.2062850000      2.8662720000
C                 -0.9983820000     -1.1800520000      2.4671770000
O                 -1.5890580000      2.0117230000     -4.0791980000
O                  0.7800220000     -1.3287570000      4.0315960000
C                  1.9524840000      1.8346960000     -0.7183870000
C                  1.8619550000      3.1306910000      0.1192640000
C                  3.0411000000      1.9754360000     -1.7901510000
C                  1.8129350000     -1.3412090000     -0.7435820000
C                  1.1697030000     -2.6081440000     -1.3522680000
C                  3.3022880000     -1.5868460000     -0.4695620000
C                 -2.7618170000     -1.1516020000      0.6711950000
C                 -3.8502650000     -1.2921570000      1.7431540000
C                 -2.6715750000     -2.4476880000     -0.1663410000
C                 -2.6221930000      2.0246660000      0.6958500000
C                 -1.9789000000      3.2916940000      1.3042790000
C                 -4.1115160000      2.2703590000      0.4217180000
H                 -3.1432710000      2.4077130000     -2.0048150000
H                  0.8884510000      2.2401130000     -3.2511040000
H                  2.3341540000     -1.7245900000      1.9570870000
H                 -1.6975330000     -1.5570550000      3.2036840000
H                  2.2530420000      1.0495590000     -0.0245030000
H                  2.8422260000      3.3666050000      0.5426930000
H                  1.1591370000      3.0272740000      0.9475980000
H                  1.5429150000      3.9746770000     -0.4982640000
H                  3.1110070000      1.0893380000     -2.4257930000
H                  4.0124560000      2.1243440000     -1.3117690000
H                  2.8628320000      2.8397670000     -2.4356110000
H                  1.7269450000     -0.5657360000     -1.5048380000
H                  1.1937880000     -3.4390930000     -0.6420810000
H                  1.7189030000     -2.9073930000     -2.2493330000
H                  0.1318720000     -2.4345410000     -1.6412470000
H                  3.4554990000     -2.4496850000      0.1842440000
H                  3.7842960000     -0.7229480000     -0.0054050000
H                  3.8201990000     -1.7972210000     -1.4087500000
H                 -3.0623940000     -0.3665310000     -0.0227320000
H                 -4.8217180000     -1.4410740000      1.2649680000
H                 -3.9200080000     -0.4060120000      2.3787460000
H                 -3.6718890000     -2.1564410000      2.3886490000
H                 -3.6519450000     -2.6835850000     -0.5895610000
H                 -2.3524890000     -3.2916200000      0.4512370000
H                 -1.9689000000     -2.3444500000     -0.9948190000
H                 -2.5362390000      1.2493840000      1.4572820000
H                 -2.5280260000      3.5911450000      2.2013240000
H                 -2.0030250000      4.1224960000      0.5939260000
H                 -0.9410390000      3.1181470000      1.5932110000
H                 -4.6294730000      2.4809790000      1.3608270000
H                 -4.5935850000      1.4064340000     -0.0423260000
H                 -4.2645670000      3.1330860000     -0.2322760000
$end

$rem
BASIS  =  6-311++G(d,p)
GUI  =  2
JOB_TYPE  =  SP
METHOD  =  B3LYP
SCF_CONVERGENCE  = 8
SOLVENT_METHOD = sm12
$end

$smx
solvent dimethylformamide
charges CM5
$end

--------------------------------------------------------------

             Standard Nuclear Orientation (Angstroms)
    I     Atom           X                Y                Z
 ----------------------------------------------------------------
    1      C      -1.2338700000     1.8892290000    -2.9138620000
    2      C      -2.1816830000     1.9616310000    -1.7816900000
    3      C       0.1892740000     1.8630570000    -2.5146540000
    4      C       0.5688860000     1.5069810000    -1.2712930000
    5      C      -0.4953670000     0.9120160000    -0.3936110000
    6      C      -1.8204110000     1.6061260000    -0.5327210000
    7      C      -0.3139470000    -0.2289470000     0.3460960000
    8      C      -1.3781070000    -0.8239760000     1.2238590000
    9      C       1.0111630000    -0.9229540000     0.4851040000
   10      C       1.3725340000    -1.2785570000     1.7340290000
   11      C       0.4247870000    -1.2062850000     2.8662720000
   12      C      -0.9983820000    -1.1800520000     2.4671770000
   13      O      -1.5890580000     2.0117230000    -4.0791980000
   14      O       0.7800220000    -1.3287570000     4.0315960000
   15      C       1.9524840000     1.8346960000    -0.7183870000
   16      C       1.8619550000     3.1306910000     0.1192640000
   17      C       3.0411000000     1.9754360000    -1.7901510000
   18      C       1.8129350000    -1.3412090000    -0.7435820000
   19      C       1.1697030000    -2.6081440000    -1.3522680000
   20      C       3.3022880000    -1.5868460000    -0.4695620000
   21      C      -2.7618170000    -1.1516020000     0.6711950000
   22      C      -3.8502650000    -1.2921570000     1.7431540000
   23      C      -2.6715750000    -2.4476880000    -0.1663410000
   24      C      -2.6221930000     2.0246660000     0.6958500000
   25      C      -1.9789000000     3.2916940000     1.3042790000
   26      C      -4.1115160000     2.2703590000     0.4217180000
   27      H      -3.1432710000     2.4077130000    -2.0048150000
   28      H       0.8884510000     2.2401130000    -3.2511040000
   29      H       2.3341540000    -1.7245900000     1.9570870000
   30      H      -1.6975330000    -1.5570550000     3.2036840000
   31      H       2.2530420000     1.0495590000    -0.0245030000
   32      H       2.8422260000     3.3666050000     0.5426930000
   33      H       1.1591370000     3.0272740000     0.9475980000
   34      H       1.5429150000     3.9746770000    -0.4982640000
   35      H       3.1110070000     1.0893380000    -2.4257930000
   36      H       4.0124560000     2.1243440000    -1.3117690000
   37      H       2.8628320000     2.8397670000    -2.4356110000
   38      H       1.7269450000    -0.5657360000    -1.5048380000
   39      H       1.1937880000    -3.4390930000    -0.6420810000
   40      H       1.7189030000    -2.9073930000    -2.2493330000
   41      H       0.1318720000    -2.4345410000    -1.6412470000
   42      H       3.4554990000    -2.4496850000     0.1842440000
   43      H       3.7842960000    -0.7229480000    -0.0054050000
   44      H       3.8201990000    -1.7972210000    -1.4087500000
   45      H      -3.0623940000    -0.3665310000    -0.0227320000
   46      H      -4.8217180000    -1.4410740000     1.2649680000
   47      H      -3.9200080000    -0.4060120000     2.3787460000
   48      H      -3.6718890000    -2.1564410000     2.3886490000
   49      H      -3.6519450000    -2.6835850000    -0.5895610000
   50      H      -2.3524890000    -3.2916200000     0.4512370000
   51      H      -1.9689000000    -2.3444500000    -0.9948190000
   52      H      -2.5362390000     1.2493840000     1.4572820000
   53      H      -2.5280260000     3.5911450000     2.2013240000
   54      H      -2.0030250000     4.1224960000     0.5939260000
   55      H      -0.9410390000     3.1181470000     1.5932110000
   56      H      -4.6294730000     2.4809790000     1.3608270000
   57      H      -4.5935850000     1.4064340000    -0.0423260000
   58      H      -4.2645670000     3.1330860000    -0.2322760000
 ----------------------------------------------------------------

   14   -1084.4934726348      6.33e-09  Convergence criterion met
 Total energy in the final basis set =    -1084.5135642540

                    Orbital Energies (a.u.)
 --------------------------------------------------------------

 Alpha MOs
 -- Occupied --
-19.1117 -19.1117 -10.2615 -10.2615 -10.2220 -10.2214 -10.2127 -10.2127
-10.2127 -10.2127 -10.1917 -10.1916 -10.1916 -10.1916 -10.1799 -10.1799
-10.1799 -10.1799 -10.1655 -10.1655 -10.1654 -10.1654 -10.1615 -10.1615
-10.1614 -10.1614  -1.0420  -1.0419  -0.8959  -0.8634  -0.8364  -0.8233
 -0.7957  -0.7886  -0.7713  -0.7469  -0.7459  -0.6966  -0.6922  -0.6907
 -0.6880  -0.6836  -0.6485  -0.6400  -0.6258  -0.6033  -0.5859  -0.5721
 -0.5586  -0.5533  -0.5360  -0.5148  -0.4862  -0.4798  -0.4754  -0.4677
 -0.4638  -0.4614  -0.4607  -0.4488  -0.4438  -0.4412  -0.4392  -0.4336
 -0.4298  -0.4094  -0.4093  -0.4088  -0.4080  -0.4075  -0.4032  -0.3930
 -0.3897  -0.3877  -0.3866  -0.3830  -0.3793  -0.3727  -0.3716  -0.3583
 -0.3548  -0.3538  -0.3499  -0.3469  -0.3467  -0.3447  -0.3429  -0.3413
 -0.3360  -0.3260  -0.2891  -0.2688  -0.2659  -0.2557  -0.2506  -0.2466

          Ground-State Mulliken Net Atomic Charges

     Atom                 Charge (a.u.)
  ----------------------------------------
      1 C                    -2.135945
      2 C                    -0.369071
      3 C                    -0.368759
      4 C                     0.994054
      5 C                    -0.062800
      6 C                     0.987430
      7 C                    -0.062947
      8 C                     0.993961
      9 C                     0.987422
     10 C                    -0.369015
     11 C                    -2.136053
     12 C                    -0.368610
     13 O                    -0.393799
     14 O                    -0.393798
     15 C                     0.071010
     16 C                    -0.639520
     17 C                    -0.208463
     18 C                     0.073139
     19 C                    -0.640920
     20 C                    -0.204883
     21 C                     0.071083
     22 C                    -0.208515
     23 C                    -0.639620
     24 C                     0.073241
     25 C                    -0.640793
     26 C                    -0.205031
     27 H                     0.190490
     28 H                     0.191078
     29 H                     0.190487
     30 H                     0.191070
     31 H                     0.296990
     32 H                     0.192320
     33 H                     0.100224
     34 H                     0.162863
     35 H                     0.149828
     36 H                     0.220445
     37 H                     0.136458
     38 H                     0.296630
     39 H                     0.164011
     40 H                     0.192545
     41 H                     0.098447
     42 H                     0.136599
     43 H                     0.149502
     44 H                     0.220288
     45 H                     0.296996
     46 H                     0.220447
     47 H                     0.149811
     48 H                     0.136441
     49 H                     0.192321
     50 H                     0.162855
     51 H                     0.100196
     52 H                     0.296546
     53 H                     0.192560
     54 H                     0.163998
     55 H                     0.098403
     56 H                     0.220284
     57 H                     0.149476
     58 H                     0.136590
  ----------------------------------------
  Sum of atomic charges =     0.000000

                    Cartesian Multipole Moments
 -----------------------------------------------------------------
    Charge (ESU x 10^10)
                 0.0000
    Dipole Moment (Debye)
         X      -0.0003      Y       0.0007      Z       0.0000
       Tot       0.0008
    Quadrupole Moments (Debye-Ang)
        XX    -145.7321     XY       4.5193     YY    -157.0804
        XZ     -20.8656     YZ      16.9976     ZZ    -209.2113

 Total job time:  5160.87s(wall), 25004.03s(cpu)
        *  Thank you very much for using Q-Chem.  Have a nice day.  *
