 Gaussian 16, Revision A.03,
 Gaussian 16:  ES64L-G16RevA.03 25-Dec-2016

 ----------------------------------------------------------------
 #P UB3LYP/6-311++G(d,p) SCRF=(PCM,Solvent=n,n-DiMethylFormamide)
 ----------------------------------------------------------------

 ------------------
 Quinone PCM in DMF
 ------------------
 Symbolic Z-matrix:
 Charge =  0 Multiplicity = 1

                         Standard orientation:
 ---------------------------------------------------------------------
 Center     Atomic      Atomic             Coordinates (Angstroms)
 Number     Number       Type             X           Y           Z
 ---------------------------------------------------------------------
      1          6           0       -2.677248   -1.003095    0.045904
      2          6           0       -2.551603   -2.387086    0.008981
      3          6           0       -1.281612   -2.954561   -0.055704
      4          6           0       -1.547564   -0.183722    0.027545
      5          6           0       -0.255990   -0.748418   -0.021455
      6          6           0       -0.148637   -2.143760   -0.073071
      7          6           0       -1.743360    1.298860    0.038864
      8          6           0       -0.477344    2.186837   -0.048233
      9          6           0        0.795490    1.511962   -0.052481
     10          6           0        0.933490    0.146779   -0.022277
     11          8           0       -2.843382    1.798067    0.107544
     12          8           0       -0.604697    3.400259   -0.088198
     13          1           0       -3.649184   -0.526321    0.085251
     14          1           0       -3.433022   -3.017402    0.022701
     15          1           0       -1.166708   -4.031632   -0.097636
     16          1           0        0.815247   -2.632976   -0.146003
     17          1           0        1.663707    2.157257   -0.065052
     18          7           0        2.158591   -0.444635   -0.011242
     19          6           0        3.421084    0.282376    0.042829
     20          6           0        4.598410   -0.685665    0.054110
     21          1           0        2.207320   -1.432359    0.171855
     22          1           0        3.445584    0.921297    0.934792
     23          1           0        3.486777    0.944140   -0.827184
     24          1           0        4.565426   -1.342218    0.928913
     25          1           0        5.538110   -0.131572    0.092781
     26          1           0        4.610548   -1.305417   -0.846553
 ---------------------------------------------------------------------

 SCF Done:  E(UB3LYP) =  -669.295314814     A.U. after   15 cycles

 The electronic state is 1-A.
 Alpha  occ. eigenvalues --  -19.14072 -19.11389 -14.36458 -10.28066 -10.26305
 Alpha  occ. eigenvalues --  -10.26086 -10.22286 -10.22002 -10.20842 -10.20424
 Alpha  occ. eigenvalues --  -10.20136 -10.19967 -10.19715 -10.17548 -10.17335
 Alpha  occ. eigenvalues --   -1.07916  -1.04181  -0.97662  -0.89181  -0.82739
 Alpha  occ. eigenvalues --   -0.78966  -0.76636  -0.75980  -0.69613  -0.65951
 Alpha  occ. eigenvalues --   -0.64048  -0.62834  -0.59914  -0.56207  -0.53156
 Alpha  occ. eigenvalues --   -0.52331  -0.49487  -0.48477  -0.47853  -0.47307
 Alpha  occ. eigenvalues --   -0.46108  -0.45319  -0.45062  -0.43640  -0.42195
 Alpha  occ. eigenvalues --   -0.40726  -0.39962  -0.39519  -0.38542  -0.37934
 Alpha  occ. eigenvalues --   -0.37640  -0.36999  -0.34645  -0.30645  -0.28461
 Alpha  occ. eigenvalues --   -0.27764  -0.25627  -0.23700
 Alpha virt. eigenvalues --   -0.11786  -0.05569  -0.02145  -0.00972   0.00117
 Alpha virt. eigenvalues --    0.00711   0.01906   0.02053   0.02143   0.02493
 Alpha virt. eigenvalues --    0.03462   0.04377   0.04471   0.04956   0.05438

  Beta  occ. eigenvalues --  -19.14072 -19.11389 -14.36458 -10.28066 -10.26305
  Beta  occ. eigenvalues --  -10.26086 -10.22286 -10.22002 -10.20842 -10.20424
  Beta  occ. eigenvalues --  -10.20136 -10.19967 -10.19715 -10.17548 -10.17335
  Beta  occ. eigenvalues --   -1.07916  -1.04181  -0.97662  -0.89181  -0.82739
  Beta  occ. eigenvalues --   -0.78966  -0.76636  -0.75980  -0.69613  -0.65951
  Beta  occ. eigenvalues --   -0.64048  -0.62834  -0.59914  -0.56207  -0.53156
  Beta  occ. eigenvalues --   -0.52331  -0.49487  -0.48477  -0.47853  -0.47307
  Beta  occ. eigenvalues --   -0.46108  -0.45319  -0.45062  -0.43640  -0.42195
  Beta  occ. eigenvalues --   -0.40726  -0.39962  -0.39519  -0.38542  -0.37934
  Beta  occ. eigenvalues --   -0.37640  -0.36999  -0.34645  -0.30645  -0.28461
  Beta  occ. eigenvalues --   -0.27764  -0.25627  -0.23700
  Beta virt. eigenvalues --   -0.11786  -0.05569  -0.02145  -0.00972   0.00117
  Beta virt. eigenvalues --    0.00711   0.01906   0.02053   0.02143   0.02493
  Beta virt. eigenvalues --    0.03462   0.04377   0.04471   0.04956   0.05438

 Mulliken charges and spin densities:
               1          2
     1  C    0.202887  -0.000000
     2  C   -0.412725   0.000000
     3  C   -0.465465   0.000000
     4  C    0.443184  -0.000000
     5  C    0.411430  -0.000000
     6  C   -0.145064   0.000000
     7  C   -0.575586   0.000000
     8  C   -0.016707  -0.000000
     9  C    0.023143  -0.000000
    10  C   -0.274054   0.000000
    11  O   -0.284227  -0.000000
    12  O   -0.394618  -0.000000
    13  H    0.189627  -0.000000
    14  H    0.204680  -0.000000
    15  H    0.211534   0.000000
    16  H    0.130850  -0.000000
    17  H    0.228774  -0.000000
    18  N    0.064062  -0.000000
    19  C   -0.010137   0.000000
    20  C   -0.728557   0.000000
    21  H    0.338044  -0.000000
    22  H    0.185378  -0.000000
    23  H    0.179926   0.000000
    24  H    0.158560   0.000000
    25  H    0.168774  -0.000000
    26  H    0.166289  -0.000000
 Sum of Mulliken charges =  -0.00000  -0.00000

 Dipole moment (field-independent basis, Debye):
    X=              7.2966    Y=            -11.1266    Z=              0.2933  Tot=             13.3089
 Quadrupole moment (field-independent basis, Debye-Ang):
   XX=            -75.4622   YY=           -103.3272   ZZ=            -90.0293
   XY=             13.9416   XZ=              1.1198   YZ=              0.1413

 Normal termination of Gaussian 16 at Sat Jan 13 19:19:34 2024.
