 Gaussian 16, Revision A.03,
 Gaussian 16:  ES64L-G16RevA.03 25-Dec-2016

 --------------------------------------
 #P UB3LYP/6-311++G(d,p) nosym opt freq
 --------------------------------------

 -------
 Reduced
 -------
 Symbolic Z-matrix:
 Charge = -2 Multiplicity = 1

 SCF Done:  E(UB3LYP) =  -1985.03853577     A.U. after   23 cycles
 Optimization completed.
    -- Stationary point found.
 Normal termination of Gaussian 16 at Wed Jan 10 17:11:50 2024.

 ----------------------------------------------------------------------
 #P Geom=AllCheck Guess=TCheck SCRF=Check GenChk UB3LYP/6-311++G(d,p) F
 req
 ----------------------------------------------------------------------

 Structure from the checkpoint file:  "101-an.chk"
 -------
 Reduced
 -------
 Charge = -2 Multiplicity = 1

                          Input orientation:
 ---------------------------------------------------------------------
 Center     Atomic      Atomic             Coordinates (Angstroms)
 Number     Number       Type             X           Y           Z
 ---------------------------------------------------------------------
      1          6           0       -2.167286   -5.404635    0.703400
      2          6           0       -0.972140   -5.596194   -0.044037
      3          6           0       -0.222035   -4.567147   -0.617947
      4          6           0       -0.651189   -3.191955   -0.575343
      5          6           0       -2.566993   -4.024462    0.796228
      6          6           0       -1.857707   -3.005840    0.149104
      7          8           0       -2.893579   -6.334144    1.237041
      8          8           0        0.034785   -2.277233   -1.186306
      9          7           0       -3.822175   -3.836588    1.471531
     10          7           0        0.963813   -4.769840   -1.399344
     11          6           0       -3.837446   -3.415022    2.898851
     12          6           0       -2.476111   -3.013681    3.479826
     13          6           0       -4.864105   -2.285701    3.138799
     14          6           0        2.179393   -5.194046   -0.681105
     15          6           0        2.993816   -4.025434   -0.108006
     16          6           0        3.057939   -6.101956   -1.565302
     17          7           0       -5.465335   -1.853460    2.009531
     18          7           0        2.442289   -6.489629   -2.706642
     19          6           0        2.982301   -7.475068   -3.608476
     20          6           0       -6.329769   -0.702456    1.957321
     21          8           0       -5.114397   -1.849994    4.267703
     22          8           0        4.196552   -6.453329   -1.243550
     23         17           0       -0.439199   -7.296530   -0.281635
     24         17           0       -2.498311   -1.328154    0.204266
     25          1           0       -4.193875   -4.791760    1.461990
     26          1           0        1.117250   -3.828231   -1.786600
     27          1           0       -4.209696   -4.256239    3.499384
     28          1           0       -2.603497   -2.726473    4.526426
     29          1           0       -2.044662   -2.175752    2.929558
     30          1           0       -1.786384   -3.856233    3.409135
     31          1           0        1.869356   -5.841067    0.144706
     32          1           0        2.361549   -3.442500    0.564145
     33          1           0        3.328171   -3.358821   -0.909608
     34          1           0        3.873257   -4.392341    0.427810
     35          1           0       -5.062115   -2.281482    1.172162
     36          1           0        1.478964   -6.149495   -2.758713
     37          1           0        4.040462   -7.609461   -3.376390
     38          1           0        2.882455   -7.147908   -4.649681
     39          1           0        2.477656   -8.444678   -3.502983
     40          1           0       -7.236017   -0.917032    1.378646
     41          1           0       -5.825845    0.158167    1.498632
     42          1           0       -6.613052   -0.438404    2.977934
 ---------------------------------------------------------------------

 SCF Done:  E(UB3LYP) =  -1985.03853577     A.U. after    2 cycles

 Alpha  occ. eigenvalues -- -101.30922-101.30900 -18.89960 -18.89451 -18.79557
 Alpha  occ. eigenvalues --  -18.79507 -14.14525 -14.13919 -14.08636 -14.08291
 Alpha  occ. eigenvalues --  -10.07652 -10.07075 -10.03820 -10.03226 -10.00607
 Alpha  occ. eigenvalues --  -10.00510  -9.96511  -9.96492  -9.96456  -9.95848
 Alpha  occ. eigenvalues --   -9.95838  -9.95697  -9.95077  -9.94648  -9.22364
 Alpha  occ. eigenvalues --   -9.22352  -6.98751  -6.98735  -6.97908  -6.97900
 Alpha  occ. eigenvalues --   -6.97844  -6.97831  -0.84661  -0.84104  -0.74092
 Alpha  occ. eigenvalues --   -0.73545  -0.72578  -0.71861  -0.68510  -0.67812
 Alpha  occ. eigenvalues --   -0.61683  -0.60914  -0.56666  -0.55933  -0.53761
 Alpha  occ. eigenvalues --   -0.53084  -0.52581  -0.46003  -0.43879  -0.43342
 Alpha  occ. eigenvalues --   -0.41178  -0.38318  -0.37622  -0.33979  -0.33114
 Alpha  occ. eigenvalues --   -0.32319  -0.31679  -0.29562  -0.28562  -0.28032
 Alpha  occ. eigenvalues --   -0.27617  -0.26800  -0.25706  -0.24753  -0.24148
 Alpha  occ. eigenvalues --   -0.23908  -0.22810  -0.21708  -0.21304  -0.21031
 Alpha  occ. eigenvalues --   -0.20624  -0.19784  -0.19612  -0.18483  -0.17509
 Alpha  occ. eigenvalues --   -0.17198  -0.16606  -0.16404  -0.15164  -0.14855
 Alpha  occ. eigenvalues --   -0.13679  -0.13516  -0.11976  -0.11611  -0.09979
 Alpha  occ. eigenvalues --   -0.08624  -0.08037  -0.07912  -0.07538  -0.07080
 Alpha  occ. eigenvalues --   -0.06951  -0.06479  -0.04356  -0.03405   0.00526
 Alpha  occ. eigenvalues --    0.01692   0.02217   0.02723   0.10276
 Alpha virt. eigenvalues --    0.12952   0.13332   0.16441   0.16623   0.16794
 Alpha virt. eigenvalues --    0.17116   0.17302   0.17732   0.18823   0.19214
 Alpha virt. eigenvalues --    0.19402   0.20053   0.20372   0.21117   0.21464

  Beta  occ. eigenvalues -- -101.30922-101.30900 -18.89960 -18.89451 -18.79557
  Beta  occ. eigenvalues --  -18.79507 -14.14525 -14.13919 -14.08636 -14.08291
  Beta  occ. eigenvalues --  -10.07652 -10.07075 -10.03820 -10.03226 -10.00607
  Beta  occ. eigenvalues --  -10.00510  -9.96511  -9.96492  -9.96456  -9.95848
  Beta  occ. eigenvalues --   -9.95838  -9.95697  -9.95077  -9.94648  -9.22364
  Beta  occ. eigenvalues --   -9.22352  -6.98751  -6.98735  -6.97908  -6.97900
  Beta  occ. eigenvalues --   -6.97844  -6.97831  -0.84661  -0.84104  -0.74092
  Beta  occ. eigenvalues --   -0.73545  -0.72578  -0.71861  -0.68510  -0.67812
  Beta  occ. eigenvalues --   -0.61683  -0.60914  -0.56666  -0.55933  -0.53761
  Beta  occ. eigenvalues --   -0.53084  -0.52581  -0.46003  -0.43879  -0.43342
  Beta  occ. eigenvalues --   -0.41178  -0.38318  -0.37622  -0.33979  -0.33114
  Beta  occ. eigenvalues --   -0.32319  -0.31679  -0.29562  -0.28562  -0.28032
  Beta  occ. eigenvalues --   -0.27617  -0.26800  -0.25706  -0.24753  -0.24148
  Beta  occ. eigenvalues --   -0.23908  -0.22810  -0.21708  -0.21304  -0.21031
  Beta  occ. eigenvalues --   -0.20624  -0.19784  -0.19612  -0.18483  -0.17509
  Beta  occ. eigenvalues --   -0.17198  -0.16606  -0.16404  -0.15164  -0.14855
  Beta  occ. eigenvalues --   -0.13679  -0.13516  -0.11976  -0.11611  -0.09979
  Beta  occ. eigenvalues --   -0.08624  -0.08037  -0.07912  -0.07538  -0.07080
  Beta  occ. eigenvalues --   -0.06951  -0.06479  -0.04356  -0.03405   0.00526
  Beta  occ. eigenvalues --    0.01692   0.02217   0.02723   0.10276
  Beta virt. eigenvalues --    0.12952   0.13332   0.16441   0.16623   0.16794
  Beta virt. eigenvalues --    0.17116   0.17302   0.17732   0.18823   0.19214
  Beta virt. eigenvalues --    0.19402   0.20053   0.20372   0.21117   0.21464

 Mulliken charges and spin densities:
               1          2
     1  C   -0.957326   0.000000
     2  C    0.210750  -0.000000
     3  C   -0.196809  -0.000000
     4  C   -0.863963   0.000000
     5  C   -0.073088  -0.000000
     6  C    0.391998  -0.000000
     7  O   -0.486857  -0.000000
     8  O   -0.480222  -0.000000
     9  N   -0.120942   0.000000
    10  N    0.101718   0.000000
    11  C    0.230797  -0.000000
    12  C   -0.615054   0.000000
    13  C   -0.251444   0.000000
    14  C    0.094442   0.000000
    15  C   -0.645432  -0.000000
    16  C   -0.219932  -0.000000
    17  N   -0.175846  -0.000000
    18  N   -0.222767   0.000000
    19  C   -0.276683   0.000000
    20  C   -0.300142   0.000000
    21  O   -0.424037  -0.000000
    22  O   -0.417915   0.000000
    23  Cl   0.277059   0.000000
    24  Cl   0.268317   0.000000
    25  H    0.242475  -0.000000
    26  H    0.229689  -0.000000
    27  H    0.171840   0.000000
    28  H    0.139424   0.000000
    29  H    0.105698  -0.000000
    30  H    0.177908  -0.000000
    31  H    0.141785  -0.000000
    32  H    0.204508   0.000000
    33  H    0.131820   0.000000
    34  H    0.132942  -0.000000
    35  H    0.320948  -0.000000
    36  H    0.337020  -0.000000
    37  H    0.155555  -0.000000
    38  H    0.117994  -0.000000
    39  H    0.137032   0.000000
    40  H    0.114325  -0.000000
    41  H    0.145188  -0.000000
    42  H    0.147226  -0.000000
 Sum of Mulliken charges =  -2.00000  -0.00000

 Dipole moment (field-independent basis, Debye):
    X=             10.9173    Y=             40.6744    Z=             -5.4605  Tot=             42.4666
 Quadrupole moment (field-independent basis, Debye-Ang):
   XX=           -263.8144   YY=           -397.3149   ZZ=           -207.2237
   XY=            -24.8819   XZ=             51.5680   YZ=             15.5176

  Exact polarizability: 334.172 -52.996 296.054 -65.091  25.217 256.605
 Approx polarizability: 433.805 -28.510 449.188 -61.114  -2.580 374.668

                      1                      2                      3
                      A                      A                      A
 Frequencies --     17.4940                21.5480                23.5542
 Red. masses --      5.1507                 5.1153                 5.5680
 Frc consts  --      0.0009                 0.0014                 0.0018
 IR Inten    --      0.3131                 0.9504                 0.7422

                      4                      5                      6
                      A                      A                      A
 Frequencies --     37.8947                45.7835                59.6283
 Red. masses --      4.5836                 6.0722                 1.0618
 Frc consts  --      0.0039                 0.0075                 0.0022
 IR Inten    --      1.2467                 0.4773                 0.0752

                      7                      8                      9
                      A                      A                      A
 Frequencies --     62.8562                68.2184                70.9327
 Red. masses --      5.9993                 1.0435                 5.7665
 Frc consts  --      0.0140                 0.0029                 0.0171
 IR Inten    --      9.3003                 0.4592                 0.2829

                     10                     11                     12
                      A                      A                      A
 Frequencies --     87.8288               101.3014               131.1809
 Red. masses --      4.8967                 6.2249                 5.0697
 Frc consts  --      0.0223                 0.0376                 0.0514
 IR Inten    --      5.5776                 4.4315                 3.5318

                     13                     14                     15
                      A                      A                      A
 Frequencies --    134.6905               138.5677               141.2351
 Red. masses --      4.1198                 4.9151                 6.1789
 Frc consts  --      0.0440                 0.0556                 0.0726
 IR Inten    --      6.4853                 3.7557                10.9970

                     16                     17                     18
                      A                      A                      A
 Frequencies --    145.6170               170.7046               207.3220
 Red. masses --      4.5136                 6.7615                 5.6448
 Frc consts  --      0.0564                 0.1161                 0.1430
 IR Inten    --      4.1921                11.1503                10.7907

                     19                     20                     21
                      A                      A                      A
 Frequencies --    215.9292               229.9533               238.9875
 Red. masses --      5.7417                 1.1595                 3.4037
 Frc consts  --      0.1577                 0.0361                 0.1145
 IR Inten    --      1.3697                 0.1645                 1.7930

                     22                     23                     24
                      A                      A                      A
 Frequencies --    243.9305               263.8967               279.8672
 Red. masses --      1.2830                 4.3007                 4.2069
 Frc consts  --      0.0450                 0.1765                 0.1941
 IR Inten    --      0.0351                 1.6100                 5.3992

                     25                     26                     27
                      A                      A                      A
 Frequencies --    299.4021               305.6203               313.3125
 Red. masses --      3.3797                11.9216                 4.5093
 Frc consts  --      0.1785                 0.6561                 0.2608
 IR Inten    --      7.7592                 1.1589                10.3267

                     28                     29                     30
                      A                      A                      A
 Frequencies --    320.0166               327.9077               348.1170
 Red. masses --      7.3374                10.9914                 5.3514
 Frc consts  --      0.4427                 0.6963                 0.3821
 IR Inten    --      4.2538                 7.3591                 1.5727

                     31                     32                     33
                      A                      A                      A
 Frequencies --    360.4447               370.2321               393.6948
 Red. masses --      5.3636                 4.1581                 8.7912
 Frc consts  --      0.4106                 0.3358                 0.8028
 IR Inten    --      1.0643                13.1432                 5.3066

                     34                     35                     36
                      A                      A                      A
 Frequencies --    430.0759               460.8006               499.5758
 Red. masses --      3.5688                 4.5183                10.7149
 Frc consts  --      0.3889                 0.5653                 1.5756
 IR Inten    --     11.7507                14.5922                 5.0299

                     37                     38                     39
                      A                      A                      A
 Frequencies --    530.9313               541.8742               573.5594
 Red. masses --      5.6704                 8.4296                 5.6353
 Frc consts  --      0.9418                 1.4583                 1.0923
 IR Inten    --     11.7059                31.4994                 2.8957

                     40                     41                     42
                      A                      A                      A
 Frequencies --    584.2689               615.2148               639.1790
 Red. masses --      4.2875                 4.4813                 6.7257
 Frc consts  --      0.8623                 0.9993                 1.6189
 IR Inten    --      4.8112                 2.0071                 9.0462

                     43                     44                     45
                      A                      A                      A
 Frequencies --    722.5330               732.8109               741.3131
 Red. masses --      3.2078                 3.4540                 6.2067
 Frc consts  --      0.9867                 1.0928                 2.0096
 IR Inten    --      0.2031                 6.7574                44.5120

                     46                     47                     48
                      A                      A                      A
 Frequencies --    748.3970               756.9877               772.6124
 Red. masses --      3.4947                 4.9428                 1.4722
 Frc consts  --      1.1533                 1.6688                 0.5178
 IR Inten    --      3.5779                 4.2889                64.1512

                     49                     50                     51
                      A                      A                      A
 Frequencies --    778.2728               784.7157               827.1840
 Red. masses --      1.8960                 3.7603                 3.0684
 Frc consts  --      0.6766                 1.3643                 1.2370
 IR Inten    --     44.8981                72.8286                38.3259

                     52                     53                     54
                      A                      A                      A
 Frequencies --    844.0397               864.6655               879.5741
 Red. masses --      2.7622                 2.4741                 3.0237
 Frc consts  --      1.1594                 1.0898                 1.3783
 IR Inten    --     10.9292                16.1958                29.5830

                     55                     56                     57
                      A                      A                      A
 Frequencies --    902.3160               965.6514               984.8444
 Red. masses --      2.9138                 2.0042                 1.6578
 Frc consts  --      1.3977                 1.1011                 0.9474
 IR Inten    --     15.6669                29.6079                79.2331

                     58                     59                     60
                      A                      A                      A
 Frequencies --   1006.7011              1022.7169              1029.8739
 Red. masses --      2.0352                 2.1925                 3.1464
 Frc consts  --      1.2153                 1.3511                 1.9662
 IR Inten    --     42.4188                 9.8250                31.9963

                     61                     62                     63
                      A                      A                      A
 Frequencies --   1093.7469              1109.1444              1115.1584
 Red. masses --      2.1355                 2.9300                 2.3024
 Frc consts  --      1.5052                 2.1237                 1.6870
 IR Inten    --      6.4398                95.3997                22.9708

                     64                     65                     66
                      A                      A                      A
 Frequencies --   1126.2113              1134.8231              1141.4250
 Red. masses --      4.1355                 3.8352                 1.3408
 Frc consts  --      3.0904                 2.9100                 1.0292
 IR Inten    --      5.4769               160.6717                21.9701

                     67                     68                     69
                      A                      A                      A
 Frequencies --   1142.0697              1154.0073              1158.9315
 Red. masses --      1.3636                 3.2577                 3.7722
 Frc consts  --      1.0479                 2.5561                 2.9851
 IR Inten    --     10.7977               141.8480               243.3031

                     70                     71                     72
                      A                      A                      A
 Frequencies --   1171.2777              1184.6785              1190.8432
 Red. masses --      2.5087                 1.8624                 2.2458
 Frc consts  --      2.0278                 1.5400                 1.8764
 IR Inten    --     22.4410                 3.9171                41.3021

                     73                     74                     75
                      A                      A                      A
 Frequencies --   1219.7421              1236.4911              1245.2574
 Red. masses --      2.9456                 1.9278                 1.9168
 Frc consts  --      2.5820                 1.7365                 1.7512
 IR Inten    --     40.4619                63.6111                29.0266

                     76                     77                     78
                      A                      A                      A
 Frequencies --   1307.1435              1314.5181              1335.9274
 Red. masses --      1.3810                 1.3974                 1.3304
 Frc consts  --      1.3902                 1.4227                 1.3989
 IR Inten    --     26.0868                11.5828                12.1708

                     79                     80                     81
                      A                      A                      A
 Frequencies --   1336.9474              1391.2384              1391.3284
 Red. masses --      1.3361                 1.2367                 1.2433
 Frc consts  --      1.4070                 1.4103                 1.4181
 IR Inten    --      4.1638                26.1263                24.2919

                     82                     83                     84
                      A                      A                      A
 Frequencies --   1405.3451              1409.1199              1425.1524
 Red. masses --      3.8065                 6.8845                 1.2386
 Frc consts  --      4.4294                 8.0541                 1.4822
 IR Inten    --     14.9717                 4.2159                 7.0864

                     85                     86                     87
                      A                      A                      A
 Frequencies --   1426.0542              1438.0343              1445.8234
 Red. masses --      1.2205                 6.8701                 6.6951
 Frc consts  --      1.4624                 8.3706                 8.2459
 IR Inten    --     43.3292               752.7504               102.0134

                     88                     89                     90
                      A                      A                      A
 Frequencies --   1484.1448              1487.3325              1488.3941
 Red. masses --      1.0678                 1.0455                 1.1031
 Frc consts  --      1.3858                 1.3626                 1.4397
 IR Inten    --     29.8228                11.5130                51.7931

                     91                     92                     93
                      A                      A                      A
 Frequencies --   1490.2271              1491.9492              1500.1350
 Red. masses --      1.0954                 1.0604                 1.0769
 Frc consts  --      1.4333                 1.3906                 1.4278
 IR Inten    --     39.6823                 6.6857                17.3312

                     94                     95                     96
                      A                      A                      A
 Frequencies --   1502.0648              1502.4924              1548.4080
 Red. masses --      1.0895                 1.0726                 1.3852
 Frc consts  --      1.4482                 1.4266                 1.9567
 IR Inten    --     44.8512                 4.9163               113.1901

                     97                     98                     99
                      A                      A                      A
 Frequencies --   1559.9690              1564.5389              1572.4156
 Red. masses --      1.8052                 1.8604                 1.3848
 Frc consts  --      2.5882                 2.6830                 2.0173
 IR Inten    --    231.6361               288.4900                45.1534

                    100                    101                    102
                      A                      A                      A
 Frequencies --   1613.9060              1692.4085              1696.4217
 Red. masses --      5.0203                 8.9244                 9.1340
 Frc consts  --      7.7044                15.0604                15.4874
 IR Inten    --      2.3339               386.4152               405.7835

                    103                    104                    105
                      A                      A                      A
 Frequencies --   2984.1267              2985.6241              2986.7321
 Red. masses --      1.0430                 1.0771                 1.0442
 Frc consts  --      5.4723                 5.6571                 5.4881
 IR Inten    --    160.0217                72.9580               132.4084

                    106                    107                    108
                      A                      A                      A
 Frequencies --   3019.1230              3022.8705              3025.6608
 Red. masses --      1.0366                 1.1013                 1.0963
 Frc consts  --      5.5671                 5.9293                 5.9131
 IR Inten    --     47.2997                76.5061                78.2661

                    109                    110                    111
                      A                      A                      A
 Frequencies --   3037.4361              3051.0900              3082.1816
 Red. masses --      1.0343                 1.0830                 1.0993
 Frc consts  --      5.6220                 5.9399                 6.1531
 IR Inten    --     34.5621                 4.6417                46.8367

                    112                    113                    114
                      A                      A                      A
 Frequencies --   3098.4175              3098.6629              3106.7346
 Red. masses --      1.0960                 1.0962                 1.1012
 Frc consts  --      6.1994                 6.2016                 6.2620
 IR Inten    --     15.4736                17.6993                30.2223

                    115                    116                    117
                      A                      A                      A
 Frequencies --   3110.1665              3118.4092              3299.3562
 Red. masses --      1.1017                 1.1030                 1.0714
 Frc consts  --      6.2786                 6.3195                 6.8719
 IR Inten    --     18.5224                10.0858               121.1661

                    118                    119                    120
                      A                      A                      A
 Frequencies --   3357.6450              3399.4822              3400.9656
 Red. masses --      1.0709                 1.0780                 1.0779
 Frc consts  --      7.1130                 7.3397                 7.3460
 IR Inten    --    158.1081               760.3003                 8.8104

 - Thermochemistry -
 -------------------
 Temperature   298.150 Kelvin.  Pressure   1.00000 Atm.
 Atom     1 has atomic number  6 and mass  12.00000

 Molecular mass:   376.07051 amu.
 Principal axes and moments of inertia in atomic units:
                           1         2         3
     Eigenvalues --  3899.99327********************
           X            0.76810   0.35094   0.53559
           Y           -0.45713   0.88624   0.07487
           Z           -0.44839  -0.30234   0.84115
 This molecule is an asymmetric top.
 Rotational symmetry number  1.
 Warning -- assumption of classical behavior for rotation
           may cause significant error
 Rotational temperatures (Kelvin)      0.02221     0.00456     0.00420
 Rotational constants (GHZ):           0.46275     0.09506     0.08752
 Zero-point vibrational energy     836478.5 (Joules/Mol)
                                  199.92317 (Kcal/Mol)
 Warning -- explicit consideration of  41 degrees of freedom as
           vibrations may cause significant error
 Vibrational temperatures:     25.17    31.00    33.89    54.52    65.87
          (Kelvin)             85.79    90.44    98.15   102.06   126.37
                              145.75   188.74   193.79   199.37   203.21
                              209.51   245.61   298.29   310.67   330.85
                              343.85   350.96   379.69   402.67   430.77
                              439.72   450.79   460.43   471.79   500.86
                              518.60   532.68   566.44   618.78   662.99
                              718.78   763.89   779.64   825.22   840.63
                              885.16   919.64  1039.56  1054.35  1066.58
                             1076.78  1089.14  1111.62  1119.76  1129.03
                             1190.13  1214.38  1244.06  1265.51  1298.23
                             1389.36  1416.97  1448.42  1471.46  1481.76
                             1573.66  1595.81  1604.46  1620.37  1632.76
                             1642.26  1643.18  1660.36  1667.44  1685.21
                             1704.49  1713.36  1754.94  1779.03  1791.65
                             1880.69  1891.30  1922.10  1923.57  2001.68
                             2001.81  2021.98  2027.41  2050.48  2051.77
                             2069.01  2080.22  2135.35  2139.94  2141.47
                             2144.10  2146.58  2158.36  2161.14  2161.75
                             2227.81  2244.45  2251.02  2262.36  2322.05
                             2435.00  2440.77  4293.49  4295.65  4297.24
                             4343.84  4349.24  4353.25  4370.19  4389.84
                             4434.57  4457.93  4458.28  4469.90  4474.84
                             4486.70  4747.04  4830.90  4891.10  4893.23

 Zero-point correction=                           0.318598 (Hartree/Particle)
 Thermal correction to Energy=                    0.344844
 Thermal correction to Enthalpy=                  0.345788
 Thermal correction to Gibbs Free Energy=         0.258525
 Sum of electronic and zero-point Energies=          -1984.719938
 Sum of electronic and thermal Energies=             -1984.693692
 Sum of electronic and thermal Enthalpies=           -1984.692748
 Sum of electronic and thermal Free Energies=        -1984.780011

                     E (Thermal)             CV                S
                      KCal/Mol        Cal/Mol-Kelvin    Cal/Mol-Kelvin
 Total                  216.393             92.697            183.660
 Electronic               0.000              0.000              0.000
 Translational            0.889              2.981             43.666
 Rotational               0.889              2.981             35.678
 Vibrational            214.615             86.735            104.316
 Vibration     1          0.593              1.986              6.900
 Vibration     2          0.593              1.985              6.486
 Vibration     3          0.593              1.985              6.309
 Vibration     4          0.594              1.982              5.366
 Vibration     5          0.595              1.979              4.992
 Vibration     6          0.597              1.974              4.469
 Vibration     7          0.597              1.972              4.365
 Vibration     8          0.598              1.969              4.204
 Vibration     9          0.598              1.968              4.127
 Vibration    10          0.601              1.958              3.708
 Vibration    11          0.604              1.948              3.429
 Vibration    12          0.612              1.922              2.929
 Vibration    13          0.613              1.919              2.878
 Vibration    14          0.614              1.915              2.824
 Vibration    15          0.615              1.912              2.787
 Vibration    16          0.617              1.907              2.729
 Vibration    17          0.626              1.879              2.428
 Vibration    18          0.641              1.829              2.067
 Vibration    19          0.645              1.817              1.993
 Vibration    20          0.652              1.795              1.879
 Vibration    21          0.657              1.781              1.810
 Vibration    22          0.659              1.773              1.774
 Vibration    23          0.670              1.739              1.636
 Vibration    24          0.680              1.711              1.534
 Vibration    25          0.692              1.675              1.420
 Vibration    26          0.696              1.663              1.386
 Vibration    27          0.701              1.648              1.345
 Vibration    28          0.706              1.635              1.310
 Vibration    29          0.711              1.620              1.270
 Vibration    30          0.726              1.579              1.175
 Vibration    31          0.735              1.554              1.120
 Vibration    32          0.742              1.533              1.079
 Vibration    33          0.761              1.484              0.986
 Vibration    34          0.791              1.405              0.858
 Vibration    35          0.819              1.337              0.764
 Vibration    36          0.855              1.251              0.659
 Vibration    37          0.886              1.182              0.585
 Vibration    38          0.897              1.157              0.561
 Vibration    39          0.930              1.088              0.497
 Vibration    40          0.941              1.065              0.478
 Vibration    41          0.975              1.000              0.424

 Optimization completed.
    -- Stationary point found.
 Normal termination of Gaussian 16 at Wed Jan 10 20:39:54 2024.
