 Q-Chem 5.4, Q-Chem, Inc., Pleasanton, CA (2021)
 Q-Chem 5.4.0 for Intel X86 EM64T Linux

User input:
--------------------------------------------------------------
$molecule
-2 1
C                 -2.1672860000     -5.4046350000      0.7034000000
C                 -0.9721400000     -5.5961940000     -0.0440370000
C                 -0.2220350000     -4.5671470000     -0.6179470000
C                 -0.6511890000     -3.1919550000     -0.5753430000
C                 -2.5669930000     -4.0244620000      0.7962280000
C                 -1.8577070000     -3.0058400000      0.1491040000
O                 -2.8935790000     -6.3341440000      1.2370410000
O                  0.0347850000     -2.2772330000     -1.1863060000
N                 -3.8221750000     -3.8365880000      1.4715310000
N                  0.9638130000     -4.7698400000     -1.3993440000
C                 -3.8374460000     -3.4150220000      2.8988510000
C                 -2.4761110000     -3.0136810000      3.4798260000
C                 -4.8641050000     -2.2857010000      3.1387990000
C                  2.1793930000     -5.1940460000     -0.6811050000
C                  2.9938160000     -4.0254340000     -0.1080060000
C                  3.0579390000     -6.1019560000     -1.5653020000
N                 -5.4653350000     -1.8534600000      2.0095310000
N                  2.4422890000     -6.4896290000     -2.7066420000
C                  2.9823010000     -7.4750680000     -3.6084760000
C                 -6.3297690000     -0.7024560000      1.9573210000
O                 -5.1143970000     -1.8499940000      4.2677030000
O                  4.1965520000     -6.4533290000     -1.2435500000
Cl                -0.4391990000     -7.2965300000     -0.2816350000
Cl                -2.4983110000     -1.3281540000      0.2042660000
H                 -4.1938750000     -4.7917600000      1.4619900000
H                  1.1172500000     -3.8282310000     -1.7866000000
H                 -4.2096960000     -4.2562390000      3.4993840000
H                 -2.6034970000     -2.7264730000      4.5264260000
H                 -2.0446620000     -2.1757520000      2.9295580000
H                 -1.7863840000     -3.8562330000      3.4091350000
H                  1.8693560000     -5.8410670000      0.1447060000
H                  2.3615490000     -3.4425000000      0.5641450000
H                  3.3281710000     -3.3588210000     -0.9096080000
H                  3.8732570000     -4.3923410000      0.4278100000
H                 -5.0621150000     -2.2814820000      1.1721620000
H                  1.4789640000     -6.1494950000     -2.7587130000
H                  4.0404620000     -7.6094610000     -3.3763900000
H                  2.8824550000     -7.1479080000     -4.6496810000
H                  2.4776560000     -8.4446780000     -3.5029830000
H                 -7.2360170000     -0.9170320000      1.3786460000
H                 -5.8258450000      0.1581670000      1.4986320000
H                 -6.6130520000     -0.4384040000      2.9779340000
$end
$rem
MAX_SCF_CYCLES=200
BASIS  =  6-311++G(d,p)
GUI  =  2
JOB_TYPE  =  SP
METHOD  =  B3LYP
SOLVENT_METHOD = COSMO
$end
$solvent
dielectric 37.219
opticaldielectric 1.43
$end

--------------------------------------------------------------

             Standard Nuclear Orientation (Angstroms)
    I     Atom           X                Y                Z
 ----------------------------------------------------------------
    1      C       0.4035278391    -1.5580125420     0.2852005710
    2      C      -0.9393994221    -1.0887501596     0.2935712597
    3      C      -1.3088252819     0.2580869461     0.3164245358
    4      C      -0.3365075855     1.3165126800     0.4235438917
    5      C       1.3780816919    -0.4991781231     0.3339314099
    6      C       1.0023416797     0.8449973638     0.4409761847
    7      O       0.7815847689    -2.7962677809     0.2775755583
    8      O      -0.7250904821     2.5495882620     0.5188349982
    9      N       2.7330172200    -0.9722403532     0.4186336882
   10      N      -2.6649468062     0.7239335067     0.3591164124
   11      C       3.5789043593    -1.0140674258    -0.8052612917
   12      C       2.9753297373    -0.3413406548    -2.0442027344
   13      C       4.9883807121    -0.4432697007    -0.5322484091
   14      C      -3.4685457950     0.5711606474    -0.8673997297
   15      C      -3.3073712027     1.7344029383    -1.8564757716
   16      C      -4.9540857734     0.3303634908    -0.5310432536
   17      N       5.1378291885     0.0531698216     0.7146553420
   18      N      -5.1704287058     0.0959677539     0.7843375457
   19      C      -6.4386272181    -0.3288634274     1.3202466305
   20      C       6.3006915334     0.7850296031     1.1469916226
   21      O       5.8869920528    -0.4699449634    -1.3800084017
   22      O      -5.8441432149     0.3293056427    -1.3861593452
   23      Cl     -2.2267183491    -2.3433107090     0.3161376045
   24      Cl      2.2800107266     2.0937728992     0.6311553489
   25      H       2.5819222898    -1.9509174224     0.6831464222
   26      H      -2.5309002438     1.7274237648     0.5466702775
   27      H       3.7547603237    -2.0674058709    -1.0629603169
   28      H       3.6750368058    -0.4327392247    -2.8785548831
   29      H       2.7750960871     0.7156013220    -1.8602237591
   30      H       2.0312153078    -0.8254726454    -2.2989154832
   31      H      -3.1510582870    -0.3523064890    -1.3604849696
   32      H      -2.2540496667     1.8347076448    -2.1244557749
   33      H      -3.6237804792     2.6769496301    -1.3979751417
   34      H      -3.9086437341     1.5658447813    -2.7538026327
   35      H       4.2564294835     0.0569476750     1.2343632703
   36      H      -4.2987803308     0.0715328479     1.3191549243
   37      H      -7.2089043170    -0.1396657448     0.5702416175
   38      H      -6.6827829188     0.2267143372     2.2328429721
   39      H      -6.4421622395    -1.4007218930     1.5590893288
   40      H       6.6398442715     0.4392780129     2.1306705900
   41      H       6.0962547674     1.8614888289     1.2136856145
   42      H       7.0981195452     0.6251890088     0.4188548477
 ----------------------------------------------------------------

   10   -1985.0385850912      7.35e-06  Convergence criterion met
 Total energy in the final basis set =    -1985.0385850912
    5   -1985.2970927704      4.84e-06  Convergence criterion met
 Total energy in the final basis set =    -1985.2970927704

                    Orbital Energies (a.u.)
 --------------------------------------------------------------

 Alpha MOs
 -- Occupied --
********-101.5300 -19.0882 -19.0870 -19.0359 -19.0349 -14.3249 -14.3235
-14.2957 -14.2935 -10.2639 -10.2619 -10.2020 -10.2017 -10.1919 -10.1917
-10.1899 -10.1897 -10.1896 -10.1891 -10.1764 -10.1726 -10.1522 -10.1516
 -9.4456  -9.4447  -7.2096  -7.2087  -7.2010  -7.2002  -7.2001  -7.1993
 -1.0348  -1.0331  -0.9614  -0.9552  -0.9213  -0.9194  -0.8955  -0.8912
 -0.8401  -0.8311  -0.7775  -0.7554  -0.7372  -0.7052  -0.7042  -0.6728
 -0.6577  -0.6275  -0.6126  -0.5658  -0.5623  -0.5532  -0.5427  -0.5161
 -0.5024  -0.4968  -0.4758  -0.4706  -0.4661  -0.4573  -0.4434  -0.4385
 -0.4357  -0.4265  -0.4244  -0.4121  -0.4109  -0.4031  -0.3911  -0.3871
 -0.3866  -0.3828  -0.3821  -0.3810  -0.3727  -0.3710  -0.3605  -0.3598
 -0.3524  -0.3470  -0.3396  -0.3349  -0.3219  -0.3091  -0.2991  -0.2960
 -0.2831  -0.2800  -0.2552  -0.2531  -0.2485  -0.2459  -0.2245  -0.2221
 -0.2176  -0.1940  -0.1326

          Ground-State Mulliken Net Atomic Charges

     Atom                 Charge (a.u.)
  ----------------------------------------
      1 C                    -0.669755
      2 C                     0.046062
      3 C                    -0.238097
      4 C                    -0.641393
      5 C                    -0.183836
      6 C                     0.208843
      7 O                    -0.662328
      8 O                    -0.655555
      9 N                    -0.117853
     10 N                     0.095286
     11 C                     0.106962
     12 C                    -0.568316
     13 C                    -0.145349
     14 C                     0.036054
     15 C                    -0.645382
     16 C                    -0.101157
     17 N                    -0.197985
     18 N                    -0.253825
     19 C                    -0.304364
     20 C                    -0.328535
     21 O                    -0.519983
     22 O                    -0.511271
     23 Cl                    0.304444
     24 Cl                    0.303162
     25 H                     0.277067
     26 H                     0.261367
     27 H                     0.219707
     28 H                     0.174723
     29 H                     0.122047
     30 H                     0.172045
     31 H                     0.164143
     32 H                     0.185048
     33 H                     0.173368
     34 H                     0.163894
     35 H                     0.338993
     36 H                     0.361848
     37 H                     0.172968
     38 H                     0.169044
     39 H                     0.173891
     40 H                     0.171265
     41 H                     0.175860
     42 H                     0.166856
  ----------------------------------------
  Sum of atomic charges =    -2.000034

                    Cartesian Multipole Moments
 -----------------------------------------------------------------
    Charge (ESU x 10^10)
                -9.6066
    Dipole Moment (Debye)
         X      -0.8258      Y       1.4973      Z       2.8582
       Tot       3.3307
    Quadrupole Moments (Debye-Ang)
        XX    -256.9936     XY      12.4335     YY    -221.1574
        XZ      -1.2820     YZ      -2.3380     ZZ    -172.1694

 Total job time:  212.47s(wall), 1266.40s(cpu)
        *  Thank you very much for using Q-Chem.  Have a nice day.  *
