 Gaussian 16, Revision A.03,
 Gaussian 16:  ES64L-G16RevA.03 25-Dec-2016

 ----------------------------------------------------------------------
 #P UB3LYP/genecp nosym opt freq SCRF=(PCM,Solvent=n,n-DiMethylFormamid
 e)
 ----------------------------------------------------------------------

 -------
 Reduced
 -------
 Symbolic Z-matrix:
 Charge = -2 Multiplicity = 1

 SCF Done:  E(UB3LYP) =  -976.241316103     A.U. after   17 cycles
 SCF Done:  E(UB3LYP) =  -976.242111653     A.U. after   12 cycles
 SCF Done:  E(UB3LYP) =  -976.242336380     A.U. after   13 cycles
 SCF Done:  E(UB3LYP) =  -976.242338011     A.U. after   11 cycles
 SCF Done:  E(UB3LYP) =  -976.242338136     A.U. after   10 cycles
 Optimization completed.
    -- Stationary point found.
 Normal termination of Gaussian 16 at Sat Feb 10 10:26:59 2024.

 ------------------------------------------------------------------
 #P Geom=AllCheck Guess=TCheck SCRF=Check GenChk UB3LYP/GenECP Freq
 ------------------------------------------------------------------

 Structure from the checkpoint file:  "013-an.chk"
 -------
 Reduced
 -------
 Charge = -2 Multiplicity = 1

                          Input orientation:
 ---------------------------------------------------------------------
 Center     Atomic      Atomic             Coordinates (Angstroms)
 Number     Number       Type             X           Y           Z
 ---------------------------------------------------------------------
      1         53           0       -2.807617   -2.022924    0.005947
      2          6           0       -1.076679   -0.755186    0.000968
      3          6           0       -1.289234    0.622477   -0.016549
      4          6           0       -0.207210    1.551741   -0.019389
      5          8           0       -0.380695    2.846888   -0.036278
      6          6           0        1.081118    0.940107   -0.003021
      7          6           0        1.236635   -0.444702    0.013962
      8         53           0        3.234287   -1.222188    0.038128
      9          6           0        0.190222   -1.420422    0.017196
     10          8           0        0.365940   -2.699372    0.031425
     11          1           0       -2.299335    1.017611   -0.028501
     12          1           0        1.952569    1.585971   -0.003888
 ---------------------------------------------------------------------

 SCF Done:  E(UB3LYP) =  -976.242338136     A.U. after    1 cycles

 Alpha  occ. eigenvalues --  -19.02664 -19.02015 -10.19405 -10.18179 -10.18091
 Alpha  occ. eigenvalues --  -10.18062 -10.13813 -10.13810  -6.82078  -6.82066
 Alpha  occ. eigenvalues --   -4.84394  -4.84382  -4.83430  -4.83419  -4.83386
 Alpha  occ. eigenvalues --   -4.83374  -1.89216  -1.89206  -1.88898  -1.88887
 Alpha  occ. eigenvalues --   -1.88866  -1.88854  -1.88034  -1.88033  -1.88023
 Alpha  occ. eigenvalues --   -1.88022  -0.94342  -0.92837  -0.80341  -0.73809
 Alpha  occ. eigenvalues --   -0.68735  -0.65663  -0.65200  -0.55009  -0.53144
 Alpha  occ. eigenvalues --   -0.44846  -0.44259  -0.37786  -0.37593  -0.37096
 Alpha  occ. eigenvalues --   -0.36676  -0.33058  -0.32212  -0.30621  -0.28361
 Alpha  occ. eigenvalues --   -0.25934  -0.24843  -0.24813  -0.22741  -0.21094
 Alpha  occ. eigenvalues --   -0.20591  -0.20027  -0.13179
 Alpha virt. eigenvalues --   -0.02987   0.00371   0.00637   0.00664   0.02345
 Alpha virt. eigenvalues --    0.03321   0.05556   0.05983   0.06627   0.06783
 Alpha virt. eigenvalues --    0.07259   0.09195   0.10283   0.10361   0.11850

  Beta  occ. eigenvalues --  -19.02664 -19.02015 -10.19405 -10.18179 -10.18091
  Beta  occ. eigenvalues --  -10.18062 -10.13813 -10.13810  -6.82078  -6.82066
  Beta  occ. eigenvalues --   -4.84394  -4.84382  -4.83430  -4.83419  -4.83386
  Beta  occ. eigenvalues --   -4.83374  -1.89216  -1.89206  -1.88898  -1.88887
  Beta  occ. eigenvalues --   -1.88866  -1.88854  -1.88034  -1.88033  -1.88023
  Beta  occ. eigenvalues --   -1.88022  -0.94342  -0.92837  -0.80341  -0.73809
  Beta  occ. eigenvalues --   -0.68735  -0.65663  -0.65200  -0.55009  -0.53144
  Beta  occ. eigenvalues --   -0.44846  -0.44259  -0.37786  -0.37593  -0.37096
  Beta  occ. eigenvalues --   -0.36676  -0.33058  -0.32212  -0.30621  -0.28361
  Beta  occ. eigenvalues --   -0.25934  -0.24843  -0.24813  -0.22741  -0.21094
  Beta  occ. eigenvalues --   -0.20591  -0.20027  -0.13179
  Beta virt. eigenvalues --   -0.02987   0.00371   0.00637   0.00664   0.02345
  Beta virt. eigenvalues --    0.03321   0.05556   0.05983   0.06627   0.06783
  Beta virt. eigenvalues --    0.07259   0.09195   0.10283   0.10361   0.11850

 Mulliken charges and spin densities:
               1          2
     1  I   -0.229453  -0.000000
     2  C    1.433614  -0.000000
     3  C   -0.504918   0.000000
     4  C   -0.175318  -0.000000
     5  O   -0.731040  -0.000000
     6  C   -0.509181   0.000000
     7  C    1.429436  -0.000000
     8  I   -0.229333   0.000000
     9  C   -2.147947   0.000000
    10  O   -0.577193  -0.000000
    11  H    0.120630  -0.000000
    12  H    0.120703   0.000000
 Sum of Mulliken charges =  -2.00000   0.00000

 Dipole moment (field-independent basis, Debye):
    X=             -0.2513    Y=              1.7813    Z=             -0.0150  Tot=              1.7990
 Quadrupole moment (field-independent basis, Debye-Ang):
   XX=           -127.6917   YY=           -171.0707   ZZ=           -109.4639
   XY=              5.9500   XZ=             -0.1941   YZ=              0.7393

  Exact polarizability: 336.851   6.562 287.996   1.198  -1.503 153.878
 Approx polarizability: 348.317   2.341 330.082   1.210  -1.825 170.946

                      1                      2                      3
                      A                      A                      A
 Frequencies --     78.0293                94.8497               156.2904
 Red. masses --     16.7838                34.8928                11.6553
 Frc consts  --      0.0602                 0.1850                 0.1677
 IR Inten    --     14.5783                 9.5206                11.6261

                      4                      5                      6
                      A                      A                      A
 Frequencies --    175.4885               182.9096               200.0243
 Red. masses --      5.0016                13.6539                19.9879
 Frc consts  --      0.0908                 0.2691                 0.4712
 IR Inten    --      0.0864                 0.5450                 9.4815

                      7                      8                      9
                      A                      A                      A
 Frequencies --    231.6011               332.0003               415.9777
 Red. masses --     16.3739                 9.2434                 9.5049
 Frc consts  --      0.5175                 0.6003                 0.9690
 IR Inten    --     11.9596                 0.4170                12.6225

                     10                     11                     12
                      A                      A                      A
 Frequencies --    476.1682               482.0223               592.2139
 Red. masses --      5.5910                12.8103                 6.4016
 Frc consts  --      0.7469                 1.7537                 1.3228
 IR Inten    --      0.0062                 0.0021                18.8902

                     13                     14                     15
                      A                      A                      A
 Frequencies --    596.3028               686.7643               711.7311
 Red. masses --      2.1673                 9.4433                 9.7441
 Frc consts  --      0.4540                 2.6241                 2.9082
 IR Inten    --      6.0739               141.1196                 8.8687

                     16                     17                     18
                      A                      A                      A
 Frequencies --    805.0301               823.4233               831.7040
 Red. masses --      8.4518                 1.4194                 1.6840
 Frc consts  --      3.2272                 0.5670                 0.6863
 IR Inten    --    380.5521                17.4403                53.6043

                     19                     20                     21
                      A                      A                      A
 Frequencies --    867.9327              1007.7589              1106.6654
 Red. masses --      9.4258                 2.6044                 5.7536
 Frc consts  --      4.1835                 1.5584                 4.1517
 IR Inten    --     40.3846                76.0364               297.4871

                     22                     23                     24
                      A                      A                      A
 Frequencies --   1199.8443              1261.7246              1344.4787
 Red. masses --      1.8891                 2.1913                10.3893
 Frc consts  --      1.6023                 2.0553                11.0648
 IR Inten    --    144.8792               492.3944                64.5801

                     25                     26                     27
                      A                      A                      A
 Frequencies --   1376.2342              1420.1668              1425.0278
 Red. masses --      3.3074                 7.1689                 4.3269
 Frc consts  --      3.6908                 8.5188                 5.1770
 IR Inten    --     33.4945               181.8333              1874.1833

                     28                     29                     30
                      A                      A                      A
 Frequencies --   1579.5073              3164.1117              3166.0101
 Red. masses --      7.9467                 1.0892                 1.0887
 Frc consts  --     11.6810                 6.4250                 6.4294
 IR Inten    --    100.1034                15.2795                43.7041

 - Thermochemistry -
 -------------------
 Temperature   298.150 Kelvin.  Pressure   1.00000 Atm.
 Atom     1 has atomic number 53 and mass 126.90040

 Molecular mass:   359.80628 amu.
 Principal axes and moments of inertia in atomic units:
                           1         2         3
     Eigenvalues --  1990.084378689.30800**********
           X            0.99133  -0.13120  -0.00692
           Y            0.13127   0.99127   0.01196
           Z            0.00529  -0.01277   0.99990
 This molecule is an asymmetric top.
 Rotational symmetry number  1.
 Warning -- assumption of classical behavior for rotation
           may cause significant error
 Rotational temperatures (Kelvin)      0.04352     0.00997     0.00811
 Rotational constants (GHZ):           0.90687     0.20770     0.16899
 Zero-point vibrational energy     160251.7 (Joules/Mol)
                                   38.30108 (Kcal/Mol)
 Warning -- explicit consideration of  13 degrees of freedom as
           vibrations may cause significant error
 Vibrational temperatures:    112.27   136.47   224.87   252.49   263.17
          (Kelvin)            287.79   333.22   477.67   598.50   685.10
                              693.52   852.06   857.95   988.10  1024.02
                             1158.26  1184.72  1196.64  1248.76  1449.94
                             1592.24  1726.31  1815.34  1934.40  1980.09
                             2043.30  2050.30  2272.56  4552.45  4555.18

 Zero-point correction=                           0.061037 (Hartree/Particle)
 Thermal correction to Energy=                    0.070398
 Thermal correction to Enthalpy=                  0.071342
 Thermal correction to Gibbs Free Energy=         0.022861
 Sum of electronic and zero-point Energies=           -976.181301
 Sum of electronic and thermal Energies=              -976.171940
 Sum of electronic and thermal Enthalpies=            -976.170996
 Sum of electronic and thermal Free Energies=         -976.219477

                     E (Thermal)             CV                S
                      KCal/Mol        Cal/Mol-Kelvin    Cal/Mol-Kelvin
 Total                   44.175             32.443            102.036
 Electronic               0.000              0.000              0.000
 Translational            0.889              2.981             43.535
 Rotational               0.889              2.981             33.579
 Vibrational             42.398             26.482             24.923
 Vibration     1          0.599              1.964              3.940
 Vibration     2          0.603              1.953              3.557
 Vibration     3          0.620              1.896              2.594
 Vibration     4          0.627              1.873              2.376
 Vibration     5          0.630              1.863              2.299
 Vibration     6          0.638              1.840              2.133
 Vibration     7          0.653              1.793              1.867
 Vibration     8          0.714              1.612              1.250
 Vibration     9          0.779              1.436              0.906
 Vibration    10          0.833              1.303              0.720
 Vibration    11          0.838              1.290              0.705
 Vibration    12          0.950              1.048              0.463
 Vibration    13          0.954              1.040              0.456

 Optimization completed.
    -- Stationary point found.
 Normal termination of Gaussian 16 at Sat Feb 10 10:40:10 2024.
