 Q-Chem 5.4, Q-Chem, Inc., Pleasanton, CA (2021)
 Q-Chem 5.4.0 for Intel X86 EM64T Linux

User input:
--------------------------------------------------------------
$molecule
-1 2
C                 -1.6033300000     -1.3928630000     -0.1354240000
C                 -0.2789120000     -0.6702350000     -0.0985750000
C                 -0.2091530000      0.6889790000      0.1351120000
C                 -1.4543420000      1.5105520000      0.3637250000
C                  1.0698610000      1.3965510000      0.1723600000
O                  1.1493830000      2.6438380000      0.3856570000
C                  2.2465710000      0.5881260000     -0.0493870000
C                  2.1774520000     -0.7584080000     -0.2809000000
C                  0.9225970000     -1.4732550000     -0.3210810000
O                  0.8740010000     -2.7217170000     -0.5368700000
H                 -1.4292080000     -2.4512210000     -0.3337140000
H                 -2.2639910000     -0.9926840000     -0.9154220000
H                 -2.1458060000     -1.2974080000      0.8141240000
H                 -2.0203710000      1.1581010000      1.2357410000
H                 -2.1375290000      1.4616550000     -0.4940980000
H                 -1.1723930000      2.5514700000      0.5272990000
H                  3.2006460000      1.1081210000     -0.0229710000
H                  3.0745230000     -1.3496040000     -0.4455740000
$end
$rem
MAX_SCF_CYCLES=200
BASIS  =  6-311++G(d,p)
GUI  =  2
JOB_TYPE  =  SP
METHOD  =  B3LYP
SOLVENT_METHOD = COSMO
$end
$solvent
dielectric 37.219
opticaldielectric 1.43
$end

--------------------------------------------------------------

             Standard Nuclear Orientation (Angstroms)
    I     Atom           X                Y                Z
 ----------------------------------------------------------------
    1      C      -1.4748487254    -1.9317004968    -0.0000106512
    2      C      -0.6904565627    -0.6423746856    -0.0000498963
    3      C       0.6904629243    -0.6423553893    -0.0000462244
    4      C       1.4749251318    -1.9316810980     0.0000277455
    5      C       1.4578102408     0.6022732528    -0.0000425442
    6      O       2.7256044748     0.6178292915     0.0000525919
    7      C       0.6839929334     1.8223453454    -0.0000267537
    8      C      -0.6840456324     1.8223159407    -0.0000237287
    9      C      -1.4578298574     0.6022586510    -0.0000116716
   10      O      -2.7256404989     0.6177505539     0.0000754488
   11      H      -2.5413342532    -1.7028620478     0.0007858509
   12      H      -1.2463233778    -2.5473492951     0.8796289293
   13      H      -1.2475991908    -2.5465830438    -0.8805277574
   14      H       1.2469987073    -2.5470941039    -0.8799374912
   15      H       1.2471251925    -2.5467703046     0.8802368959
   16      H       2.5414025868    -1.7027972918    -0.0000992016
   17      H       1.2484682429     2.7511722053    -0.0000259213
   18      H      -1.2485124299     2.7511559962     0.0000167171
 ----------------------------------------------------------------

   10    -460.2955419427      3.39e-06  Convergence criterion met
 Total energy in the final basis set =     -460.2955419427
    4    -460.3832256994      8.10e-06  Convergence criterion met
 Total energy in the final basis set =     -460.3832256994

                    Orbital Energies (a.u.)
 --------------------------------------------------------------

 Alpha MOs
 -- Occupied --
-19.0782 -19.0782 -10.2176 -10.2176 -10.1670 -10.1664 -10.1603 -10.1596
-10.1508 -10.1508  -0.9995  -0.9971  -0.8261  -0.7691  -0.7215  -0.6621
 -0.6595  -0.5673  -0.5492  -0.4851  -0.4626  -0.4317  -0.4305  -0.4014
 -0.3986  -0.3935  -0.3862  -0.3862  -0.3811  -0.3669  -0.3481  -0.3392
 -0.2800  -0.2475  -0.2404  -0.2375  -0.1621

 Beta MOs
 -- Occupied --
-19.0714 -19.0714 -10.2160 -10.2160 -10.1662 -10.1655 -10.1590 -10.1584
-10.1509 -10.1509  -0.9875  -0.9849  -0.8206  -0.7662  -0.7184  -0.6578
 -0.6528  -0.5633  -0.5451  -0.4829  -0.4584  -0.4257  -0.4252  -0.3994
 -0.3937  -0.3881  -0.3849  -0.3806  -0.3696  -0.3459  -0.3412  -0.3371
 -0.2498  -0.2411  -0.2316  -0.2310

          Ground-State Mulliken Net Atomic Charges

     Atom                 Charge (a.u.)    Spin (a.u.)
  --------------------------------------------------------
      1 C                    -0.540492       0.004962
      2 C                     0.545449       0.059323
      3 C                     0.545762       0.059351
      4 C                    -0.540469       0.004959
      5 C                    -0.589825       0.123282
      6 O                    -0.552182       0.236720
      7 C                    -0.057609       0.079935
      8 C                    -0.057435       0.079938
      9 C                    -0.589725       0.123297
     10 O                    -0.552212       0.236718
     11 H                     0.181279      -0.001883
     12 H                     0.157948       0.002921
     13 H                     0.158023       0.002927
     14 H                     0.157940       0.002924
     15 H                     0.157952       0.002925
     16 H                     0.181287      -0.001883
     17 H                     0.197153      -0.008209
     18 H                     0.197158      -0.008208
  --------------------------------------------------------
  Sum of atomic charges =    -1.000000

                    Cartesian Multipole Moments
 -----------------------------------------------------------------
    Charge (ESU x 10^10)
                -4.8032
    Dipole Moment (Debye)
         X       0.0005      Y      -3.7311      Z      -0.0010
       Tot       3.7311
    Quadrupole Moments (Debye-Ang)
        XX    -105.7931     XY      -0.0008     YY     -61.0867
        XZ       0.0013     YZ      -0.0009     ZZ     -63.3652

 Total job time:  31.50s(wall), 195.90s(cpu)
        *  Thank you very much for using Q-Chem.  Have a nice day.  *
