 Gaussian 16, Revision A.03,
 Gaussian 16:  ES64L-G16RevA.03 25-Dec-2016

 ----------------------------------------------------------------------
 #P UB3LYP/6-311++G(d,p) nosym opt freq SCRF=(PCM,Solvent=n,n-DiMethylF
 ormamide)
 ----------------------------------------------------------------------

 -------
 Radical
 -------
 Symbolic Z-matrix:
 Charge = -1 Multiplicity = 2

 SCF Done:  E(UB3LYP) =  -669.412852676     A.U. after   20 cycles
 SCF Done:  E(UB3LYP) =  -669.412921953     A.U. after   17 cycles
 SCF Done:  E(UB3LYP) =  -669.413396288     A.U. after   15 cycles
 SCF Done:  E(UB3LYP) =  -669.413420024     A.U. after   14 cycles
 SCF Done:  E(UB3LYP) =  -669.413448792     A.U. after   14 cycles
 SCF Done:  E(UB3LYP) =  -669.413451204     A.U. after   11 cycles
 SCF Done:  E(UB3LYP) =  -669.413452116     A.U. after   12 cycles
 SCF Done:  E(UB3LYP) =  -669.413452379     A.U. after   11 cycles
 SCF Done:  E(UB3LYP) =  -669.413452445     A.U. after   10 cycles
 Optimization completed.
    -- Stationary point found.
 Normal termination of Gaussian 16 at Sun Feb 11 01:43:42 2024.

 ----------------------------------------------------------------------
 #P Geom=AllCheck Guess=TCheck SCRF=Check GenChk UB3LYP/6-311++G(d,p) F
 req
 ----------------------------------------------------------------------

 Structure from the checkpoint file:  "274-rad.chk"
 -------
 Radical
 -------
 Charge = -1 Multiplicity = 2

                          Input orientation:
 ---------------------------------------------------------------------
 Center     Atomic      Atomic             Coordinates (Angstroms)
 Number     Number       Type             X           Y           Z
 ---------------------------------------------------------------------
      1          6           0       -1.703858    3.079706    0.291635
      2          6           0       -2.878000    2.365180    0.134634
      3          6           0       -2.831737    0.987076   -0.150467
      4          6           0       -0.443355    2.454756    0.165291
      5          6           0       -0.400566    1.062667   -0.117594
      6          6           0       -1.606976    0.352901   -0.271313
      7          6           0        0.775783    3.247496    0.359863
      8          6           0        2.046293    2.553685    0.160107
      9          6           0        2.058620    1.186474   -0.106713
     10          6           0        0.892327    0.376606   -0.246887
     11          8           0        0.707541    4.463163    0.714486
     12          8           0        0.960017   -0.867964   -0.495949
     13          7           0        3.238384    3.276396    0.336712
     14          6           0        3.403663    4.509373   -0.441298
     15          6           0        4.482094    2.525833    0.434798
     16          1           0       -1.726949    4.139387    0.514845
     17          1           0       -3.835386    2.866311    0.231433
     18          1           0       -3.751993    0.426176   -0.273433
     19          1           0       -1.550547   -0.707172   -0.488169
     20          1           0        3.000317    0.668995   -0.241145
     21          1           0        2.479037    5.077880   -0.431757
     22          1           0        3.690392    4.287791   -1.482047
     23          1           0        4.195352    5.114743    0.007417
     24          1           0        4.390485    1.728125    1.173447
     25          1           0        5.271152    3.206902    0.760423
     26          1           0        4.796813    2.079303   -0.522689
 ---------------------------------------------------------------------

 SCF Done:  E(UB3LYP) =  -669.413452445     A.U. after    1 cycles

 Alpha  occ. eigenvalues --  -19.07206 -19.06736 -14.32287 -10.21861 -10.21688
 Alpha  occ. eigenvalues --  -10.20197 -10.18769 -10.18125 -10.17058 -10.17034
 Alpha  occ. eigenvalues --  -10.16958 -10.16870 -10.16765 -10.16706 -10.14983
 Alpha  occ. eigenvalues --   -0.99665  -0.98691  -0.93266  -0.85421  -0.79441
 Alpha  occ. eigenvalues --   -0.74697  -0.73766  -0.70978  -0.68103  -0.64349
 Alpha  occ. eigenvalues --   -0.61228  -0.58427  -0.55462  -0.50944  -0.50503
 Alpha  occ. eigenvalues --   -0.48094  -0.46011  -0.45892  -0.44413  -0.42656
 Alpha  occ. eigenvalues --   -0.41993  -0.41073  -0.40940  -0.40057  -0.39319
 Alpha  occ. eigenvalues --   -0.38677  -0.37935  -0.37038  -0.36375  -0.34935
 Alpha  occ. eigenvalues --   -0.34828  -0.33429  -0.28726  -0.25741  -0.25398
 Alpha  occ. eigenvalues --   -0.23978  -0.23386  -0.21199  -0.14523
 Alpha virt. eigenvalues --   -0.03154  -0.01021  -0.00302   0.00469   0.01338
 Alpha virt. eigenvalues --    0.02255   0.02379   0.02859   0.04269   0.04486
 Alpha virt. eigenvalues --    0.04588   0.04792   0.05297   0.05842   0.06289

  Beta  occ. eigenvalues --  -19.06564 -19.06210 -14.32194 -10.21622 -10.21547
  Beta  occ. eigenvalues --  -10.20053 -10.18775 -10.18118 -10.17023 -10.17016
  Beta  occ. eigenvalues --  -10.16899 -10.16805 -10.16756 -10.16678 -10.14933
  Beta  occ. eigenvalues --   -0.98569  -0.97752  -0.93005  -0.85219  -0.78990
  Beta  occ. eigenvalues --   -0.74503  -0.73587  -0.70897  -0.67562  -0.63891
  Beta  occ. eigenvalues --   -0.61060  -0.58164  -0.55216  -0.50754  -0.50309
  Beta  occ. eigenvalues --   -0.47849  -0.45824  -0.45634  -0.44331  -0.42468
  Beta  occ. eigenvalues --   -0.41816  -0.40761  -0.39875  -0.39627  -0.39067
  Beta  occ. eigenvalues --   -0.38513  -0.37536  -0.36749  -0.34784  -0.34404
  Beta  occ. eigenvalues --   -0.34005  -0.33278  -0.27245  -0.24740  -0.24261
  Beta  occ. eigenvalues --   -0.23406  -0.22851  -0.20242
  Beta virt. eigenvalues --   -0.08108  -0.02423  -0.00451   0.00133   0.00558
  Beta virt. eigenvalues --    0.01356   0.02272   0.02393   0.02886   0.04302
  Beta virt. eigenvalues --    0.04528   0.04665   0.05179   0.05346   0.06268

 Mulliken charges and spin densities:
               1          2
     1  C    0.169035   0.067738
     2  C   -0.459969   0.011287
     3  C   -0.384472   0.051588
     4  C    0.056836  -0.010036
     5  C    0.689068   0.061065
     6  C    0.108094   0.006788
     7  C   -0.798047   0.160328
     8  C   -0.622380   0.090425
     9  C    0.441732   0.018858
    10  C   -0.291967   0.086021
    11  O   -0.483725   0.242436
    12  O   -0.518499   0.188496
    13  N    0.080211   0.028204
    14  C   -0.408883   0.007483
    15  C   -0.367546  -0.002785
    16  H    0.169595  -0.003186
    17  H    0.175994  -0.001255
    18  H    0.180975  -0.003783
    19  H    0.156716  -0.000850
    20  H    0.184897  -0.005564
    21  H    0.176299  -0.002767
    22  H    0.137490   0.003494
    23  H    0.154336   0.001368
    24  H    0.155374   0.000212
    25  H    0.159138  -0.000263
    26  H    0.139698   0.004696
 Sum of Mulliken charges =  -1.00000   1.00000

 Dipole moment (field-independent basis, Debye):
    X=             -2.1437    Y=             -7.2744    Z=             -0.9099  Tot=              7.6381
 Quadrupole moment (field-independent basis, Debye-Ang):
   XX=            -83.4174   YY=           -137.1158   ZZ=            -97.8535
   XY=              1.3586   XZ=             -0.6799   YZ=            -11.2600

  Exact polarizability: 344.513  26.915 317.230  -1.247  34.109 144.165
 Approx polarizability: 348.851  21.728 369.571   1.389  44.794 162.357

                      1                      2                      3
                      A                      A                      A
 Frequencies --     54.6602                91.0720               126.0593
 Red. masses --      4.6557                 3.0066                 4.3773
 Frc consts  --      0.0082                 0.0147                 0.0410
 IR Inten    --     15.4155                 7.8718                 1.5872

                      4                      5                      6
                      A                      A                      A
 Frequencies --    153.0257               187.2418               198.3650
 Red. masses --      4.2059                 2.5286                 3.6025
 Frc consts  --      0.0580                 0.0522                 0.0835
 IR Inten    --      6.2184                17.2028                 0.3006

                      7                      8                      9
                      A                      A                      A
 Frequencies --    227.3235               272.2108               280.3582
 Red. masses --      1.5077                 3.8312                 1.6246
 Frc consts  --      0.0459                 0.1673                 0.0752
 IR Inten    --      2.5595                16.8471                14.7736

                     10                     11                     12
                      A                      A                      A
 Frequencies --    302.0758               331.9355               376.1497
 Red. masses --      2.6758                 2.8246                 9.8328
 Frc consts  --      0.1439                 0.1834                 0.8197
 IR Inten    --      3.5711                 3.9769                39.7166

                     13                     14                     15
                      A                      A                      A
 Frequencies --    390.5338               416.3573               450.3010
 Red. masses --      3.8917                 3.7148                 4.6372
 Frc consts  --      0.3497                 0.3794                 0.5540
 IR Inten    --      3.5661                 3.5908                 2.9691

                     16                     17                     18
                      A                      A                      A
 Frequencies --    467.9469               479.4335               530.6915
 Red. masses --      3.9527                 7.7919                 4.2062
 Frc consts  --      0.5100                 1.0552                 0.6980
 IR Inten    --      7.3309                 2.0226                 4.5421

                     19                     20                     21
                      A                      A                      A
 Frequencies --    546.8157               636.0517               658.1239
 Red. masses --      4.4149                 5.8575                 3.3243
 Frc consts  --      0.7778                 1.3962                 0.8483
 IR Inten    --      4.5616                22.7120                 2.9965

                     22                     23                     24
                      A                      A                      A
 Frequencies --    687.8364               719.2879               725.4349
 Red. masses --      5.8293                 3.1810                 5.5816
 Frc consts  --      1.6249                 0.9697                 1.7306
 IR Inten    --      0.0731                66.6264                17.5769

                     25                     26                     27
                      A                      A                      A
 Frequencies --    776.1408               786.7668               835.7139
 Red. masses --      2.3264                 2.5268                 3.6295
 Frc consts  --      0.8257                 0.9215                 1.4935
 IR Inten    --     49.1887                32.8255                15.7073

                     28                     29                     30
                      A                      A                      A
 Frequencies --    848.5969               866.5265               881.1114
 Red. masses --      1.8807                 5.0826                 1.4570
 Frc consts  --      0.7979                 2.2485                 0.6665
 IR Inten    --     54.3958                22.4145                 0.0929

                     31                     32                     33
                      A                      A                      A
 Frequencies --    979.2927               995.4548               998.6876
 Red. masses --      1.3749                 1.2876                 3.5643
 Frc consts  --      0.7768                 0.7518                 2.0945
 IR Inten    --      2.3323                 1.0276               206.0825

                     34                     35                     36
                      A                      A                      A
 Frequencies --   1040.0636              1063.0703              1100.5148
 Red. masses --      1.9666                 1.5429                 2.7229
 Frc consts  --      1.2534                 1.0274                 1.9430
 IR Inten    --      8.4889                28.2794                11.2053

                     37                     38                     39
                      A                      A                      A
 Frequencies --   1113.4889              1135.3603              1151.4866
 Red. masses --      1.2938                 1.9926                 1.5673
 Frc consts  --      0.9451                 1.5134                 1.2244
 IR Inten    --     33.6005                18.6638               314.4478

                     40                     41                     42
                      A                      A                      A
 Frequencies --   1159.3754              1171.4482              1216.0284
 Red. masses --      1.4260                 1.6126                 2.5686
 Frc consts  --      1.1293                 1.3038                 2.2379
 IR Inten    --      1.0526                18.7484                 8.4569

                     43                     44                     45
                      A                      A                      A
 Frequencies --   1230.3695              1246.7632              1304.0165
 Red. masses --      2.2229                 2.7461                 1.8685
 Frc consts  --      1.9826                 2.5150                 1.8721
 IR Inten    --    150.2405                46.9849                75.4618

                     46                     47                     48
                      A                      A                      A
 Frequencies --   1336.5133              1355.1984              1397.7109
 Red. masses --      3.3549                 8.2858                 3.6864
 Frc consts  --      3.5308                 8.9658                 4.2432
 IR Inten    --    144.3843                49.2758               167.9900

                     49                     50                     51
                      A                      A                      A
 Frequencies --   1424.7444              1444.5957              1459.5562
 Red. masses --      1.3646                 1.7532                 1.9722
 Frc consts  --      1.6321                 2.1556                 2.4754
 IR Inten    --    139.5800               333.3744               462.5590

                     52                     53                     54
                      A                      A                      A
 Frequencies --   1469.6545              1477.9879              1481.1965
 Red. masses --      2.5397                 1.6995                 1.1104
 Frc consts  --      3.2320                 2.1874                 1.4354
 IR Inten    --     83.8442                30.2913                70.3856

                     55                     56                     57
                      A                      A                      A
 Frequencies --   1492.3395              1500.6415              1513.7409
 Red. masses --      1.2973                 1.0911                 3.0716
 Frc consts  --      1.7023                 1.4477                 4.1468
 IR Inten    --     93.1904                83.7623               742.5180

                     58                     59                     60
                      A                      A                      A
 Frequencies --   1517.5661              1544.2272              1607.1779
 Red. masses --      1.3825                 4.0357                 7.1820
 Frc consts  --      1.8760                 5.6701                10.9301
 IR Inten    --    130.9853               141.7038                90.8315

                     61                     62                     63
                      A                      A                      A
 Frequencies --   1625.1271              2942.3200              2945.3915
 Red. masses --      5.9127                 1.0587                 1.0611
 Frc consts  --      9.2004                 5.4004                 5.4238
 IR Inten    --     20.7107                64.2699               345.9468

                     64                     65                     66
                      A                      A                      A
 Frequencies --   3060.6815              3063.3587              3108.0460
 Red. masses --      1.0804                 1.0717                 1.1037
 Frc consts  --      5.9630                 5.9254                 6.2814
 IR Inten    --     77.4949                78.6416                36.2980

                     67                     68                     69
                      A                      A                      A
 Frequencies --   3156.6087              3161.0006              3171.0641
 Red. masses --      1.0859                 1.0956                 1.0903
 Frc consts  --      6.3749                 6.4500                 6.4599
 IR Inten    --     11.6859                 7.9176                24.4069

                     70                     71                     72
                      A                      A                      A
 Frequencies --   3184.7776              3187.3587              3190.7509
 Red. masses --      1.0881                 1.0915                 1.0943
 Frc consts  --      6.5022                 6.5335                 6.5640
 IR Inten    --     24.7623                20.4437                34.3460

 - Thermochemistry -
 -------------------
 Temperature   298.150 Kelvin.  Pressure   1.00000 Atm.
 Atom     1 has atomic number  6 and mass  12.00000

 Molecular mass:   201.07898 amu.
 Principal axes and moments of inertia in atomic units:
                           1         2         3
     Eigenvalues --  1624.673153901.006675394.74387
           X            0.93598  -0.35166   0.01682
           Y            0.35009   0.92462  -0.15007
           Z            0.03722   0.14635   0.98853
 This molecule is an asymmetric top.
 Rotational symmetry number  1.
 Warning -- assumption of classical behavior for rotation
           may cause significant error
 Rotational temperatures (Kelvin)      0.05331     0.02220     0.01606
 Rotational constants (GHZ):           1.11083     0.46263     0.33454
 Zero-point vibrational energy     532511.1 (Joules/Mol)
                                  127.27321 (Kcal/Mol)
 Warning -- explicit consideration of  19 degrees of freedom as
           vibrations may cause significant error
 Vibrational temperatures:     78.64   131.03   181.37   220.17   269.40
          (Kelvin)            285.40   327.07   391.65   403.37   434.62
                              477.58   541.20   561.89   599.05   647.88
                              673.27   689.80   763.55   786.75   915.14
                              946.89   989.64  1034.89  1043.74  1116.69
                             1131.98  1202.41  1220.94  1246.74  1267.72
                             1408.98  1432.24  1436.89  1496.42  1529.52
                             1583.40  1602.06  1633.53  1656.73  1668.08
                             1685.45  1749.59  1770.23  1793.81  1876.19
                             1922.94  1949.83  2010.99  2049.89  2078.45
                             2099.98  2114.51  2126.49  2131.11  2147.14
                             2159.09  2177.94  2183.44  2221.80  2312.37
                             2338.20  4233.34  4237.76  4403.64  4407.49
                             4471.78  4541.66  4547.97  4562.45  4582.18
                             4585.90  4590.78

 Zero-point correction=                           0.202823 (Hartree/Particle)
 Thermal correction to Energy=                    0.215481
 Thermal correction to Enthalpy=                  0.216425
 Thermal correction to Gibbs Free Energy=         0.163556
 Sum of electronic and zero-point Energies=           -669.210630
 Sum of electronic and thermal Energies=              -669.197971
 Sum of electronic and thermal Enthalpies=            -669.197027
 Sum of electronic and thermal Free Energies=         -669.249897

                     E (Thermal)             CV                S
                      KCal/Mol        Cal/Mol-Kelvin    Cal/Mol-Kelvin
 Total                  135.216             49.931            111.273
 Electronic               0.000              0.000              1.377
 Translational            0.889              2.981             41.800
 Rotational               0.889              2.981             31.903
 Vibrational            133.439             43.970             36.192
 Vibration     1          0.596              1.976              4.641
 Vibration     2          0.602              1.956              3.637
 Vibration     3          0.611              1.927              3.005
 Vibration     4          0.619              1.899              2.634
 Vibration     5          0.632              1.857              2.255
 Vibration     6          0.637              1.842              2.148
 Vibration     7          0.651              1.799              1.900
 Vibration     8          0.675              1.725              1.582
 Vibration     9          0.680              1.710              1.531
 Vibration    10          0.694              1.670              1.405
 Vibration    11          0.714              1.612              1.251
 Vibration    12          0.747              1.521              1.055
 Vibration    13          0.758              1.490              0.998
 Vibration    14          0.780              1.435              0.904
 Vibration    15          0.809              1.360              0.795
 Vibration    16          0.825              1.321              0.743
 Vibration    17          0.836              1.296              0.712
 Vibration    18          0.886              1.182              0.586
 Vibration    19          0.902              1.147              0.551

                           ! Non-Optimized Parameters !
 Normal termination of Gaussian 16 at Sun Feb 11 02:08:18 2024.
