 Q-Chem 5.4, Q-Chem, Inc., Pleasanton, CA (2021)
 Q-Chem 5.4.0 for Intel X86 EM64T Linux

User input:
--------------------------------------------------------------
$molecule
0 1
C                  0.6663020000      1.2416750000     -1.4506380000
C                 -0.7682650000      0.9529790000     -1.7370600000
C                 -1.5348930000      0.2465000000     -0.8986380000
C                 -0.9929900000     -0.2920570000      0.3814170000
C                  0.4580310000     -0.0604920000      0.6349470000
C                  1.2257110000      0.6424010000     -0.2055350000
O                  1.3133230000      1.9467770000     -2.1970990000
O                 -1.6760850000     -0.8721720000      1.1998580000
S                  3.0175400000      0.7683970000      0.1636720000
C                  3.3412180000      2.5247400000      0.3643990000
C                  3.7483070000      3.2723410000     -0.7387850000
C                  3.2151800000      3.0867440000      1.6346590000
C                  3.4904390000      4.4420820000      1.7954920000
C                  4.0252430000      4.6250910000     -0.5596820000
C                  3.8934990000      5.2074340000      0.7010180000
O                  3.7286320000      0.2748940000     -1.0132670000
O                  3.1776830000      0.1295560000      1.4736890000
H                  3.8429910000      2.7998880000     -1.7069310000
H                  2.9294320000      2.4683230000      2.4761550000
H                  4.3472750000      5.2220500000     -1.4046710000
H                  3.4028440000      4.8954620000      2.7757910000
H                  4.1110230000      6.2613190000      0.8324710000
S                 -3.2542690000     -0.1308870000     -1.4126540000
C                 -4.3028740000      0.6257060000     -0.1645730000
C                 -4.7182750000      1.9442090000     -0.3499210000
C                 -4.7085260000     -0.1307720000      0.9330970000
C                 -5.5461810000      0.4604800000      1.8751480000
C                 -5.5511000000      2.5223620000      0.6043970000
C                 -5.9623720000      1.7819470000      1.7128820000
H                 -1.1632520000      1.3531780000     -2.6649180000
H                  0.8614000000     -0.4897730000      1.5460490000
H                 -4.4115890000      2.4914230000     -1.2323770000
H                 -4.3730380000     -1.1534080000      1.0387250000
H                 -5.8758270000     -0.1131480000      2.7332600000
H                 -5.8881330000      3.5440790000      0.4751060000
H                 -6.6145350000      2.2353130000      2.4507250000
O                 -3.4042010000     -1.5830760000     -1.3573300000
O                 -3.4428590000      0.6070030000     -2.6655680000
$end

$rem
BASIS  =  6-311++G(d,p)
GUI  =  2
JOB_TYPE  =  SP
METHOD  =  B3LYP
SCF_CONVERGENCE  = 8
SOLVENT_METHOD = sm12
$end

$smx
solvent dimethylformamide
charges CM5
$end

--------------------------------------------------------------

             Standard Nuclear Orientation (Angstroms)
    I     Atom           X                Y                Z
 ----------------------------------------------------------------
    1      C       0.6663020000     1.2416750000    -1.4506380000
    2      C      -0.7682650000     0.9529790000    -1.7370600000
    3      C      -1.5348930000     0.2465000000    -0.8986380000
    4      C      -0.9929900000    -0.2920570000     0.3814170000
    5      C       0.4580310000    -0.0604920000     0.6349470000
    6      C       1.2257110000     0.6424010000    -0.2055350000
    7      O       1.3133230000     1.9467770000    -2.1970990000
    8      O      -1.6760850000    -0.8721720000     1.1998580000
    9      S       3.0175400000     0.7683970000     0.1636720000
   10      C       3.3412180000     2.5247400000     0.3643990000
   11      C       3.7483070000     3.2723410000    -0.7387850000
   12      C       3.2151800000     3.0867440000     1.6346590000
   13      C       3.4904390000     4.4420820000     1.7954920000
   14      C       4.0252430000     4.6250910000    -0.5596820000
   15      C       3.8934990000     5.2074340000     0.7010180000
   16      O       3.7286320000     0.2748940000    -1.0132670000
   17      O       3.1776830000     0.1295560000     1.4736890000
   18      H       3.8429910000     2.7998880000    -1.7069310000
   19      H       2.9294320000     2.4683230000     2.4761550000
   20      H       4.3472750000     5.2220500000    -1.4046710000
   21      H       3.4028440000     4.8954620000     2.7757910000
   22      H       4.1110230000     6.2613190000     0.8324710000
   23      S      -3.2542690000    -0.1308870000    -1.4126540000
   24      C      -4.3028740000     0.6257060000    -0.1645730000
   25      C      -4.7182750000     1.9442090000    -0.3499210000
   26      C      -4.7085260000    -0.1307720000     0.9330970000
   27      C      -5.5461810000     0.4604800000     1.8751480000
   28      C      -5.5511000000     2.5223620000     0.6043970000
   29      C      -5.9623720000     1.7819470000     1.7128820000
   30      H      -1.1632520000     1.3531780000    -2.6649180000
   31      H       0.8614000000    -0.4897730000     1.5460490000
   32      H      -4.4115890000     2.4914230000    -1.2323770000
   33      H      -4.3730380000    -1.1534080000     1.0387250000
   34      H      -5.8758270000    -0.1131480000     2.7332600000
   35      H      -5.8881330000     3.5440790000     0.4751060000
   36      H      -6.6145350000     2.2353130000     2.4507250000
   37      O      -3.4042010000    -1.5830760000    -1.3573300000
   38      O      -3.4428590000     0.6070030000    -2.6655680000
 ----------------------------------------------------------------

   15   -1941.0348609995      4.22e-09  Convergence criterion met
 Total energy in the final basis set =    -1941.0744486212

                    Orbital Energies (a.u.)
 --------------------------------------------------------------

 Alpha MOs
 -- Occupied --
-89.0731 -89.0731 -19.1670 -19.1670 -19.1366 -19.1366 -19.1365 -19.1364
-10.3183 -10.3183 -10.2588 -10.2588 -10.2455 -10.2455 -10.2264 -10.2264
-10.2052 -10.2052 -10.2032 -10.2032 -10.1971 -10.1970 -10.1950 -10.1949
-10.1944 -10.1943  -8.1370  -8.1369  -6.0994  -6.0994  -6.0990  -6.0990
 -6.0980  -6.0979  -1.1336  -1.1333  -1.1004  -1.0987  -1.0302  -1.0302
 -0.9009  -0.8874  -0.8870  -0.8410  -0.7942  -0.7908  -0.7734  -0.7733
 -0.7471  -0.7237  -0.6865  -0.6584  -0.6492  -0.6323  -0.6322  -0.6122
 -0.5928  -0.5658  -0.5585  -0.5542  -0.5343  -0.5265  -0.5047  -0.4992
 -0.4954  -0.4906  -0.4883  -0.4798  -0.4761  -0.4749  -0.4646  -0.4640
 -0.4627  -0.4623  -0.4484  -0.4472  -0.4467  -0.4418  -0.3971  -0.3967
 -0.3896  -0.3890  -0.3702  -0.3701  -0.3642  -0.3600  -0.3544  -0.3522
 -0.3428  -0.3412  -0.3330  -0.3303  -0.3251  -0.3217  -0.3158  -0.2965
 -0.2840  -0.2835  -0.2782  -0.2776

          Ground-State Mulliken Net Atomic Charges

     Atom                 Charge (a.u.)
  ----------------------------------------
      1 C                    -0.452141
      2 C                    -0.056938
      3 C                     0.432712
      4 C                    -0.449352
      5 C                    -0.059070
      6 C                     0.437447
      7 O                    -0.195395
      8 O                    -0.195504
      9 S                    -0.377366
     10 C                    -0.257944
     11 C                    -0.790219
     12 C                     0.224792
     13 C                    -0.105157
     14 C                    -0.110172
     15 C                     0.240227
     16 O                    -0.203553
     17 O                    -0.154112
     18 H                     0.227836
     19 H                     0.300508
     20 H                     0.294882
     21 H                     0.304323
     22 H                     0.307884
     23 S                    -0.370754
     24 C                    -0.255054
     25 C                     0.223617
     26 C                    -0.791447
     27 C                    -0.111677
     28 C                    -0.103300
     29 C                     0.240195
     30 H                     0.363797
     31 H                     0.363881
     32 H                     0.300787
     33 H                     0.227922
     34 H                     0.294778
     35 H                     0.304442
     36 H                     0.307983
     37 O                    -0.203994
     38 O                    -0.154865
  ----------------------------------------
  Sum of atomic charges =     0.000000

                    Cartesian Multipole Moments
 -----------------------------------------------------------------
    Charge (ESU x 10^10)
                 0.0000
    Dipole Moment (Debye)
         X      -2.4361      Y       8.4329      Z       4.8646
       Tot      10.0355
    Quadrupole Moments (Debye-Ang)
        XX    -160.8633     XY       1.6886     YY    -136.9166
        XZ     -16.7932     YZ       5.4638     ZZ    -168.8698

 Total job time:  1662.05s(wall), 12638.54s(cpu)
        *  Thank you very much for using Q-Chem.  Have a nice day.  *
