 Q-Chem 5.4, Q-Chem, Inc., Pleasanton, CA (2021)
 Q-Chem 5.4.0 for Intel X86 EM64T Linux

User input:
--------------------------------------------------------------
$molecule
-1 2
C                 -2.1949330000     -3.8644980000      1.2071330000
C                 -0.7561110000     -3.8674730000      1.3897640000
C                 -0.0178930000     -2.7361080000      1.5864910000
C                 -0.6137980000     -1.4186920000      1.6289290000
C                 -2.0602370000     -1.3852650000      1.4374620000
C                 -2.7866120000     -2.5329590000      1.2471670000
O                 -2.8579090000     -4.9159620000      1.0352530000
O                  0.0530510000     -0.3669920000      1.8136910000
Cl                -4.5419950000     -2.4446400000      1.0503480000
C                 -2.6911470000     -0.0290870000      1.4429410000
O                 -2.9231360000      0.6494380000      0.4716580000
O                 -2.9711480000      0.3798080000      2.7044040000
C                 -3.5084010000      1.7016530000      2.8188320000
H                 -0.2867440000     -4.8464510000      1.3624610000
H                  1.0586040000     -2.7815080000      1.7221240000
H                 -3.6597080000      1.8650380000      3.8851970000
H                 -4.4561320000      1.7830530000      2.2817400000
H                 -2.8071200000      2.4356070000      2.4163050000
$end
$rem
MAX_SCF_CYCLES=200
BASIS  =  6-311++G(d,p)
GUI  =  2
JOB_TYPE  =  SP
METHOD  =  B3LYP
SOLVENT_METHOD = PCM
$end
$pcm
theory = CPCM
$end
$solvent
dielectric 37.219
opticaldielectric 1.43
$end

--------------------------------------------------------------

             Standard Nuclear Orientation (Angstroms)
    I     Atom           X                Y                Z
 ----------------------------------------------------------------
    1      C      -2.1949330000    -3.8644980000     1.2071330000
    2      C      -0.7561110000    -3.8674730000     1.3897640000
    3      C      -0.0178930000    -2.7361080000     1.5864910000
    4      C      -0.6137980000    -1.4186920000     1.6289290000
    5      C      -2.0602370000    -1.3852650000     1.4374620000
    6      C      -2.7866120000    -2.5329590000     1.2471670000
    7      O      -2.8579090000    -4.9159620000     1.0352530000
    8      O       0.0530510000    -0.3669920000     1.8136910000
    9      Cl     -4.5419950000    -2.4446400000     1.0503480000
   10      C      -2.6911470000    -0.0290870000     1.4429410000
   11      O      -2.9231360000     0.6494380000     0.4716580000
   12      O      -2.9711480000     0.3798080000     2.7044040000
   13      C      -3.5084010000     1.7016530000     2.8188320000
   14      H      -0.2867440000    -4.8464510000     1.3624610000
   15      H       1.0586040000    -2.7815080000     1.7221240000
   16      H      -3.6597080000     1.8650380000     3.8851970000
   17      H      -4.4561320000     1.7830530000     2.2817400000
   18      H      -2.8071200000     2.4356070000     2.4163050000
 ----------------------------------------------------------------

    9   -1069.2974763637      7.69e-06  Convergence criterion met
 Total energy in the final basis set =    -1069.2974763637

                    Orbital Energies (a.u.)
 --------------------------------------------------------------

 Alpha MOs
 -- Occupied --
******** -19.1779 -19.1304 -19.0944 -19.0940 -10.3194 -10.2420 -10.2420
-10.2412 -10.2193 -10.1987 -10.1780 -10.1763  -9.4724  -7.2366  -7.2277
 -7.2271  -1.1210  -1.0362  -1.0208  -1.0175  -0.8841  -0.8256  -0.7745
 -0.7252  -0.6975  -0.6346  -0.5890  -0.5699  -0.5266  -0.5062  -0.4941
 -0.4787  -0.4746  -0.4472  -0.4336  -0.4282  -0.4223  -0.4089  -0.3954
 -0.3943  -0.3819  -0.3669  -0.3555  -0.3218  -0.3180  -0.3065  -0.2937
 -0.2650  -0.2624  -0.2566  -0.1791

 Beta MOs
 -- Occupied --
******** -19.1778 -19.1303 -19.0874 -19.0872 -10.3195 -10.2407 -10.2406
-10.2396 -10.2193 -10.1975 -10.1772 -10.1752  -9.4724  -7.2367  -7.2275
 -7.2270  -1.1209  -1.0360  -1.0089  -1.0055  -0.8809  -0.8212  -0.7721
 -0.7240  -0.6878  -0.6313  -0.5850  -0.5686  -0.5248  -0.5040  -0.4935
 -0.4774  -0.4715  -0.4445  -0.4290  -0.4188  -0.4124  -0.4066  -0.3927
 -0.3800  -0.3683  -0.3661  -0.3446  -0.3213  -0.3178  -0.3044  -0.2640
 -0.2570  -0.2559  -0.2504

          Ground-State Mulliken Net Atomic Charges

     Atom                 Charge (a.u.)    Spin (a.u.)
  --------------------------------------------------------
      1 C                    -0.539612       0.128074
      2 C                    -0.001014       0.066478
      3 C                     0.166883       0.097089
      4 C                    -0.763855       0.067524
      5 C                     0.608809       0.090896
      6 C                     0.438524       0.051025
      7 O                    -0.447529       0.250709
      8 O                    -0.446188       0.248166
      9 Cl                    0.437177       0.009014
     10 C                    -0.928421       0.000442
     11 O                    -0.239785       0.002577
     12 O                    -0.013167      -0.000572
     13 C                    -0.259004       0.001306
     14 H                     0.219719      -0.005630
     15 H                     0.216823      -0.007146
     16 H                     0.179347       0.000295
     17 H                     0.182669       0.000032
     18 H                     0.188622      -0.000280
  --------------------------------------------------------
  Sum of atomic charges =    -1.000000

                    Cartesian Multipole Moments
 -----------------------------------------------------------------
    Charge (ESU x 10^10)
                -4.8032
    Dipole Moment (Debye)
         X       9.5912      Y      11.4992      Z      -4.3574
       Tot      15.5952
    Quadrupole Moments (Debye-Ang)
        XX    -114.2344     XY     -43.2878     YY    -133.4473
        XZ       2.1917     YZ      15.7287     ZZ     -90.2191

 Total job time:  30.32s(wall), 189.14s(cpu)
        *  Thank you very much for using Q-Chem.  Have a nice day.  *
