 Q-Chem 5.4, Q-Chem, Inc., Pleasanton, CA (2021)
 Q-Chem 5.4.0 for Intel X86 EM64T Linux

User input:
--------------------------------------------------------------
$molecule
-2 1
C                 -0.8014290000      3.7904200000     -0.1332010000
C                 -1.8533490000      3.1112850000      0.4496360000
C                 -1.6826620000      1.7610260000      0.8649680000
C                  0.4701140000      3.1884060000     -0.3406010000
C                  0.6385420000      1.8034320000      0.0726640000
C                 -0.4563840000      1.1443430000      0.6704780000
C                  1.5346760000      3.9386680000     -0.9448370000
C                  2.7534860000      3.2209840000     -1.0914600000
C                  2.9174200000      1.8580640000     -0.7422480000
C                  1.8941450000      1.0897280000     -0.1141740000
O                  1.4270430000      5.1751860000     -1.3624710000
O                  2.0603470000     -0.1423520000      0.2600920000
N                  3.8357260000      3.9603520000     -1.6286110000
H                 -0.9054550000      4.8224010000     -0.4564170000
H                 -2.8122640000      3.6091690000      0.5947040000
H                 -2.5067590000      1.2193670000      1.3276440000
H                 -0.2903450000      0.1132370000      0.9709520000
H                  3.4426420000      4.7666270000     -2.1127750000
H                  4.4473840000      3.3789240000     -2.1899510000
N                  4.2123410000      1.2602200000     -1.0464260000
C                  5.0241780000      1.0368400000      0.1470930000
C                  4.1252850000      0.0609050000     -1.8764220000
H                  5.1323930000      1.9847460000      0.6811750000
H                  6.0309520000      0.6924120000     -0.1436640000
H                  4.5751860000      0.2940220000      0.8263550000
H                  3.5753060000      0.3042790000     -2.7912190000
H                  3.6047800000     -0.7649930000     -1.3691830000
H                  5.1411290000     -0.2581420000     -2.1630260000
$end

$rem
BASIS  =  6-311++G(d,p)
GUI  =  2
JOB_TYPE  =  SP
METHOD  =  B3LYP
SCF_CONVERGENCE  = 8
SOLVENT_METHOD = sm12
$end

$smx
solvent dimethylformamide
charges CM5
$end

--------------------------------------------------------------

             Standard Nuclear Orientation (Angstroms)
    I     Atom           X                Y                Z
 ----------------------------------------------------------------
    1      C      -0.8014290000     3.7904200000    -0.1332010000
    2      C      -1.8533490000     3.1112850000     0.4496360000
    3      C      -1.6826620000     1.7610260000     0.8649680000
    4      C       0.4701140000     3.1884060000    -0.3406010000
    5      C       0.6385420000     1.8034320000     0.0726640000
    6      C      -0.4563840000     1.1443430000     0.6704780000
    7      C       1.5346760000     3.9386680000    -0.9448370000
    8      C       2.7534860000     3.2209840000    -1.0914600000
    9      C       2.9174200000     1.8580640000    -0.7422480000
   10      C       1.8941450000     1.0897280000    -0.1141740000
   11      O       1.4270430000     5.1751860000    -1.3624710000
   12      O       2.0603470000    -0.1423520000     0.2600920000
   13      N       3.8357260000     3.9603520000    -1.6286110000
   14      H      -0.9054550000     4.8224010000    -0.4564170000
   15      H      -2.8122640000     3.6091690000     0.5947040000
   16      H      -2.5067590000     1.2193670000     1.3276440000
   17      H      -0.2903450000     0.1132370000     0.9709520000
   18      H       3.4426420000     4.7666270000    -2.1127750000
   19      H       4.4473840000     3.3789240000    -2.1899510000
   20      N       4.2123410000     1.2602200000    -1.0464260000
   21      C       5.0241780000     1.0368400000     0.1470930000
   22      C       4.1252850000     0.0609050000    -1.8764220000
   23      H       5.1323930000     1.9847460000     0.6811750000
   24      H       6.0309520000     0.6924120000    -0.1436640000
   25      H       4.5751860000     0.2940220000     0.8263550000
   26      H       3.5753060000     0.3042790000    -2.7912190000
   27      H       3.6047800000    -0.7649930000    -1.3691830000
   28      H       5.1411290000    -0.2581420000    -2.1630260000
 ----------------------------------------------------------------

   17    -724.6066125518      9.97e-09  Convergence criterion met
 Total energy in the final basis set =     -724.8931461648

                    Orbital Energies (a.u.)
 --------------------------------------------------------------

 Alpha MOs
 -- Occupied --
-19.0254 -19.0243 -14.3074 -14.3017 -10.1911 -10.1875 -10.1862 -10.1758
-10.1751 -10.1742 -10.1705 -10.1684 -10.1674 -10.1639 -10.1535 -10.1519
 -0.9468  -0.9368  -0.9126  -0.8784  -0.8413  -0.7705  -0.7415  -0.7133
 -0.7067  -0.6601  -0.6329  -0.5956  -0.5779  -0.5464  -0.5225  -0.4992
 -0.4807  -0.4527  -0.4508  -0.4500  -0.4379  -0.4266  -0.4168  -0.4022
 -0.3964  -0.3846  -0.3812  -0.3695  -0.3638  -0.3561  -0.3493  -0.3395
 -0.3230  -0.3170  -0.2890  -0.2468  -0.2342  -0.2325  -0.2051  -0.2015
 -0.1937  -0.1207

          Ground-State Mulliken Net Atomic Charges

     Atom                 Charge (a.u.)
  ----------------------------------------
      1 C                    -0.344408
      2 C                     1.611493
      3 C                     1.325018
      4 C                    -1.427981
      5 C                    -1.749676
      6 C                    -0.039266
      7 C                    -1.845754
      8 C                    -0.121556
      9 C                    -0.936149
     10 C                    -2.166839
     11 O                    -0.414869
     12 O                    -0.180700
     13 N                    -0.201379
     14 H                     0.080263
     15 H                     0.397777
     16 H                     0.386810
     17 H                     0.104643
     18 H                     0.276451
     19 H                     0.319116
     20 N                     0.692091
     21 C                     0.465910
     22 C                     0.642084
     23 H                     0.070410
     24 H                     0.339431
     25 H                     0.159583
     26 H                     0.096250
     27 H                     0.150112
     28 H                     0.311134
  ----------------------------------------
  Sum of atomic charges =    -2.000000

                    Cartesian Multipole Moments
 -----------------------------------------------------------------
    Charge (ESU x 10^10)
                -9.6064
    Dipole Moment (Debye)
         X     -13.7685      Y     -25.0292      Z       3.6124
       Tot      28.7938
    Quadrupole Moments (Debye-Ang)
        XX    -153.2246     XY     -32.2805     YY    -220.9559
        XZ       8.8764     YZ      22.3231     ZZ    -115.0574

 Total job time:  728.78s(wall), 5085.83s(cpu)
        *  Thank you very much for using Q-Chem.  Have a nice day.  *
