 Q-Chem 5.4, Q-Chem, Inc., Pleasanton, CA (2021)
 Q-Chem 5.4.0 for Intel X86 EM64T Linux

User input:
--------------------------------------------------------------
$molecule
0 1
F                 -2.7026950000      0.5216270000     -0.0151510000
C                 -1.3947240000      0.3205510000     -0.0084490000
C                 -0.5174920000      1.3342520000     -0.0179250000
F                 -0.9042730000      2.5996590000     -0.0345710000
C                  0.9551690000      1.1035740000     -0.0103230000
O                  1.7454860000      2.0165350000     -0.0188560000
C                  1.3946990000     -0.3206090000      0.0084500000
C                  0.5175220000     -1.3342120000      0.0179250000
F                  0.9042610000     -2.5996340000      0.0345700000
C                 -0.9551850000     -1.1036010000      0.0103230000
O                 -1.7455500000     -2.0166660000      0.0188570000
F                  2.7027820000     -0.5214760000      0.0151490000
$end
$rem
MAX_SCF_CYCLES=200
BASIS  =  6-311++G(d,p)
GUI  =  2
JOB_TYPE  =  SP
METHOD  =  B3LYP
SOLVENT_METHOD = COSMO
$end
$solvent
dielectric 37.219
opticaldielectric 1.43
$end

--------------------------------------------------------------

             Standard Nuclear Orientation (Angstroms)
    I     Atom           X                Y                Z
 ----------------------------------------------------------------
    1      F       2.3855299757    -1.3733659666     0.0000023480
    2      C       1.2646546626    -0.6698724386     0.0000064817
    3      C       1.2643028813     0.6707301759     0.0000046696
    4      F       2.3846998441     1.3748907773    -0.0000061828
    5      C      -0.0005074102     1.4595618927     0.0000053173
    6      O      -0.0010231105     2.6671095291     0.0000032513
    7      C      -1.2646759910     0.6698061942    -0.0000070864
    8      C      -1.2643016984    -0.6706863147    -0.0000052876
    9      F      -2.3846766953    -1.3748857285     0.0000066104
   10      C       0.0004995617    -1.4595987965    -0.0000052699
   11      O       0.0009835317    -2.6672564973    -0.0000030949
   12      F      -2.3854992807     1.3735310810    -0.0000021311
 ----------------------------------------------------------------

    8    -778.5990181887      4.11e-06  Convergence criterion met
 Total energy in the final basis set =     -778.5990181887
    5    -778.6126290956      4.15e-06  Convergence criterion met
 Total energy in the final basis set =     -778.6126290956

                    Orbital Energies (a.u.)
 --------------------------------------------------------------

 Alpha MOs
 -- Occupied --
-24.7470 -24.7470 -24.7470 -24.7470 -19.1781 -19.1781 -10.3316 -10.3316
-10.3237 -10.3237 -10.3229 -10.3229  -1.2993  -1.2984  -1.2862  -1.2854
 -1.1126  -1.1113  -0.9050  -0.8245  -0.7566  -0.6921  -0.6829  -0.6298
 -0.6109  -0.6069  -0.5916  -0.5569  -0.5543  -0.5354  -0.5159  -0.5135
 -0.5050  -0.5030  -0.4792  -0.4569  -0.4539  -0.4468  -0.4441  -0.4437
 -0.3297  -0.3289  -0.3288  -0.3008

          Ground-State Mulliken Net Atomic Charges

     Atom                 Charge (a.u.)
  ----------------------------------------
      1 F                    -0.183063
      2 C                     0.231506
      3 C                     0.231535
      4 F                    -0.183055
      5 C                     0.190509
      6 O                    -0.287223
      7 C                     0.231194
      8 C                     0.231724
      9 F                    -0.183068
     10 C                     0.190306
     11 O                    -0.287253
     12 F                    -0.183112
  ----------------------------------------
  Sum of atomic charges =     0.000000

                    Cartesian Multipole Moments
 -----------------------------------------------------------------
    Charge (ESU x 10^10)
                -0.0000
    Dipole Moment (Debye)
         X       0.0007      Y       0.0004      Z      -0.0000
       Tot       0.0008
    Quadrupole Moments (Debye-Ang)
        XX     -70.4652     XY       0.0087     YY     -84.4717
        XZ       0.0000     YZ       0.0011     ZZ     -59.6487

 Total job time:  13.00s(wall), 89.28s(cpu)
        *  Thank you very much for using Q-Chem.  Have a nice day.  *
