 Q-Chem 5.4, Q-Chem, Inc., Pleasanton, CA (2021)
 Q-Chem 5.4.0 for Intel X86 EM64T Linux

User input:
--------------------------------------------------------------
$molecule
-2 1
C                 -2.0289050000      4.8045230000      5.4312490000
C                 -3.3115750000      4.2946730000      5.4704160000
C                 -3.7624570000      3.4373860000      4.4392160000
C                 -1.1422040000      4.4826330000      4.3744110000
C                 -1.5959050000      3.6111830000      3.3278050000
C                 -2.9116640000      3.1149670000      3.3939070000
C                  0.1834070000      5.0270290000      4.3276890000
C                  0.9914260000      4.6082290000      3.2246050000
C                  0.6157150000      3.7156010000      2.2150230000
C                 -0.7433320000      3.2317380000      2.1889390000
O                  0.6989590000      5.8519650000      5.1781820000
O                 -1.2338880000      2.5251350000      1.2430960000
O                  2.2331240000      5.1866860000      3.2296590000
H                 -1.6607630000      5.4681080000      6.2066730000
H                 -3.9760190000      4.5527580000      6.2917360000
H                 -4.7716720000      3.0349570000      4.4669840000
H                 -3.2314560000      2.4652490000      2.5864760000
H                  2.1710060000      5.7347350000      4.0502380000
C                  2.9687310000      2.8442050000      1.5994630000
C                  3.0664090000      2.0902600000      2.7701760000
C                  4.1213280000      3.0117360000      0.8236160000
C                  5.3350220000      2.4402040000      1.1994050000
C                  5.4189460000      1.6846170000      2.3702420000
C                  4.2779210000      1.5149760000      3.1533340000
H                  2.1840960000      1.9718580000      3.3886370000
H                  4.0540920000      3.5940150000     -0.0901000000
H                  6.2170150000      2.5868420000      0.5822450000
H                  4.3310010000      0.9374230000      4.0714120000
H                  6.3633670000      1.2409650000      2.6711460000
C                  1.6502290000      3.4529150000      1.1087860000
H                  1.9279690000      4.4439220000      0.7233740000
N                  1.1805900000      2.6949660000     -0.0849520000
C                  1.1705260000      1.2317770000      0.0475040000
C                  0.5247300000      0.6068930000     -1.1902830000
C                  0.5405140000     -0.9258290000     -1.1747100000
C                 -0.0850620000     -1.5588180000     -2.4239150000
C                 -0.0476660000     -3.0920460000     -2.4315300000
C                 -0.6523290000     -3.7202350000     -3.6932980000
H                  0.1954620000      2.9443620000     -0.1727770000
H                  0.6148570000      0.9029260000      0.9375630000
H                  2.2012050000      0.8729110000      0.1369820000
H                  1.0464020000      0.9744140000     -2.0836250000
H                 -0.5111890000      0.9602950000     -1.2568910000
H                  0.0101020000     -1.2843460000     -0.2835010000
H                  1.5766890000     -1.2780190000     -1.0759300000
H                  0.4344390000     -1.1831170000     -3.3159790000
H                 -1.1257280000     -1.2214950000     -2.5155080000
H                 -0.5779850000     -3.4712180000     -1.5481300000
H                  0.9929420000     -3.4273360000     -2.3262460000
H                 -0.1288660000     -3.3288140000     -4.5759000000
H                 -1.6965590000     -3.3960310000     -3.7934900000
C                 -0.5949590000     -5.2526640000     -3.7149050000
C                 -1.1834590000     -5.8763240000     -4.9864450000
C                 -1.1116410000     -7.4079340000     -5.0177690000
C                 -1.6883400000     -8.0282150000     -6.2963140000
C                 -1.6079090000     -9.5592460000     -6.3332610000
C                 -2.1775220000    -10.1775640000     -7.6159040000
C                 -2.0917910000    -11.7084370000     -7.6537330000
C                 -2.6577340000    -12.3259030000     -8.9382360000
C                 -2.5684560000    -13.8568490000     -8.9753010000
C                 -3.1325740000    -14.4725870000    -10.2589280000
H                 -1.1263490000     -5.6471650000     -2.8388340000
H                  0.4489620000     -5.5754660000     -3.6055770000
H                 -0.6566730000     -5.4736140000     -5.8617840000
H                 -2.2299230000     -5.5613390000     -5.0926520000
H                 -1.6442420000     -7.8129840000     -4.1472150000
H                 -0.0654800000     -7.7220640000     -4.9051570000
H                 -1.1581340000     -7.6187860000     -7.1663870000
H                 -2.7359960000     -7.7188990000     -6.4074900000
H                 -2.1416000000     -9.9703940000     -5.4661740000
H                 -0.5604440000     -9.8683000000     -6.2186720000
H                 -1.6451770000     -9.7650850000     -8.4831870000
H                 -3.2257230000     -9.8714790000     -7.7308520000
H                 -2.6259610000    -12.1219810000     -6.7880870000
H                 -1.0435710000    -12.0142740000     -7.5377000000
H                 -2.1250210000    -11.9134540000     -9.8050230000
H                 -3.7064670000    -12.0234090000     -9.0558700000
H                 -3.1009150000    -14.2700440000     -8.1091980000
H                 -1.5201780000    -14.1594880000     -8.8572320000
H                 -4.1917850000    -14.2234260000    -10.3894500000
H                 -3.0521880000    -15.5650970000    -10.2503470000
H                 -2.5958940000    -14.1121860000    -11.1438860000
$end

$rem
MAX_SCF_CYCLES=200
BASIS  =  6-311++G(d,p)
GUI  =  2
JOB_TYPE  =  SP
METHOD  =  B3LYP
THRESH      14
SCF_CONVERGENCE  = 5
SOLVENT_METHOD = sm12
$end

$smx
solvent dimethylformamide
charges CM5
$end

--------------------------------------------------------------

             Standard Nuclear Orientation (Angstroms)
    I     Atom           X                Y                Z
 ----------------------------------------------------------------
    1      C      -2.0289050000     4.8045230000     5.4312490000
    2      C      -3.3115750000     4.2946730000     5.4704160000
    3      C      -3.7624570000     3.4373860000     4.4392160000
    4      C      -1.1422040000     4.4826330000     4.3744110000
    5      C      -1.5959050000     3.6111830000     3.3278050000
    6      C      -2.9116640000     3.1149670000     3.3939070000
    7      C       0.1834070000     5.0270290000     4.3276890000
    8      C       0.9914260000     4.6082290000     3.2246050000
    9      C       0.6157150000     3.7156010000     2.2150230000
   10      C      -0.7433320000     3.2317380000     2.1889390000
   11      O       0.6989590000     5.8519650000     5.1781820000
   12      O      -1.2338880000     2.5251350000     1.2430960000
   13      O       2.2331240000     5.1866860000     3.2296590000
   14      H      -1.6607630000     5.4681080000     6.2066730000
   15      H      -3.9760190000     4.5527580000     6.2917360000
   16      H      -4.7716720000     3.0349570000     4.4669840000
   17      H      -3.2314560000     2.4652490000     2.5864760000
   18      H       2.1710060000     5.7347350000     4.0502380000
   19      C       2.9687310000     2.8442050000     1.5994630000
   20      C       3.0664090000     2.0902600000     2.7701760000
   21      C       4.1213280000     3.0117360000     0.8236160000
   22      C       5.3350220000     2.4402040000     1.1994050000
   23      C       5.4189460000     1.6846170000     2.3702420000
   24      C       4.2779210000     1.5149760000     3.1533340000
   25      H       2.1840960000     1.9718580000     3.3886370000
   26      H       4.0540920000     3.5940150000    -0.0901000000
   27      H       6.2170150000     2.5868420000     0.5822450000
   28      H       4.3310010000     0.9374230000     4.0714120000
   29      H       6.3633670000     1.2409650000     2.6711460000
   30      C       1.6502290000     3.4529150000     1.1087860000
   31      H       1.9279690000     4.4439220000     0.7233740000
   32      N       1.1805900000     2.6949660000    -0.0849520000
   33      C       1.1705260000     1.2317770000     0.0475040000
   34      C       0.5247300000     0.6068930000    -1.1902830000
   35      C       0.5405140000    -0.9258290000    -1.1747100000
   36      C      -0.0850620000    -1.5588180000    -2.4239150000
   37      C      -0.0476660000    -3.0920460000    -2.4315300000
   38      C      -0.6523290000    -3.7202350000    -3.6932980000
   39      H       0.1954620000     2.9443620000    -0.1727770000
   40      H       0.6148570000     0.9029260000     0.9375630000
   41      H       2.2012050000     0.8729110000     0.1369820000
   42      H       1.0464020000     0.9744140000    -2.0836250000
   43      H      -0.5111890000     0.9602950000    -1.2568910000
   44      H       0.0101020000    -1.2843460000    -0.2835010000
   45      H       1.5766890000    -1.2780190000    -1.0759300000
   46      H       0.4344390000    -1.1831170000    -3.3159790000
   47      H      -1.1257280000    -1.2214950000    -2.5155080000
   48      H      -0.5779850000    -3.4712180000    -1.5481300000
   49      H       0.9929420000    -3.4273360000    -2.3262460000
   50      H      -0.1288660000    -3.3288140000    -4.5759000000
   51      H      -1.6965590000    -3.3960310000    -3.7934900000
   52      C      -0.5949590000    -5.2526640000    -3.7149050000
   53      C      -1.1834590000    -5.8763240000    -4.9864450000
   54      C      -1.1116410000    -7.4079340000    -5.0177690000
   55      C      -1.6883400000    -8.0282150000    -6.2963140000
   56      C      -1.6079090000    -9.5592460000    -6.3332610000
   57      C      -2.1775220000   -10.1775640000    -7.6159040000
   58      C      -2.0917910000   -11.7084370000    -7.6537330000
   59      C      -2.6577340000   -12.3259030000    -8.9382360000
   60      C      -2.5684560000   -13.8568490000    -8.9753010000
   61      C      -3.1325740000   -14.4725870000   -10.2589280000
   62      H      -1.1263490000    -5.6471650000    -2.8388340000
   63      H       0.4489620000    -5.5754660000    -3.6055770000
   64      H      -0.6566730000    -5.4736140000    -5.8617840000
   65      H      -2.2299230000    -5.5613390000    -5.0926520000
   66      H      -1.6442420000    -7.8129840000    -4.1472150000
   67      H      -0.0654800000    -7.7220640000    -4.9051570000
   68      H      -1.1581340000    -7.6187860000    -7.1663870000
   69      H      -2.7359960000    -7.7188990000    -6.4074900000
   70      H      -2.1416000000    -9.9703940000    -5.4661740000
   71      H      -0.5604440000    -9.8683000000    -6.2186720000
   72      H      -1.6451770000    -9.7650850000    -8.4831870000
   73      H      -3.2257230000    -9.8714790000    -7.7308520000
   74      H      -2.6259610000   -12.1219810000    -6.7880870000
   75      H      -1.0435710000   -12.0142740000    -7.5377000000
   76      H      -2.1250210000   -11.9134540000    -9.8050230000
   77      H      -3.7064670000   -12.0234090000    -9.0558700000
   78      H      -3.1009150000   -14.2700440000    -8.1091980000
   79      H      -1.5201780000   -14.1594880000    -8.8572320000
   80      H      -4.1917850000   -14.2234260000   -10.3894500000
   81      H      -3.0521880000   -15.5650970000   -10.2503470000
   82      H      -2.5958940000   -14.1121860000   -11.1438860000
 ----------------------------------------------------------------

   10   -1565.4726425941      6.57e-06  Convergence criterion met
 Total energy in the final basis set =    -1565.7513193401

                    Orbital Energies (a.u.)
 --------------------------------------------------------------

 Alpha MOs
 -- Occupied --
-19.1150 -19.0267 -19.0209 -14.2831 -10.2008 -10.1868 -10.1850 -10.1840
-10.1836 -10.1829 -10.1823 -10.1779 -10.1776 -10.1758 -10.1695 -10.1683
-10.1643 -10.1638 -10.1633 -10.1630 -10.1621 -10.1617 -10.1615 -10.1612
-10.1611 -10.1608 -10.1607 -10.1606 -10.1605 -10.1604 -10.1603 -10.1602
-10.1579 -10.1570 -10.1464 -10.1440 -10.1380  -1.0315  -0.9477  -0.9351
 -0.8959  -0.8603  -0.8396  -0.8161  -0.8095  -0.7984  -0.7868  -0.7774
 -0.7641  -0.7569  -0.7531  -0.7374  -0.7366  -0.7228  -0.7078  -0.6832
 -0.6629  -0.6442  -0.6368  -0.6177  -0.6142  -0.6040  -0.5950  -0.5863
 -0.5801  -0.5776  -0.5768  -0.5717  -0.5704  -0.5684  -0.5473  -0.5187
 -0.5145  -0.4945  -0.4885  -0.4830  -0.4745  -0.4700  -0.4647  -0.4605
 -0.4547  -0.4520  -0.4439  -0.4404  -0.4366  -0.4350  -0.4302  -0.4282
 -0.4278  -0.4246  -0.4186  -0.4175  -0.4098  -0.4069  -0.4015  -0.3941
 -0.3906  -0.3896  -0.3839  -0.3797  -0.3742  -0.3714  -0.3689  -0.3663
 -0.3627  -0.3594  -0.3580  -0.3533  -0.3495  -0.3472  -0.3456  -0.3416
 -0.3388  -0.3348  -0.3324  -0.3284  -0.3276  -0.3260  -0.3245  -0.3244
 -0.3224  -0.3223  -0.3216  -0.3204  -0.3202  -0.3132  -0.3124  -0.3026
 -0.2919  -0.2628  -0.2537  -0.2446  -0.2344  -0.2294  -0.2133  -0.2011
 -0.1918  -0.1121

          Ground-State Mulliken Net Atomic Charges

     Atom                 Charge (a.u.)
  ----------------------------------------
      1 C                    -0.602723
      2 C                     0.797492
      3 C                     0.586033
      4 C                    -2.147371
      5 C                    -1.607405
      6 C                    -0.574405
      7 C                    -1.765712
      8 C                    -1.034804
      9 C                     0.919310
     10 C                    -2.024442
     11 O                    -0.448092
     12 O                    -0.218253
     13 O                    -0.033911
     14 H                     0.114956
     15 H                     0.361129
     16 H                     0.330798
     17 H                     0.120468
     18 H                     0.304053
     19 C                    -0.809859
     20 C                    -1.609978
     21 C                     0.346780
     22 C                     1.969673
     23 C                     1.498908
     24 C                     1.037202
     25 H                    -0.097103
     26 H                     0.290947
     27 H                     0.411763
     28 H                     0.338562
     29 H                     0.437179
     30 C                    -0.500211
     31 H                     0.012784
     32 N                     0.061135
     33 C                    -3.235606
     34 C                    -0.478919
     35 C                    -0.118740
     36 C                     0.702581
     37 C                     1.594412
     38 C                     1.138235
     39 H                     0.017853
     40 H                    -0.099494
     41 H                    -0.179143
     42 H                     0.080011
     43 H                     0.092061
     44 H                     0.148925
     45 H                     0.240412
     46 H                     0.184122
     47 H                     0.118254
     48 H                     0.102677
     49 H                     0.101336
     50 H                     0.113312
     51 H                     0.110637
     52 C                     0.360211
     53 C                    -0.287016
     54 C                    -0.591265
     55 C                    -0.498657
     56 C                    -0.184196
     57 C                     0.060279
     58 C                     0.109133
     59 C                    -0.051331
     60 C                    -0.107031
     61 C                    -0.488182
     62 H                     0.115492
     63 H                     0.124360
     64 H                     0.121660
     65 H                     0.117423
     66 H                     0.117114
     67 H                     0.120139
     68 H                     0.121542
     69 H                     0.118213
     70 H                     0.114658
     71 H                     0.117458
     72 H                     0.116545
     73 H                     0.115301
     74 H                     0.115246
     75 H                     0.116907
     76 H                     0.106658
     77 H                     0.105034
     78 H                     0.124306
     79 H                     0.125392
     80 H                     0.140976
     81 H                     0.183977
     82 H                     0.141824
  ----------------------------------------
  Sum of atomic charges =    -2.000000

                    Cartesian Multipole Moments
 -----------------------------------------------------------------
    Charge (ESU x 10^10)
                -9.6064
    Dipole Moment (Debye)
         X       2.6546      Y     -38.1465      Z     -30.0731
       Tot      48.6477
    Quadrupole Moments (Debye-Ang)
        XX    -280.3401     XY       5.4498     YY    -424.7217
        XZ      15.1761     YZ    -150.6782     ZZ    -385.0272

 Total job time:  7842.13s(wall), 30629.80s(cpu)
        *  Thank you very much for using Q-Chem.  Have a nice day.  *
