 Q-Chem 5.4, Q-Chem, Inc., Pleasanton, CA (2021)
 Q-Chem 5.4.0 for Intel X86 EM64T Linux

User input:
--------------------------------------------------------------
$molecule
-1 2
C                 -2.8936590000      1.3085910000     -0.7452600000
C                 -2.1732080000      0.0820270000     -0.1527180000
C                 -2.7230090000     -0.1373420000      1.2781290000
C                 -2.5297160000     -1.1407540000     -1.0332700000
C                 -0.6428080000      0.2613820000     -0.1026590000
C                 -0.0359640000      1.4211120000     -0.5552240000
C                  1.3776540000      1.6801530000     -0.5495200000
O                  1.8662200000      2.7614070000     -0.9779740000
C                  2.2212100000      0.6040210000     -0.0118260000
C                  3.6205100000      0.7555470000      0.0396870000
C                  4.4265380000     -0.2493950000      0.5434410000
C                  3.8446400000     -1.4438060000      1.0131080000
C                  2.4718440000     -1.6087500000      0.9696040000
C                  1.6322980000     -0.5966840000      0.4599550000
C                  0.1735390000     -0.8173790000      0.4335570000
O                 -0.3065040000     -1.9044570000      0.8649610000
H                 -2.5807140000      1.5088980000     -1.7741180000
H                 -3.9733600000      1.1233000000     -0.7542550000
H                 -2.7147830000      2.2120400000     -0.1550250000
H                 -2.2631150000     -1.0143940000      1.7322810000
H                 -3.8111900000     -0.2775100000      1.2490410000
H                 -2.5110900000      0.7346190000      1.9057950000
H                 -3.6177600000     -1.2814380000     -1.0645480000
H                 -2.0651950000     -2.0431800000     -0.6372270000
H                 -2.1790110000     -0.9870110000     -2.0592080000
H                 -0.6278760000      2.2345090000     -0.9576100000
H                  4.0358400000      1.6866140000     -0.3295960000
H                  5.5045620000     -0.1201490000      0.5777600000
H                  4.4752220000     -2.2347370000      1.4093400000
H                  1.9988870000     -2.5172350000      1.3242860000
$end
$rem
MAX_SCF_CYCLES=200
BASIS  =  6-311++G(d,p)
GUI  =  2
JOB_TYPE  =  SP
METHOD  =  B3LYP
SOLVENT_METHOD = COSMO
$end
$solvent
dielectric 37.219
opticaldielectric 1.43
$end

--------------------------------------------------------------

             Standard Nuclear Orientation (Angstroms)
    I     Atom           X                Y                Z
 ----------------------------------------------------------------
    1      C       3.4735453568    -1.2505266237     0.0001279447
    2      C       2.6632113151     0.0601883149     0.0000841379
    3      C       3.0660762295     0.8592277273     1.2637941178
    4      C       3.0661431543     0.8594945343    -1.2634104816
    5      C       1.1411196830    -0.1848327616    -0.0000383550
    6      C       0.6154496519    -1.4661287502    -0.0000569629
    7      C      -0.7838126449    -1.7940245183    -0.0001814192
    8      O      -1.1964635261    -2.9861230985    -0.0002474895
    9      C      -1.7068675960    -0.6509010804    -0.0000977854
   10      C      -3.0994947139    -0.8612433758     0.0000944770
   11      C      -3.9798264484     0.2057025744     0.0002653425
   12      C      -3.4816540636     1.5238961433     0.0002508431
   13      C      -2.1165664321     1.7479579386     0.0000296919
   14      C      -1.2021077561     0.6743553684    -0.0001404167
   15      C       0.2451992493     0.9619025356    -0.0002681620
   16      O       0.6489131467     2.1599444048    -0.0004678767
   17      H       3.2671056660    -1.8587391872    -0.8853472854
   18      H       4.5431021392    -1.0134285426     0.0009665146
   19      H       3.2657443580    -1.8592608638     0.8849191314
   20      H       2.5387017924     1.8120264971     1.2958479551
   21      H       4.1473472104     1.0475972903     1.2648150739
   22      H       2.8208618725     0.2919142961     2.1677939217
   23      H       4.1474730622     1.0474685843    -1.2646079083
   24      H       2.5389972281     1.8124510224    -1.2949320152
   25      H       2.8204666146     0.2926734307    -2.1675877658
   26      H       1.2672956169    -2.3315684130     0.0000707981
   27      H      -3.4494487191    -1.8875410393     0.0001363485
   28      H      -5.0518206494     0.0300709777     0.0004706261
   29      H      -4.1707120725     2.3637796607     0.0004532316
   30      H      -1.7072009938     2.7515776761     0.0000064711
 ----------------------------------------------------------------

   10    -692.6280813791      6.84e-06  Convergence criterion met
 Total energy in the final basis set =     -692.6280813791
    4    -692.7089629884      9.71e-06  Convergence criterion met
 Total energy in the final basis set =     -692.7089629884

                    Orbital Energies (a.u.)
 --------------------------------------------------------------

 Alpha MOs
 -- Occupied --
-19.0787 -19.0744 -10.2212 -10.2212 -10.1800 -10.1721 -10.1716 -10.1715
-10.1710 -10.1706 -10.1690 -10.1681 -10.1566 -10.1476 -10.1434 -10.1434
 -1.0023  -0.9988  -0.8570  -0.8244  -0.7833  -0.7488  -0.7317  -0.6802
 -0.6731  -0.6678  -0.6171  -0.6102  -0.5613  -0.5367  -0.5034  -0.4913
 -0.4674  -0.4573  -0.4331  -0.4304  -0.4253  -0.4184  -0.4167  -0.4129
 -0.4071  -0.3894  -0.3828  -0.3686  -0.3674  -0.3563  -0.3526  -0.3458
 -0.3372  -0.3288  -0.3232  -0.3166  -0.2726  -0.2563  -0.2471  -0.2454
 -0.2339  -0.1530

 Beta MOs
 -- Occupied --
-19.0726 -19.0682 -10.2196 -10.2194 -10.1801 -10.1717 -10.1713 -10.1711
-10.1701 -10.1694 -10.1690 -10.1680 -10.1552 -10.1476 -10.1433 -10.1433
 -0.9916  -0.9878  -0.8550  -0.8219  -0.7800  -0.7471  -0.7296  -0.6778
 -0.6728  -0.6606  -0.6153  -0.6074  -0.5591  -0.5349  -0.5011  -0.4888
 -0.4649  -0.4566  -0.4325  -0.4285  -0.4243  -0.4159  -0.4100  -0.4045
 -0.4039  -0.3808  -0.3802  -0.3670  -0.3578  -0.3516  -0.3481  -0.3369
 -0.3360  -0.3272  -0.3205  -0.3160  -0.2500  -0.2469  -0.2402  -0.2398
 -0.2286

          Ground-State Mulliken Net Atomic Charges

     Atom                 Charge (a.u.)    Spin (a.u.)
  --------------------------------------------------------
      1 C                    -0.512092      -0.002130
      2 C                     0.710191      -0.019384
      3 C                    -0.705063       0.013362
      4 C                    -0.705081       0.013352
      5 C                     0.767498       0.075428
      6 C                    -0.318707       0.080834
      7 C                    -0.586885       0.107270
      8 O                    -0.534585       0.213676
      9 C                     0.582491       0.028236
     10 C                    -0.125646       0.023243
     11 C                    -0.460146       0.026126
     12 C                    -0.429639       0.028695
     13 C                     0.135783       0.045895
     14 C                     0.284390       0.037604
     15 C                    -1.019828       0.116185
     16 O                    -0.454079       0.230847
     17 H                     0.140718      -0.000524
     18 H                     0.179677       0.000005
     19 H                     0.140720      -0.000527
     20 H                     0.182576      -0.002006
     21 H                     0.156592       0.001171
     22 H                     0.140336       0.000340
     23 H                     0.156692       0.001170
     24 H                     0.182440      -0.002006
     25 H                     0.140441       0.000344
     26 H                     0.195188      -0.008912
     27 H                     0.171867      -0.002063
     28 H                     0.203524      -0.002120
     29 H                     0.202241      -0.002078
     30 H                     0.178385      -0.002034
  --------------------------------------------------------
  Sum of atomic charges =    -1.000000

                    Cartesian Multipole Moments
 -----------------------------------------------------------------
    Charge (ESU x 10^10)
                -4.8032
    Dipole Moment (Debye)
         X       1.8438      Y       2.6784      Z       0.0040
       Tot       3.2517
    Quadrupole Moments (Debye-Ang)
        XX     -99.7254     XY     -14.2956     YY    -134.3485
        XZ      -0.0017     YZ       0.0007     ZZ    -102.9001

 Total job time:  80.99s(wall), 609.10s(cpu)
        *  Thank you very much for using Q-Chem.  Have a nice day.  *
