 Gaussian 16, Revision A.03,
 Gaussian 16:  ES64L-G16RevA.03 25-Dec-2016

 --------------------------------------
 #P UB3LYP/6-311++G(d,p) nosym opt freq
 --------------------------------------

 -------
 Reduced
 -------
 Symbolic Z-matrix:
 Charge = -2 Multiplicity = 1

 SCF Done:  E(UB3LYP) =  -612.664327239     A.U. after   36 cycles
 SCF Done:  E(UB3LYP) =  -612.664530700     A.U. after   24 cycles
 SCF Done:  E(UB3LYP) =  -612.664543142     A.U. after   27 cycles
 SCF Done:  E(UB3LYP) =  -612.664582867     A.U. after   26 cycles
 SCF Done:  E(UB3LYP) =  -612.664589230     A.U. after   25 cycles
 SCF Done:  E(UB3LYP) =  -612.664591462     A.U. after   24 cycles
 SCF Done:  E(UB3LYP) =  -612.664592659     A.U. after   25 cycles
 SCF Done:  E(UB3LYP) =  -612.664593260     A.U. after   25 cycles
 Optimization completed.
    -- Stationary point found.
 Normal termination of Gaussian 16 at Wed Jan 10 05:39:01 2024.

 ----------------------------------------------------------------------
 #P Geom=AllCheck Guess=TCheck SCRF=Check GenChk UB3LYP/6-311++G(d,p) F
 req
 ----------------------------------------------------------------------

 Structure from the checkpoint file:  "062-an.chk"
 -------
 Reduced
 -------
 Charge = -2 Multiplicity = 1

                          Input orientation:
 ---------------------------------------------------------------------
 Center     Atomic      Atomic             Coordinates (Angstroms)
 Number     Number       Type             X           Y           Z
 ---------------------------------------------------------------------
      1          6           0       -1.710819   -2.411676    1.205077
      2          6           0       -2.271077   -2.166816   -0.119297
      3          6           0       -1.731474   -1.104326   -0.919965
      4          6           0       -0.665944   -0.248058   -0.558764
      5          6           0       -0.124935   -0.540448    0.749965
      6          6           0       -0.614728   -1.542818    1.558818
      7          8           0       -2.101441   -3.315490    2.042448
      8          8           0       -0.197912    0.716908   -1.293254
      9          6           0       -3.358679   -2.989042   -0.648433
     10          6           0       -4.055503   -3.957728    0.138552
     11          6           0       -3.809205   -2.885351   -2.001448
     12          6           0       -4.851028   -3.653564   -2.507149
     13          6           0       -5.095341   -4.721950   -0.377991
     14          6           0       -5.522053   -4.589158   -1.708303
     15          1           0       -2.169426   -0.892062   -1.890648
     16          1           0        0.702733    0.085116    1.089773
     17          1           0       -0.179988   -1.722066    2.542530
     18          1           0       -3.720679   -4.075805    1.161781
     19          1           0       -3.317799   -2.190715   -2.670248
     20          1           0       -5.141606   -3.525043   -3.549485
     21          1           0       -5.588888   -5.442187    0.274423
     22          1           0       -6.335128   -5.191464   -2.106662
 ---------------------------------------------------------------------

 SCF Done:  E(UB3LYP) =  -612.664593260     A.U. after    1 cycles

 Alpha  occ. eigenvalues --  -18.76764 -18.74610  -9.94087  -9.93609  -9.93444
 Alpha  occ. eigenvalues --   -9.92714  -9.92691  -9.92245  -9.90938  -9.90901
 Alpha  occ. eigenvalues --   -9.88389  -9.88077  -9.87698  -9.85810  -0.68126
 Alpha  occ. eigenvalues --   -0.65540  -0.60699  -0.53201  -0.50271  -0.50023
 Alpha  occ. eigenvalues --   -0.44038  -0.39319  -0.35999  -0.35493  -0.30669
 Alpha  occ. eigenvalues --   -0.28543  -0.25519  -0.21514  -0.20657  -0.18295
 Alpha  occ. eigenvalues --   -0.17124  -0.16585  -0.15864  -0.13559  -0.12884
 Alpha  occ. eigenvalues --   -0.10716  -0.09588  -0.09304  -0.08902  -0.06855
 Alpha  occ. eigenvalues --   -0.05696  -0.04993  -0.02443  -0.01345   0.03343
 Alpha  occ. eigenvalues --    0.05608   0.06231   0.07596   0.13966
 Alpha virt. eigenvalues --    0.15309   0.17149   0.18628   0.19397   0.21102
 Alpha virt. eigenvalues --    0.21440   0.22033   0.22738   0.23245   0.24305
 Alpha virt. eigenvalues --    0.25501   0.26748   0.27559   0.27835   0.27886

  Beta  occ. eigenvalues --  -18.76764 -18.74610  -9.94087  -9.93609  -9.93444
  Beta  occ. eigenvalues --   -9.92714  -9.92691  -9.92245  -9.90938  -9.90901
  Beta  occ. eigenvalues --   -9.88389  -9.88077  -9.87698  -9.85810  -0.68126
  Beta  occ. eigenvalues --   -0.65540  -0.60699  -0.53201  -0.50271  -0.50023
  Beta  occ. eigenvalues --   -0.44038  -0.39319  -0.35999  -0.35493  -0.30669
  Beta  occ. eigenvalues --   -0.28543  -0.25519  -0.21514  -0.20657  -0.18295
  Beta  occ. eigenvalues --   -0.17124  -0.16585  -0.15864  -0.13559  -0.12884
  Beta  occ. eigenvalues --   -0.10716  -0.09588  -0.09304  -0.08902  -0.06855
  Beta  occ. eigenvalues --   -0.05696  -0.04993  -0.02443  -0.01345   0.03343
  Beta  occ. eigenvalues --    0.05608   0.06231   0.07596   0.13966
  Beta virt. eigenvalues --    0.15309   0.17149   0.18628   0.19397   0.21102
  Beta virt. eigenvalues --    0.21440   0.22033   0.22738   0.23245   0.24305
  Beta virt. eigenvalues --    0.25501   0.26748   0.27559   0.27835   0.27886

 Mulliken charges and spin densities:
               1          2
     1  C   -1.139680   0.000000
     2  C    1.753257  -0.000000
     3  C   -0.759119   0.000000
     4  C   -0.967161  -0.000000
     5  C    0.173894   0.000000
     6  C    0.058408  -0.000000
     7  O   -0.505797   0.000000
     8  O   -0.588682   0.000000
     9  C    1.488001   0.000000
    10  C   -0.273490  -0.000000
    11  C   -0.671767   0.000000
    12  C   -0.326185  -0.000000
    13  C   -0.434826   0.000000
    14  C   -0.418689   0.000000
    15  H    0.006945  -0.000000
    16  H    0.056955  -0.000000
    17  H    0.070077  -0.000000
    18  H    0.176387  -0.000000
    19  H    0.050191   0.000000
    20  H    0.098799  -0.000000
    21  H    0.097029  -0.000000
    22  H    0.055452  -0.000000
 Sum of Mulliken charges =  -2.00000   0.00000

 Dipole moment (field-independent basis, Debye):
    X=             18.2380    Y=             17.0860    Z=              1.3616  Tot=             25.0282
 Quadrupole moment (field-independent basis, Debye-Ang):
   XX=           -161.1059   YY=           -166.8408   ZZ=           -117.9127
   XY=            -63.7109   XZ=             -4.1770   YZ=             10.1367

  Exact polarizability: 221.201  60.490 147.445  53.278  -8.830 209.809
 Approx polarizability: 443.244 202.350 352.743 151.287  30.806 390.210

                      1                      2                      3
                      A                      A                      A
 Frequencies --     36.3104                75.2937               128.4890
 Red. masses --      4.1443                 4.5470                 8.1893
 Frc consts  --      0.0032                 0.0152                 0.0797
 IR Inten    --      0.3787                 1.7413                 7.8210

                      4                      5                      6
                      A                      A                      A
 Frequencies --    164.4821               215.7791               299.2467
 Red. masses --      6.0427                 4.9018                 7.4362
 Frc consts  --      0.0963                 0.1345                 0.3923
 IR Inten    --      1.8996                 5.1405                 0.6479

                      7                      8                      9
                      A                      A                      A
 Frequencies --    330.6768               339.5444               411.2997
 Red. masses --      6.5090                 6.0793                 8.9169
 Frc consts  --      0.4193                 0.4129                 0.8888
 IR Inten    --      8.6985                 0.6214                 7.9063

                     10                     11                     12
                      A                      A                      A
 Frequencies --    421.8041               432.4683               470.7323
 Red. masses --      3.3542                 3.3432                11.7528
 Frc consts  --      0.3516                 0.3684                 1.5344
 IR Inten    --      6.1328                11.0787                35.3173

                     13                     14                     15
                      A                      A                      A
 Frequencies --    499.9537               556.4157               594.4040
 Red. masses --      2.1253                 5.0478                 2.5402
 Frc consts  --      0.3130                 0.9208                 0.5288
 IR Inten    --      5.6884                 6.4978                56.6067

                     16                     17                     18
                      A                      A                      A
 Frequencies --    630.1504               641.5061               673.4224
 Red. masses --      6.2384                 6.3434                 1.3072
 Frc consts  --      1.4595                 1.5381                 0.3493
 IR Inten    --      0.9542                14.9737                56.1997

                     19                     20                     21
                      A                      A                      A
 Frequencies --    702.3568               709.6829               722.0876
 Red. masses --      3.3352                 6.6161                 1.8692
 Frc consts  --      0.9694                 1.9633                 0.5742
 IR Inten    --      7.5097                 3.9418                44.1113

                     22                     23                     24
                      A                      A                      A
 Frequencies --    799.5916               805.6959               808.6660
 Red. masses --      2.1741                 1.6301                 3.9500
 Frc consts  --      0.8190                 0.6235                 1.5219
 IR Inten    --     38.2008                18.7233                44.3038

                     25                     26                     27
                      A                      A                      A
 Frequencies --    818.9297               843.6782               885.9314
 Red. masses --      2.2166                 1.6873                 5.9950
 Frc consts  --      0.8758                 0.7076                 2.7723
 IR Inten    --     35.5961                21.6686                 9.9140

                     28                     29                     30
                      A                      A                      A
 Frequencies --    901.3164               921.5334               989.1840
 Red. masses --      1.2733                 1.2312                 2.3788
 Frc consts  --      0.6094                 0.6160                 1.3714
 IR Inten    --      0.3500                21.7331                99.4616

                     31                     32                     33
                      A                      A                      A
 Frequencies --    990.5983              1004.0513              1034.7010
 Red. masses --      1.7050                 3.4669                 2.1825
 Frc consts  --      0.9858                 2.0592                 1.3767
 IR Inten    --    124.2758                17.8286                50.7116

                     34                     35                     36
                      A                      A                      A
 Frequencies --   1071.1047              1096.6132              1146.2840
 Red. masses --      1.6657                 1.6009                 1.3496
 Frc consts  --      1.1260                 1.1343                 1.0449
 IR Inten    --     71.7294                 2.9427               314.6566

                     37                     38                     39
                      A                      A                      A
 Frequencies --   1162.1953              1195.1602              1238.3772
 Red. masses --      1.3476                 1.5154                 1.9708
 Frc consts  --      1.0724                 1.2754                 1.7807
 IR Inten    --    171.2555                26.7754               111.3466

                     40                     41                     42
                      A                      A                      A
 Frequencies --   1256.4074              1282.9088              1323.1107
 Red. masses --      3.6742                 1.9584                 3.2339
 Frc consts  --      3.4172                 1.8991                 3.3355
 IR Inten    --    111.0841                40.1641               155.7885

                     43                     44                     45
                      A                      A                      A
 Frequencies --   1347.1024              1354.8419              1411.3258
 Red. masses --      2.4424                 3.6689                 3.8294
 Frc consts  --      2.6114                 3.9679                 4.4940
 IR Inten    --     83.7891               233.1414                51.0439

                     46                     47                     48
                      A                      A                      A
 Frequencies --   1454.4790              1465.6563              1478.6525
 Red. masses --      3.1778                 3.8973                 3.6709
 Frc consts  --      3.9609                 4.9326                 4.7288
 IR Inten    --    146.3385               157.9897               516.4638

                     49                     50                     51
                      A                      A                      A
 Frequencies --   1502.9500              1545.3620              1601.9743
 Red. masses --      2.1222                 4.3434                 5.3717
 Frc consts  --      2.8244                 6.1114                 8.1222
 IR Inten    --    162.8779                53.0755               580.4915

                     52                     53                     54
                      A                      A                      A
 Frequencies --   1617.2446              3066.6882              3085.7125
 Red. masses --      5.8934                 1.0833                 1.0821
 Frc consts  --      9.0817                 6.0024                 6.0704
 IR Inten    --     99.4958                63.7551                41.1024

                     55                     56                     57
                      A                      A                      A
 Frequencies --   3093.9904              3100.1180              3128.9216
 Red. masses --      1.0879                 1.0924                 1.0937
 Frc consts  --      6.1360                 6.1856                 6.3087
 IR Inten    --    126.4244               159.6650               109.4979

                     58                     59                     60
                      A                      A                      A
 Frequencies --   3135.8020              3169.2824              3189.0503
 Red. masses --      1.0864                 1.0926                 1.0875
 Frc consts  --      6.2943                 6.4662                 6.5161
 IR Inten    --     27.3518                 6.9117                25.9886

 - Thermochemistry -
 -------------------
 Temperature   298.150 Kelvin.  Pressure   1.00000 Atm.
 Atom     1 has atomic number  6 and mass  12.00000

 Molecular mass:   184.05243 amu.
 Principal axes and moments of inertia in atomic units:
                           1         2         3
     Eigenvalues --  1266.002913977.289745234.24065
           X            0.74339   0.07878   0.66420
           Y            0.62754  -0.42574  -0.65187
           Z            0.23143   0.90141  -0.36593
 This molecule is an asymmetric top.
 Rotational symmetry number  1.
 Warning -- assumption of classical behavior for rotation
           may cause significant error
 Rotational temperatures (Kelvin)      0.06842     0.02178     0.01655
 Rotational constants (GHZ):           1.42554     0.45376     0.34480
 Zero-point vibrational energy     420973.7 (Joules/Mol)
                                  100.61512 (Kcal/Mol)
 Warning -- explicit consideration of  15 degrees of freedom as
           vibrations may cause significant error
 Vibrational temperatures:     52.24   108.33   184.87   236.65   310.46
          (Kelvin)            430.55   475.77   488.53   591.77   606.88
                              622.23   677.28   719.32   800.56   855.21
                              906.65   922.98   968.90  1010.53  1021.08
                             1038.92  1150.43  1159.22  1163.49  1178.26
                             1213.86  1274.66  1296.79  1325.88  1423.22
                             1425.25  1444.61  1488.70  1541.08  1577.78
                             1649.25  1672.14  1719.57  1781.75  1807.69
                             1845.82  1903.66  1938.18  1949.32  2030.58
                             2092.67  2108.75  2127.45  2162.41  2223.43
                             2304.88  2326.85  4412.28  4439.65  4451.56
                             4460.38  4501.82  4511.72  4559.89  4588.33

 Zero-point correction=                           0.160340 (Hartree/Particle)
 Thermal correction to Energy=                    0.171145
 Thermal correction to Enthalpy=                  0.172089
 Thermal correction to Gibbs Free Energy=         0.122991
 Sum of electronic and zero-point Energies=           -612.504253
 Sum of electronic and thermal Energies=              -612.493448
 Sum of electronic and thermal Enthalpies=            -612.492504
 Sum of electronic and thermal Free Energies=         -612.541602

                     E (Thermal)             CV                S
                      KCal/Mol        Cal/Mol-Kelvin    Cal/Mol-Kelvin
 Total                  107.395             43.514            103.336
 Electronic               0.000              0.000              0.000
 Translational            0.889              2.981             41.536
 Rotational               0.889              2.981             31.644
 Vibrational            105.618             37.553             30.155
 Vibration     1          0.594              1.982              5.451
 Vibration     2          0.599              1.965              4.010
 Vibration     3          0.611              1.925              2.969
 Vibration     4          0.623              1.886              2.498
 Vibration     5          0.645              1.817              1.994
 Vibration     6          0.692              1.675              1.421
 Vibration     7          0.713              1.614              1.257
 Vibration     8          0.719              1.596              1.214
 Vibration     9          0.775              1.446              0.922
 Vibration    10          0.784              1.423              0.886
 Vibration    11          0.793              1.399              0.851
 Vibration    12          0.828              1.315              0.736
 Vibration    13          0.855              1.250              0.658
 Vibration    14          0.912              1.126              0.531
 Vibration    15          0.952              1.044              0.459

 Optimization completed.
    -- Stationary point found.
 Normal termination of Gaussian 16 at Wed Jan 10 06:10:40 2024.
