 Q-Chem 5.4, Q-Chem, Inc., Pleasanton, CA (2021)
 Q-Chem 5.4.0 for Intel X86 EM64T Linux

User input:
--------------------------------------------------------------
$molecule
-2 1
C                 -1.7108190000     -2.4116760000      1.2050770000
C                 -2.2710770000     -2.1668160000     -0.1192970000
C                 -1.7314740000     -1.1043260000     -0.9199650000
C                 -0.6659440000     -0.2480580000     -0.5587640000
C                 -0.1249350000     -0.5404480000      0.7499650000
C                 -0.6147280000     -1.5428180000      1.5588180000
O                 -2.1014410000     -3.3154900000      2.0424480000
O                 -0.1979120000      0.7169080000     -1.2932540000
C                 -3.3586790000     -2.9890420000     -0.6484330000
C                 -4.0555030000     -3.9577280000      0.1385520000
C                 -3.8092050000     -2.8853510000     -2.0014480000
C                 -4.8510280000     -3.6535640000     -2.5071490000
C                 -5.0953410000     -4.7219500000     -0.3779910000
C                 -5.5220530000     -4.5891580000     -1.7083030000
H                 -2.1694260000     -0.8920620000     -1.8906480000
H                  0.7027330000      0.0851160000      1.0897730000
H                 -0.1799880000     -1.7220660000      2.5425300000
H                 -3.7206790000     -4.0758050000      1.1617810000
H                 -3.3177990000     -2.1907150000     -2.6702480000
H                 -5.1416060000     -3.5250430000     -3.5494850000
H                 -5.5888880000     -5.4421870000      0.2744230000
H                 -6.3351280000     -5.1914640000     -2.1066620000
$end
$rem
MAX_SCF_CYCLES=200
BASIS  =  6-311++G(d,p)
GUI  =  2
JOB_TYPE  =  SP
METHOD  =  B3LYP
SOLVENT_METHOD = PCM
$end
$pcm
theory = CPCM
$end
$solvent
dielectric 37.219
opticaldielectric 1.43
$end

--------------------------------------------------------------

             Standard Nuclear Orientation (Angstroms)
    I     Atom           X                Y                Z
 ----------------------------------------------------------------
    1      C      -1.7108190000    -2.4116760000     1.2050770000
    2      C      -2.2710770000    -2.1668160000    -0.1192970000
    3      C      -1.7314740000    -1.1043260000    -0.9199650000
    4      C      -0.6659440000    -0.2480580000    -0.5587640000
    5      C      -0.1249350000    -0.5404480000     0.7499650000
    6      C      -0.6147280000    -1.5428180000     1.5588180000
    7      O      -2.1014410000    -3.3154900000     2.0424480000
    8      O      -0.1979120000     0.7169080000    -1.2932540000
    9      C      -3.3586790000    -2.9890420000    -0.6484330000
   10      C      -4.0555030000    -3.9577280000     0.1385520000
   11      C      -3.8092050000    -2.8853510000    -2.0014480000
   12      C      -4.8510280000    -3.6535640000    -2.5071490000
   13      C      -5.0953410000    -4.7219500000    -0.3779910000
   14      C      -5.5220530000    -4.5891580000    -1.7083030000
   15      H      -2.1694260000    -0.8920620000    -1.8906480000
   16      H       0.7027330000     0.0851160000     1.0897730000
   17      H      -0.1799880000    -1.7220660000     2.5425300000
   18      H      -3.7206790000    -4.0758050000     1.1617810000
   19      H      -3.3177990000    -2.1907150000    -2.6702480000
   20      H      -5.1416060000    -3.5250430000    -3.5494850000
   21      H      -5.5888880000    -5.4421870000     0.2744230000
   22      H      -6.3351280000    -5.1914640000    -2.1066620000
 ----------------------------------------------------------------

    9    -612.9460457824      4.27e-06  Convergence criterion met
 Total energy in the final basis set =     -612.9460457824

                    Orbital Energies (a.u.)
 --------------------------------------------------------------

 Alpha MOs
 -- Occupied --
-19.0236 -19.0175 -10.1797 -10.1704 -10.1666 -10.1602 -10.1584 -10.1562
-10.1529 -10.1433 -10.1383 -10.1299 -10.1273 -10.1186  -0.9400  -0.9278
 -0.8366  -0.7827  -0.7436  -0.7267  -0.6867  -0.6481  -0.5963  -0.5850
 -0.5504  -0.5278  -0.4862  -0.4470  -0.4433  -0.4317  -0.4093  -0.4036
 -0.3982  -0.3789  -0.3695  -0.3599  -0.3467  -0.3443  -0.3266  -0.3209
 -0.3164  -0.3107  -0.2652  -0.2419  -0.2293  -0.1985  -0.1957  -0.1952
 -0.1236

          Ground-State Mulliken Net Atomic Charges

     Atom                 Charge (a.u.)
  ----------------------------------------
      1 C                    -0.821424
      2 C                     1.469476
      3 C                    -0.876215
      4 C                    -0.383853
      5 C                    -0.086830
      6 C                    -0.213727
      7 O                    -0.668900
      8 O                    -0.768520
      9 C                     1.258852
     10 C                    -0.279335
     11 C                    -0.621898
     12 C                    -0.358921
     13 C                    -0.441096
     14 C                    -0.441309
     15 H                     0.086196
     16 H                     0.151747
     17 H                     0.151250
     18 H                     0.168713
     19 H                     0.114118
     20 H                     0.197561
     21 H                     0.192134
     22 H                     0.171981
  ----------------------------------------
  Sum of atomic charges =    -2.000000

                    Cartesian Multipole Moments
 -----------------------------------------------------------------
    Charge (ESU x 10^10)
                -9.6064
    Dipole Moment (Debye)
         X      13.9644      Y      14.0103      Z      -0.9973
       Tot      19.8062
    Quadrupole Moments (Debye-Ang)
        XX    -127.6782     XY     -39.4526     YY    -148.5975
        XZ      10.7709     YZ      22.5843     ZZ    -111.0625

 Total job time:  29.01s(wall), 183.15s(cpu)
        *  Thank you very much for using Q-Chem.  Have a nice day.  *
