 Gaussian 16, Revision A.03,
 Gaussian 16:  ES64L-G16RevA.03 25-Dec-2016

 ----------------------------------------------------------------------
 #P UB3LYP/6-311++G(d,p) nosym opt freq SCRF=(PCM,Solvent=n,n-DiMethylF
 ormamide)
 ----------------------------------------------------------------------

 --------
 Oxidized
 --------
 Symbolic Z-matrix:
 Charge =  0 Multiplicity = 1

 SCF Done:  E(UB3LYP) =  -496.135553253     A.U. after   15 cycles
 SCF Done:  E(UB3LYP) =  -496.135702862     A.U. after   11 cycles
 SCF Done:  E(UB3LYP) =  -496.135730384     A.U. after   11 cycles
 SCF Done:  E(UB3LYP) =  -496.135725045     A.U. after   10 cycles
 SCF Done:  E(UB3LYP) =  -496.135731505     A.U. after   10 cycles
 SCF Done:  E(UB3LYP) =  -496.135732673     A.U. after    9 cycles
 Optimization completed.
    -- Stationary point found.
 Normal termination of Gaussian 16 at Sat Feb 10 10:33:48 2024.

 ----------------------------------------------------------------------
 #P Geom=AllCheck Guess=TCheck SCRF=Check GenChk UB3LYP/6-311++G(d,p) F
 req
 ----------------------------------------------------------------------

 Structure from the checkpoint file:  "082.chk"
 --------
 Oxidized
 --------
 Charge =  0 Multiplicity = 1

                          Input orientation:
 ---------------------------------------------------------------------
 Center     Atomic      Atomic             Coordinates (Angstroms)
 Number     Number       Type             X           Y           Z
 ---------------------------------------------------------------------
      1          6           0        2.691754    0.372842    0.492661
      2          8           0        1.725119   -0.666352    0.257106
      3          6           0        0.446501   -0.324783    0.120221
      4          6           0       -0.071834    0.925270    0.180044
      5          6           0       -1.503999    1.155570    0.009751
      6          8           0       -1.989043    2.284322    0.061285
      7          6           0       -2.385386   -0.019420   -0.232459
      8          6           0       -1.889441   -1.260083   -0.293839
      9          6           0       -0.444684   -1.520341   -0.124721
     10          8           0        0.014068   -2.647308   -0.179380
     11          1           0        2.466726    0.897074    1.423915
     12          1           0        3.650184   -0.133105    0.570471
     13          1           0        2.704437    1.076024   -0.342904
     14          1           0        0.537985    1.801460    0.353515
     15          1           0       -3.441912    0.189645   -0.354380
     16          1           0       -2.510476   -2.130816   -0.468725
 ---------------------------------------------------------------------

 SCF Done:  E(UB3LYP) =  -496.135732673     A.U. after    1 cycles

 Alpha  occ. eigenvalues --  -19.19275 -19.15150 -19.13665 -10.29744 -10.28615
 Alpha  occ. eigenvalues --  -10.27915 -10.23671 -10.21622 -10.21443 -10.19876
 Alpha  occ. eigenvalues --   -1.11412  -1.07671  -1.06427  -0.86498  -0.79650
 Alpha  occ. eigenvalues --   -0.75006  -0.70078  -0.63397  -0.61383  -0.54886
 Alpha  occ. eigenvalues --   -0.53675  -0.50895  -0.49852  -0.48455  -0.45742
 Alpha  occ. eigenvalues --   -0.45584  -0.44944  -0.43381  -0.42275  -0.41696
 Alpha  occ. eigenvalues --   -0.37343  -0.36999  -0.31452  -0.29677  -0.28525
 Alpha  occ. eigenvalues --   -0.27288
 Alpha virt. eigenvalues --   -0.13608  -0.02447  -0.00492  -0.00465   0.00658
 Alpha virt. eigenvalues --    0.01314   0.02407   0.03156   0.03473   0.04833
 Alpha virt. eigenvalues --    0.06196   0.06526   0.06670   0.07518   0.07909

  Beta  occ. eigenvalues --  -19.19275 -19.15150 -19.13665 -10.29744 -10.28615
  Beta  occ. eigenvalues --  -10.27915 -10.23671 -10.21622 -10.21443 -10.19876
  Beta  occ. eigenvalues --   -1.11412  -1.07671  -1.06427  -0.86498  -0.79650
  Beta  occ. eigenvalues --   -0.75006  -0.70078  -0.63397  -0.61383  -0.54886
  Beta  occ. eigenvalues --   -0.53675  -0.50895  -0.49852  -0.48455  -0.45742
  Beta  occ. eigenvalues --   -0.45584  -0.44944  -0.43381  -0.42275  -0.41696
  Beta  occ. eigenvalues --   -0.37343  -0.36999  -0.31452  -0.29677  -0.28525
  Beta  occ. eigenvalues --   -0.27288
  Beta virt. eigenvalues --   -0.13608  -0.02447  -0.00492  -0.00465   0.00658
  Beta virt. eigenvalues --    0.01314   0.02407   0.03156   0.03473   0.04833
  Beta virt. eigenvalues --    0.06196   0.06526   0.06670   0.07518   0.07909

 Mulliken charges and spin densities:
               1          2
     1  C   -0.305593  -0.000000
     2  O   -0.158291  -0.000000
     3  C   -0.183273   0.000000
     4  C    0.707724  -0.000000
     5  C   -0.563558   0.000000
     6  O   -0.325042  -0.000000
     7  C    0.217800  -0.000000
     8  C    0.238095   0.000000
     9  C   -0.649198   0.000000
    10  O   -0.285851  -0.000000
    11  H    0.179466  -0.000000
    12  H    0.203702   0.000000
    13  H    0.179913  -0.000000
    14  H    0.252960   0.000000
    15  H    0.246539  -0.000000
    16  H    0.244607  -0.000000
 Sum of Mulliken charges =  -0.00000   0.00000

 Dipole moment (field-independent basis, Debye):
    X=              1.8549    Y=              0.7124    Z=              0.3169  Tot=              2.0122
 Quadrupole moment (field-independent basis, Debye-Ang):
   XX=            -47.4115   YY=            -76.3320   ZZ=            -56.8196
   XY=             15.1636   XZ=              3.0715   YZ=              0.1401

  Exact polarizability: 140.908 -36.600 173.030   6.183   6.009  68.568
 Approx polarizability: 155.535 -67.057 236.878   3.635   7.494  78.492

                      1                      2                      3
                      A                      A                      A
 Frequencies --     77.9592               127.3771               157.1350
 Red. masses --      6.1779                 3.9713                 3.3034
 Frc consts  --      0.0221                 0.0380                 0.0481
 IR Inten    --     21.2919                 0.0760                 6.0997

                      4                      5                      6
                      A                      A                      A
 Frequencies --    212.1625               231.8838               276.5583
 Red. masses --      3.8924                 1.2823                 3.5753
 Frc consts  --      0.1032                 0.0406                 0.1611
 IR Inten    --      6.8074                 0.2812                 1.0226

                      7                      8                      9
                      A                      A                      A
 Frequencies --    342.9429               429.7582               452.9581
 Red. masses --      6.9573                 8.2988                 8.7044
 Frc consts  --      0.4821                 0.9031                 1.0522
 IR Inten    --     10.6094                35.6703                 7.8249

                     10                     11                     12
                      A                      A                      A
 Frequencies --    457.2889               506.1458               593.5024
 Red. masses --      3.1424                 6.8927                 4.8200
 Frc consts  --      0.3872                 1.0404                 1.0003
 IR Inten    --      0.2560                16.7978                 2.0795

                     13                     14                     15
                      A                      A                      A
 Frequencies --    634.4923               697.5095               776.8009
 Red. masses --      2.4974                 6.5566                 3.3124
 Frc consts  --      0.5924                 1.8794                 1.1777
 IR Inten    --      7.3051                 7.3255                 0.0818

                     16                     17                     18
                      A                      A                      A
 Frequencies --    798.3525               831.0679               879.2087
 Red. masses --      5.5318                 2.0238                 1.8622
 Frc consts  --      2.0773                 0.8236                 0.8481
 IR Inten    --      5.4793                 2.8298               123.2169

                     19                     20                     21
                      A                      A                      A
 Frequencies --    911.5949               999.3821              1005.2308
 Red. masses --      3.2007                 6.5758                 1.2445
 Frc consts  --      1.5671                 3.8696                 0.7409
 IR Inten    --      2.0553                73.8729                 0.0145

                     22                     23                     24
                      A                      A                      A
 Frequencies --   1114.7272              1166.2992              1192.1998
 Red. masses --      1.6358                 1.2761                 1.6149
 Frc consts  --      1.1976                 1.0227                 1.3523
 IR Inten    --    211.1669                 1.2306                43.5945

                     25                     26                     27
                      A                      A                      A
 Frequencies --   1216.9634              1248.6573              1326.2489
 Red. masses --      1.5911                 2.4447                 3.8620
 Frc consts  --      1.3883                 2.2458                 4.0023
 IR Inten    --     19.9561               552.6221                54.7902

                     28                     29                     30
                      A                      A                      A
 Frequencies --   1367.1024              1389.6103              1472.3909
 Red. masses --      2.4097                 1.9822                 1.2326
 Frc consts  --      2.6535                 2.2552                 1.5744
 IR Inten    --     82.3010                11.9173                 6.6988

                     31                     32                     33
                      A                      A                      A
 Frequencies --   1484.4522              1490.7735              1620.8409
 Red. masses --      1.0431                 1.0503                 6.9925
 Frc consts  --      1.3543                 1.3753                10.8234
 IR Inten    --     17.8780                25.8818               789.0328

                     34                     35                     36
                      A                      A                      A
 Frequencies --   1663.6927              1683.3635              1724.5363
 Red. masses --     10.9472                 7.8719                10.8148
 Frc consts  --     17.8525                13.1427                18.9503
 IR Inten    --    128.4512               585.2823               333.1378

                     37                     38                     39
                      A                      A                      A
 Frequencies --   3038.2049              3111.7766              3165.8059
 Red. masses --      1.0317                 1.1078                 1.1034
 Frc consts  --      5.6111                 6.3204                 6.5158
 IR Inten    --     31.7524                26.5041                14.8368

                     40                     41                     42
                      A                      A                      A
 Frequencies --   3185.2128              3201.4354              3211.9752
 Red. masses --      1.0876                 1.0997                 1.0918
 Frc consts  --      6.5015                 6.6406                 6.6362
 IR Inten    --      3.3351                 2.3618                 1.0410

 - Thermochemistry -
 -------------------
 Temperature   298.150 Kelvin.  Pressure   1.00000 Atm.
 Atom     1 has atomic number  6 and mass  12.00000

 Molecular mass:   138.03169 amu.
 Principal axes and moments of inertia in atomic units:
                           1         2         3
     Eigenvalues --   932.235231467.134882387.81570
           X            0.89825   0.41887  -0.13302
           Y           -0.43280   0.89568  -0.10218
           Z            0.07634   0.14936   0.98583
 This molecule is an asymmetric top.
 Rotational symmetry number  1.
 Warning -- assumption of classical behavior for rotation
           may cause significant error
 Rotational temperatures (Kelvin)      0.09291     0.05904     0.03627
 Rotational constants (GHZ):           1.93593     1.23011     0.75581
 Zero-point vibrational energy     307892.4 (Joules/Mol)
                                   73.58804 (Kcal/Mol)
 Warning -- explicit consideration of  12 degrees of freedom as
           vibrations may cause significant error
 Vibrational temperatures:    112.17   183.27   226.08   305.25   333.63
          (Kelvin)            397.91   493.42   618.33   651.71   657.94
                              728.23   853.92   912.89  1003.56  1117.64
                             1148.65  1195.72  1264.99  1311.58  1437.89
                             1446.30  1603.84  1678.04  1715.31  1750.94
                             1796.54  1908.18  1966.96  1999.34  2118.44
                             2135.80  2144.89  2332.03  2393.68  2421.98
                             2481.22  4371.30  4477.15  4554.89  4582.81
                             4606.15  4621.32

 Zero-point correction=                           0.117270 (Hartree/Particle)
 Thermal correction to Energy=                    0.126066
 Thermal correction to Enthalpy=                  0.127011
 Thermal correction to Gibbs Free Energy=         0.083268
 Sum of electronic and zero-point Energies=           -496.018463
 Sum of electronic and thermal Energies=              -496.009666
 Sum of electronic and thermal Enthalpies=            -496.008722
 Sum of electronic and thermal Free Energies=         -496.052465

                     E (Thermal)             CV                S
                      KCal/Mol        Cal/Mol-Kelvin    Cal/Mol-Kelvin
 Total                   79.108             32.395             92.065
 Electronic               0.000              0.000              0.000
 Translational            0.889              2.981             40.679
 Rotational               0.889              2.981             29.570
 Vibrational             77.330             26.433             21.816
 Vibration     1          0.599              1.964              3.942
 Vibration     2          0.611              1.926              2.985
 Vibration     3          0.621              1.895              2.584
 Vibration     4          0.643              1.822              2.025
 Vibration     5          0.653              1.792              1.864
 Vibration     6          0.678              1.717              1.555
 Vibration     7          0.722              1.590              1.198
 Vibration     8          0.791              1.405              0.859
 Vibration     9          0.812              1.354              0.787
 Vibration    10          0.815              1.345              0.774
 Vibration    11          0.861              1.236              0.643
 Vibration    12          0.951              1.046              0.461

 Optimization completed.
    -- Stationary point found.
 Normal termination of Gaussian 16 at Sat Feb 10 10:46:23 2024.
