 Q-Chem 5.4, Q-Chem, Inc., Pleasanton, CA (2021)
 Q-Chem 5.4.0 for Intel X86 EM64T Linux

User input:
--------------------------------------------------------------
$molecule
-2 1
C                 -1.8184070000      1.9291280000     -5.1279430000
C                 -1.7255260000      0.6156030000     -5.5374510000
C                 -1.3060450000     -0.3815620000     -4.6105450000
C                 -1.5081090000      2.3308750000     -3.8020370000
C                 -1.0879070000      1.3214750000     -2.8632960000
C                 -0.9983300000     -0.0218090000     -3.3154950000
C                 -1.6114900000      3.7197020000     -3.4381120000
C                 -0.7702210000      1.6336280000     -1.4960730000
C                 -1.2617250000      4.0525310000     -2.0732290000
C                 -0.9030810000      3.0160190000     -1.1044050000
C                 -1.2840420000      5.4301520000     -1.6327940000
C                 -1.0050810000      5.7446430000     -0.3189670000
C                 -0.7098480000      4.7434450000      0.6382360000
C                 -0.6683780000      3.4054920000      0.2769150000
O                 -2.0089900000      4.5939080000     -4.3193590000
O                 -0.3793550000      0.6836200000     -0.6868470000
N                 -1.5363380000      6.4741900000     -2.5628790000
N                 -0.4400200000      2.4053640000      1.2240470000
C                  0.2616120000      2.6889200000      2.4440790000
H                 -2.1317430000      2.7139480000     -5.8087960000
H                 -1.9684400000      0.3409370000     -6.5627100000
H                 -1.2300000000     -1.4214500000     -4.9244050000
H                 -0.6767480000     -0.7566100000     -2.5846290000
H                 -0.9846440000      6.7930040000     -0.0243540000
H                 -0.5357570000      5.0319200000      1.6697700000
H                 -1.8752850000      6.0442460000     -3.4418210000
H                 -2.1769600000      7.1616960000     -2.1854990000
H                 -0.2659480000      1.5051990000      0.7346780000
H                 -0.3502810000      3.2566950000      3.1632720000
H                  1.1931520000      3.2751380000      2.2961530000
H                  0.5320860000      1.7435270000      2.9279790000
$end
$rem
MAX_SCF_CYCLES=200
BASIS  =  6-311++G(d,p)
GUI  =  2
JOB_TYPE  =  SP
METHOD  =  B3LYP
SOLVENT_METHOD = PCM
$end
$pcm
theory = CPCM
$end
$solvent
dielectric 37.219
opticaldielectric 1.43
$end

--------------------------------------------------------------

             Standard Nuclear Orientation (Angstroms)
    I     Atom           X                Y                Z
 ----------------------------------------------------------------
    1      C      -1.8184070000     1.9291280000    -5.1279430000
    2      C      -1.7255260000     0.6156030000    -5.5374510000
    3      C      -1.3060450000    -0.3815620000    -4.6105450000
    4      C      -1.5081090000     2.3308750000    -3.8020370000
    5      C      -1.0879070000     1.3214750000    -2.8632960000
    6      C      -0.9983300000    -0.0218090000    -3.3154950000
    7      C      -1.6114900000     3.7197020000    -3.4381120000
    8      C      -0.7702210000     1.6336280000    -1.4960730000
    9      C      -1.2617250000     4.0525310000    -2.0732290000
   10      C      -0.9030810000     3.0160190000    -1.1044050000
   11      C      -1.2840420000     5.4301520000    -1.6327940000
   12      C      -1.0050810000     5.7446430000    -0.3189670000
   13      C      -0.7098480000     4.7434450000     0.6382360000
   14      C      -0.6683780000     3.4054920000     0.2769150000
   15      O      -2.0089900000     4.5939080000    -4.3193590000
   16      O      -0.3793550000     0.6836200000    -0.6868470000
   17      N      -1.5363380000     6.4741900000    -2.5628790000
   18      N      -0.4400200000     2.4053640000     1.2240470000
   19      C       0.2616120000     2.6889200000     2.4440790000
   20      H      -2.1317430000     2.7139480000    -5.8087960000
   21      H      -1.9684400000     0.3409370000    -6.5627100000
   22      H      -1.2300000000    -1.4214500000    -4.9244050000
   23      H      -0.6767480000    -0.7566100000    -2.5846290000
   24      H      -0.9846440000     6.7930040000    -0.0243540000
   25      H      -0.5357570000     5.0319200000     1.6697700000
   26      H      -1.8752850000     6.0442460000    -3.4418210000
   27      H      -2.1769600000     7.1616960000    -2.1854990000
   28      H      -0.2659480000     1.5051990000     0.7346780000
   29      H      -0.3502810000     3.2566950000     3.1632720000
   30      H       1.1931520000     3.2751380000     2.2961530000
   31      H       0.5320860000     1.7435270000     2.9279790000
 ----------------------------------------------------------------

    9    -839.2638772814      3.17e-06  Convergence criterion met
 Total energy in the final basis set =     -839.2638772814

                    Orbital Energies (a.u.)
 --------------------------------------------------------------

 Alpha MOs
 -- Occupied --
-19.0291 -19.0279 -14.2764 -14.2696 -10.1805 -10.1802 -10.1771 -10.1760
-10.1732 -10.1505 -10.1500 -10.1474 -10.1473 -10.1442 -10.1437 -10.1381
-10.1376 -10.1323 -10.1313  -0.9495  -0.9457  -0.8937  -0.8709  -0.8274
 -0.7940  -0.7500  -0.7250  -0.7091  -0.7002  -0.6513  -0.6344  -0.6026
 -0.5922  -0.5483  -0.5317  -0.5125  -0.4929  -0.4786  -0.4574  -0.4443
 -0.4384  -0.4326  -0.4207  -0.4165  -0.4025  -0.3998  -0.3837  -0.3803
 -0.3775  -0.3615  -0.3550  -0.3475  -0.3439  -0.3421  -0.3331  -0.3186
 -0.3088  -0.3060  -0.2895  -0.2408  -0.2317  -0.2267  -0.2160  -0.2101
 -0.1996  -0.1658  -0.1069

          Ground-State Mulliken Net Atomic Charges

     Atom                 Charge (a.u.)
  ----------------------------------------
      1 C                    -0.020087
      2 C                    -0.618658
      3 C                    -0.610596
      4 C                     0.076023
      5 C                     0.071398
      6 C                    -0.063405
      7 C                    -0.327597
      8 C                    -0.208355
      9 C                     0.552378
     10 C                     0.304932
     11 C                    -0.067987
     12 C                    -0.447707
     13 C                    -0.283548
     14 C                    -0.172755
     15 O                    -0.646582
     16 O                    -0.651781
     17 N                    -0.523396
     18 N                    -0.294585
     19 C                    -0.409890
     20 H                     0.152598
     21 H                     0.172554
     22 H                     0.173139
     23 H                     0.150009
     24 H                     0.162741
     25 H                     0.164654
     26 H                     0.307097
     27 H                     0.255629
     28 H                     0.381195
     29 H                     0.143100
     30 H                     0.134485
     31 H                     0.144997
  ----------------------------------------
  Sum of atomic charges =    -2.000000

                    Cartesian Multipole Moments
 -----------------------------------------------------------------
    Charge (ESU x 10^10)
                -9.6064
    Dipole Moment (Debye)
         X      10.6763      Y     -27.8435      Z      22.9503
       Tot      37.6293
    Quadrupole Moments (Debye-Ang)
        XX    -139.5155     XY      32.0753     YY    -238.4714
        XZ     -31.6506     YZ      80.3738     ZZ    -206.1077

 Total job time:  228.89s(wall), 454.56s(cpu)
        *  Thank you very much for using Q-Chem.  Have a nice day.  *
