 Q-Chem 5.4, Q-Chem, Inc., Pleasanton, CA (2021)
 Q-Chem 5.4.0 for Intel X86 EM64T Linux

User input:
--------------------------------------------------------------
$molecule
-1 2
C                  2.9196630000      0.2595630000     -0.0793570000
C                  1.4227190000      0.1068450000     -0.0274990000
C                  0.8179140000     -0.9684070000      0.5743510000
C                 -0.6149950000     -1.1517840000      0.6454460000
O                 -1.1412070000     -2.1574240000      1.2092370000
C                 -1.4227210000     -0.1068170000      0.0274380000
C                 -0.8179380000      0.9683810000     -0.5744230000
C                  0.6150100000      1.1517430000     -0.6455350000
O                  1.1411480000      2.1574010000     -1.2093880000
C                 -2.9196670000     -0.2595350000      0.0794480000
H                  3.4178960000     -0.5803780000      0.4139910000
H                  3.2365690000      1.1915940000      0.4016890000
H                  3.2727620000      0.3224140000     -1.1146790000
H                  1.4176990000     -1.7499680000      1.0364780000
H                 -1.4176610000      1.7499660000     -1.0365920000
H                 -3.2726160000     -0.3224690000      1.1148120000
H                 -3.4179300000      0.5804260000     -0.4138220000
H                 -3.2366430000     -1.1915510000     -0.4015940000
$end

$rem
BASIS  =  6-311++G(d,p)
GUI  =  2
JOB_TYPE  =  SP
METHOD  =  B3LYP
SCF_CONVERGENCE  = 8
SOLVENT_METHOD = sm12
$end

$smx
solvent dimethylformamide
charges CM5
$end

--------------------------------------------------------------

             Standard Nuclear Orientation (Angstroms)
    I     Atom           X                Y                Z
 ----------------------------------------------------------------
    1      C       2.9196630000     0.2595630000    -0.0793570000
    2      C       1.4227190000     0.1068450000    -0.0274990000
    3      C       0.8179140000    -0.9684070000     0.5743510000
    4      C      -0.6149950000    -1.1517840000     0.6454460000
    5      O      -1.1412070000    -2.1574240000     1.2092370000
    6      C      -1.4227210000    -0.1068170000     0.0274380000
    7      C      -0.8179380000     0.9683810000    -0.5744230000
    8      C       0.6150100000     1.1517430000    -0.6455350000
    9      O       1.1411480000     2.1574010000    -1.2093880000
   10      C      -2.9196670000    -0.2595350000     0.0794480000
   11      H       3.4178960000    -0.5803780000     0.4139910000
   12      H       3.2365690000     1.1915940000     0.4016890000
   13      H       3.2727620000     0.3224140000    -1.1146790000
   14      H       1.4176990000    -1.7499680000     1.0364780000
   15      H      -1.4176610000     1.7499660000    -1.0365920000
   16      H      -3.2726160000    -0.3224690000     1.1148120000
   17      H      -3.4179300000     0.5804260000    -0.4138220000
   18      H      -3.2366430000    -1.1915510000    -0.4015940000
 ----------------------------------------------------------------

   16    -460.2974437237      3.97e-09  Convergence criterion met
 Total energy in the final basis set =     -460.3835989568

                    Orbital Energies (a.u.)
 --------------------------------------------------------------

 Alpha MOs
 -- Occupied --
-19.0758 -19.0758 -10.2186 -10.2186 -10.1774 -10.1774 -10.1694 -10.1694
-10.1654 -10.1654  -0.9961  -0.9938  -0.8317  -0.7859  -0.7190  -0.6986
 -0.6444  -0.5958  -0.5455  -0.4901  -0.4600  -0.4419  -0.4351  -0.4191
 -0.4084  -0.4052  -0.3973  -0.3788  -0.3788  -0.3667  -0.3628  -0.3544
 -0.2788  -0.2538  -0.2408  -0.2355  -0.1618

 Beta MOs
 -- Occupied --
-19.0685 -19.0685 -10.2174 -10.2174 -10.1760 -10.1760 -10.1695 -10.1695
-10.1646 -10.1646  -0.9836  -0.9809  -0.8259  -0.7835  -0.7174  -0.6924
 -0.6388  -0.5920  -0.5414  -0.4882  -0.4558  -0.4390  -0.4274  -0.4159
 -0.4069  -0.4029  -0.3918  -0.3779  -0.3650  -0.3593  -0.3520  -0.3385
 -0.2459  -0.2448  -0.2340  -0.2290

          Ground-State Mulliken Net Atomic Charges

     Atom                 Charge (a.u.)    Spin (a.u.)
  --------------------------------------------------------
      1 C                     0.568577       0.005886
      2 C                     0.850551       0.107729
      3 C                    -0.886149       0.043610
      4 C                    -1.432462       0.076468
      5 O                    -0.353784       0.263908
      6 C                     0.850482       0.107693
      7 C                    -0.886326       0.043565
      8 C                    -1.432690       0.076463
      9 O                    -0.353793       0.263924
     10 C                     0.568543       0.005886
     11 H                     0.254803      -0.000124
     12 H                     0.189378       0.005095
     13 H                     0.189627       0.005084
     14 H                     0.119724      -0.007621
     15 H                     0.119731      -0.007619
     16 H                     0.189619       0.005082
     17 H                     0.254792      -0.000124
     18 H                     0.189375       0.005094
  --------------------------------------------------------
  Sum of atomic charges =    -1.000000

                    Cartesian Multipole Moments
 -----------------------------------------------------------------
    Charge (ESU x 10^10)
                -4.8032
    Dipole Moment (Debye)
         X       0.0000      Y       0.0000      Z       0.0004
       Tot       0.0004
    Quadrupole Moments (Debye-Ang)
        XX     -69.2170     XY     -12.2761     YY     -87.8351
        XZ       6.9096     YZ      13.3557     ZZ     -71.5204

 Total job time:  199.07s(wall), 1443.48s(cpu)
        *  Thank you very much for using Q-Chem.  Have a nice day.  *
