 Q-Chem 5.4, Q-Chem, Inc., Pleasanton, CA (2021)
 Q-Chem 5.4.0 for Intel X86 EM64T Linux

User input:
--------------------------------------------------------------
$molecule
0 1
C                  1.7060970000      1.4281280000     -0.5486290000
C                  0.3233550000      1.8574960000     -0.1717500000
C                 -0.5871900000      0.9343730000      0.1997260000
C                 -0.2153590000     -0.5136010000      0.2830720000
C                  1.1371160000     -0.9551350000     -0.1303310000
C                  2.0649950000     -0.0358570000     -0.5095560000
O                  2.5406760000      2.2387650000     -0.9011110000
O                 -1.0268850000     -1.3248050000      0.7098400000
O                  3.3407390000     -0.2239480000     -0.8578340000
C                  3.8837970000     -1.5205390000     -1.1470150000
C                  0.0443050000      3.3360360000     -0.2507060000
C                 -2.0038470000      1.2471300000      0.5838240000
H                  4.8902890000     -1.3195430000     -1.5102680000
H                  3.3031690000     -2.0177270000     -1.9274400000
H                  3.9160610000     -2.1452720000     -0.2563480000
O                  1.4658320000     -2.2691800000      0.0358450000
C                  0.7155380000     -3.2460100000     -0.7079970000
H                  1.1683520000     -4.2071240000     -0.4680580000
H                  0.8095310000     -3.0562030000     -1.7832080000
H                 -0.3322520000     -3.2428880000     -0.4125640000
H                  0.9496980000      3.8737960000     -0.5258270000
H                 -0.3128620000      3.7227670000      0.7073630000
H                 -0.7231770000      3.5529030000     -0.9996930000
H                 -2.2262990000      2.3084970000      0.4927670000
H                 -2.1986130000      0.9299420000      1.6121600000
H                 -2.7021460000      0.6842600000     -0.0419310000
$end

$rem
BASIS  =  6-311++G(d,p)
GUI  =  2
JOB_TYPE  =  SP
METHOD  =  B3LYP
SCF_CONVERGENCE  = 8
SOLVENT_METHOD = sm12
$end

$smx
solvent dimethylformamide
charges CM5
$end

--------------------------------------------------------------

             Standard Nuclear Orientation (Angstroms)
    I     Atom           X                Y                Z
 ----------------------------------------------------------------
    1      C       1.7060970000     1.4281280000    -0.5486290000
    2      C       0.3233550000     1.8574960000    -0.1717500000
    3      C      -0.5871900000     0.9343730000     0.1997260000
    4      C      -0.2153590000    -0.5136010000     0.2830720000
    5      C       1.1371160000    -0.9551350000    -0.1303310000
    6      C       2.0649950000    -0.0358570000    -0.5095560000
    7      O       2.5406760000     2.2387650000    -0.9011110000
    8      O      -1.0268850000    -1.3248050000     0.7098400000
    9      O       3.3407390000    -0.2239480000    -0.8578340000
   10      C       3.8837970000    -1.5205390000    -1.1470150000
   11      C       0.0443050000     3.3360360000    -0.2507060000
   12      C      -2.0038470000     1.2471300000     0.5838240000
   13      H       4.8902890000    -1.3195430000    -1.5102680000
   14      H       3.3031690000    -2.0177270000    -1.9274400000
   15      H       3.9160610000    -2.1452720000    -0.2563480000
   16      O       1.4658320000    -2.2691800000     0.0358450000
   17      C       0.7155380000    -3.2460100000    -0.7079970000
   18      H       1.1683520000    -4.2071240000    -0.4680580000
   19      H       0.8095310000    -3.0562030000    -1.7832080000
   20      H      -0.3322520000    -3.2428880000    -0.4125640000
   21      H       0.9496980000     3.8737960000    -0.5258270000
   22      H      -0.3128620000     3.7227670000     0.7073630000
   23      H      -0.7231770000     3.5529030000    -0.9996930000
   24      H      -2.2262990000     2.3084970000     0.4927670000
   25      H      -2.1986130000     0.9299420000     1.6121600000
   26      H      -2.7021460000     0.6842600000    -0.0419310000
 ----------------------------------------------------------------

   15    -689.3250090085      9.42e-09  Convergence criterion met
 Total energy in the final basis set =     -689.3374401402

                    Orbital Energies (a.u.)
 --------------------------------------------------------------

 Alpha MOs
 -- Occupied --
-19.1719 -19.1534 -19.1330 -19.1267 -10.2810 -10.2755 -10.2624 -10.2467
-10.2211 -10.2147 -10.2083 -10.2074 -10.1704 -10.1691  -1.0975  -1.0747
 -1.0607  -1.0487  -0.8593  -0.8048  -0.7477  -0.7380  -0.7112  -0.6692
 -0.6596  -0.5935  -0.5882  -0.5506  -0.5274  -0.5096  -0.4917  -0.4684
 -0.4592  -0.4580  -0.4506  -0.4464  -0.4365  -0.4229  -0.4139  -0.4102
 -0.4058  -0.3939  -0.3879  -0.3777  -0.3655  -0.3525  -0.3489  -0.3112
 -0.2833  -0.2803  -0.2673  -0.2394

          Ground-State Mulliken Net Atomic Charges

     Atom                 Charge (a.u.)
  ----------------------------------------
      1 C                    -1.671792
      2 C                     0.681245
      3 C                     0.813188
      4 C                    -1.070043
      5 C                     0.287692
      6 C                    -0.046396
      7 O                    -0.307399
      8 O                    -0.301641
      9 O                    -0.216569
     10 C                    -0.135778
     11 C                    -0.074796
     12 C                     0.017102
     13 H                     0.242973
     14 H                     0.220582
     15 H                     0.191245
     16 O                    -0.190272
     17 C                    -0.195219
     18 H                     0.216410
     19 H                     0.180262
     20 H                     0.127754
     21 H                     0.161194
     22 H                     0.224831
     23 H                     0.232121
     24 H                     0.253849
     25 H                     0.181491
     26 H                     0.177966
  ----------------------------------------
  Sum of atomic charges =     0.000000

                    Cartesian Multipole Moments
 -----------------------------------------------------------------
    Charge (ESU x 10^10)
                -0.0000
    Dipole Moment (Debye)
         X      -1.0572      Y      -1.4170      Z      -1.3045
       Tot       2.1971
    Quadrupole Moments (Debye-Ang)
        XX     -84.6914     XY     -17.0713     YY     -77.1654
        XZ       0.4995     YZ       9.5945     ZZ     -82.3288

 Total job time:  424.96s(wall), 3327.45s(cpu)
        *  Thank you very much for using Q-Chem.  Have a nice day.  *
