 Gaussian 16, Revision A.03,
 Gaussian 16:  ES64L-G16RevA.03 25-Dec-2016

 ----------------------------------------------------------------------
 #P UB3LYP/6-311++G(d,p) nosym opt freq SCRF=(PCM,Solvent=n,n-DiMethylF
 ormamide)
 ----------------------------------------------------------------------

 -------
 Radical
 -------
 Symbolic Z-matrix:
 Charge = -1 Multiplicity = 2

 SCF Done:  E(UB3LYP) =  -842.989481171     A.U. after   18 cycles
 SCF Done:  E(UB3LYP) =  -842.989766470     A.U. after   13 cycles
 SCF Done:  E(UB3LYP) =  -842.989804726     A.U. after   12 cycles
 SCF Done:  E(UB3LYP) =  -842.989799497     A.U. after   12 cycles
 SCF Done:  E(UB3LYP) =  -842.989813431     A.U. after   11 cycles
 SCF Done:  E(UB3LYP) =  -842.989817634     A.U. after   10 cycles
 SCF Done:  E(UB3LYP) =  -842.989821797     A.U. after   11 cycles
 SCF Done:  E(UB3LYP) =  -842.989822369     A.U. after   10 cycles
 SCF Done:  E(UB3LYP) =  -842.989822731     A.U. after   10 cycles
 SCF Done:  E(UB3LYP) =  -842.989822769     A.U. after    8 cycles
 SCF Done:  E(UB3LYP) =  -842.989822831     A.U. after    9 cycles
 Optimization completed.
    -- Stationary point found.
 Normal termination of Gaussian 16 at Sat Feb 10 23:08:10 2024.

 ----------------------------------------------------------------------
 #P Geom=AllCheck Guess=TCheck SCRF=Check GenChk UB3LYP/6-311++G(d,p) F
 req
 ----------------------------------------------------------------------

 Structure from the checkpoint file:  "214-rad.chk"
 -------
 Radical
 -------
 Charge = -1 Multiplicity = 2

                          Input orientation:
 ---------------------------------------------------------------------
 Center     Atomic      Atomic             Coordinates (Angstroms)
 Number     Number       Type             X           Y           Z
 ---------------------------------------------------------------------
      1          6           0        5.064887   -2.258378    0.686067
      2          6           0        5.884798   -1.429325   -0.052785
      3          6           0        5.323677   -0.552560   -1.006740
      4          6           0        3.661486   -2.252086    0.510653
      5          6           0        3.094638   -1.365459   -0.452784
      6          6           0        3.956526   -0.527053   -1.196819
      7          6           0        2.831460   -3.147104    1.313378
      8          6           0        1.390271   -3.085656    1.081906
      9          6           0        0.825323   -2.200073    0.119142
     10          6           0        1.653201   -1.305690   -0.684948
     11          6           0        0.528986   -3.924755    1.825643
     12          6           0       -0.577511   -2.202419   -0.054238
     13          6           0       -1.391843   -3.033382    0.685746
     14          8           0        3.335372   -3.934120    2.165156
     15          8           0        1.149451   -0.520149   -1.537411
     16          1           0        5.480929   -2.936235    1.421558
     17          1           0        6.958809   -1.450011    0.097784
     18          1           0        5.967223    0.098991   -1.588002
     19          1           0       -2.465636   -3.019036    0.525268
     20          1           0        3.511308    0.140277   -1.924869
     21          1           0        0.981158   -4.592605    2.550341
     22          1           0       -0.999979   -1.532312   -0.793276
     23          6           0       -0.843461   -3.916266    1.649760
     24          6           0       -1.748689   -4.801165    2.477289
     25          6           0       -2.373334   -4.052140    3.653734
     26          8           0       -3.230882   -4.962527    4.358400
     27          1           0       -1.186075   -5.654288    2.866806
     28          1           0       -2.557143   -5.199196    1.854815
     29          1           0       -2.949484   -3.192298    3.291706
     30          1           0       -1.585658   -3.679105    4.319009
     31          1           0       -3.612040   -4.499435    5.112130
 ---------------------------------------------------------------------

 SCF Done:  E(UB3LYP) =  -842.989822831     A.U. after    1 cycles

 Alpha  occ. eigenvalues --  -19.12897 -19.07478 -19.07458 -10.22347 -10.22288
 Alpha  occ. eigenvalues --  -10.21871 -10.18175 -10.17311 -10.17277 -10.17267
 Alpha  occ. eigenvalues --  -10.17259 -10.17211 -10.17193 -10.17161 -10.17123
 Alpha  occ. eigenvalues --  -10.17006 -10.17005 -10.16992 -10.16774  -1.02624
 Alpha  occ. eigenvalues --   -0.99898  -0.99628  -0.86300  -0.85285  -0.79912
 Alpha  occ. eigenvalues --   -0.76779  -0.75046  -0.74568  -0.72295  -0.66686
 Alpha  occ. eigenvalues --   -0.64264  -0.62478  -0.59823  -0.58622  -0.55597
 Alpha  occ. eigenvalues --   -0.53256  -0.52825  -0.50752  -0.48190  -0.46944
 Alpha  occ. eigenvalues --   -0.45816  -0.45187  -0.44121  -0.42600  -0.42332
 Alpha  occ. eigenvalues --   -0.42194  -0.41678  -0.41080  -0.40864  -0.39812
 Alpha  occ. eigenvalues --   -0.37833  -0.37231  -0.36670  -0.36305  -0.34898
 Alpha  occ. eigenvalues --   -0.34299  -0.34203  -0.33175  -0.33027  -0.28584
 Alpha  occ. eigenvalues --   -0.26584  -0.25783  -0.25422  -0.24544  -0.24499
 Alpha  occ. eigenvalues --   -0.23696  -0.14219
 Alpha virt. eigenvalues --   -0.05424  -0.02161  -0.00486  -0.00411   0.00003
 Alpha virt. eigenvalues --    0.00888   0.01299   0.01962   0.02136   0.03044
 Alpha virt. eigenvalues --    0.03943   0.04278   0.04550   0.05089   0.05267

  Beta  occ. eigenvalues --  -19.12897 -19.06928 -19.06894 -10.22171 -10.22104
  Beta  occ. eigenvalues --  -10.21865 -10.18126 -10.17234 -10.17212 -10.17200
  Beta  occ. eigenvalues --  -10.17197 -10.17189 -10.17163 -10.17098 -10.17079
  Beta  occ. eigenvalues --  -10.17003 -10.16999 -10.16987 -10.16765  -1.02621
  Beta  occ. eigenvalues --   -0.98926  -0.98627  -0.86057  -0.85157  -0.79647
  Beta  occ. eigenvalues --   -0.76558  -0.74811  -0.74400  -0.72148  -0.65979
  Beta  occ. eigenvalues --   -0.64114  -0.62300  -0.59670  -0.58557  -0.55351
  Beta  occ. eigenvalues --   -0.53077  -0.52735  -0.50619  -0.48132  -0.46646
  Beta  occ. eigenvalues --   -0.45680  -0.45124  -0.44028  -0.42343  -0.42286
  Beta  occ. eigenvalues --   -0.42076  -0.40791  -0.40625  -0.40431  -0.39560
  Beta  occ. eigenvalues --   -0.37132  -0.36533  -0.36115  -0.35475  -0.34677
  Beta  occ. eigenvalues --   -0.34255  -0.34056  -0.32887  -0.32130  -0.28573
  Beta  occ. eigenvalues --   -0.25403  -0.24540  -0.24477  -0.24030  -0.23921
  Beta  occ. eigenvalues --   -0.23181
  Beta virt. eigenvalues --   -0.08310  -0.04479  -0.01166  -0.00470  -0.00199
  Beta virt. eigenvalues --    0.00019   0.00899   0.01313   0.01998   0.02136
  Beta virt. eigenvalues --    0.03055   0.03947   0.04298   0.04706   0.05267

 Mulliken charges and spin densities:
               1          2
     1  C    0.044043   0.028976
     2  C   -0.456937   0.034630
     3  C   -0.456201   0.039268
     4  C    0.344228   0.032855
     5  C    0.137713   0.033055
     6  C    0.088122   0.027150
     7  C   -0.640660   0.106012
     8  C    0.245502   0.051063
     9  C    0.085515   0.030130
    10  C   -0.705514   0.099059
    11  C   -0.300268   0.021985
    12  C    0.091648   0.025970
    13  C   -0.456384   0.038037
    14  O   -0.461319   0.209680
    15  O   -0.465028   0.204085
    16  H    0.162188  -0.001693
    17  H    0.181862  -0.002952
    18  H    0.180784  -0.003224
    19  H    0.185274  -0.002966
    20  H    0.165354  -0.001421
    21  H    0.163572  -0.001750
    22  H    0.172800  -0.001472
    23  C    0.586796   0.032789
    24  C    0.034156   0.000442
    25  C   -0.528074  -0.001630
    26  O   -0.350218   0.000199
    27  H    0.172689   0.000041
    28  H    0.169714   0.001553
    29  H    0.164074  -0.000343
    30  H    0.163861   0.000440
    31  H    0.280711   0.000031
 Sum of Mulliken charges =  -1.00000   1.00000

 Dipole moment (field-independent basis, Debye):
    X=            -10.6285    Y=             12.5698    Z=             -0.9051  Tot=             16.4859
 Quadrupole moment (field-independent basis, Debye-Ang):
   XX=           -140.0580   YY=           -170.5900   ZZ=           -125.0958
   XY=             26.9954   XZ=            -14.9959   YZ=             21.1922

  Exact polarizability: 473.108  54.986 281.592 -24.159-120.964 282.206
 Approx polarizability: 490.077  36.287 320.399  -1.381-138.099 320.909

                      1                      2                      3
                      A                      A                      A
 Frequencies --     26.9735                39.6093                74.6988
 Red. masses --      3.6054                 6.0659                 6.5773
 Frc consts  --      0.0015                 0.0056                 0.0216
 IR Inten    --      3.2378                 4.9422                12.2778

                      4                      5                      6
                      A                      A                      A
 Frequencies --     87.4603               121.2575               148.4647
 Red. masses --      2.7435                 3.9945                 5.0030
 Frc consts  --      0.0124                 0.0346                 0.0650
 IR Inten    --     17.3382                 0.8384                 0.9031

                      7                      8                      9
                      A                      A                      A
 Frequencies --    165.0993               191.1450               220.8100
 Red. masses --      7.8379                 3.9710                 5.2735
 Frc consts  --      0.1259                 0.0855                 0.1515
 IR Inten    --      4.4682                 8.7046                 0.4587

                     10                     11                     12
                      A                      A                      A
 Frequencies --    243.9501               266.2555               287.8262
 Red. masses --      1.0684                 5.7191                 7.0248
 Frc consts  --      0.0375                 0.2389                 0.3429
 IR Inten    --    179.7470                 1.1769                 3.0489

                     13                     14                     15
                      A                      A                      A
 Frequencies --    331.0828               370.1730               378.6552
 Red. masses --      4.6174                 3.6902                10.3006
 Frc consts  --      0.2982                 0.2979                 0.8702
 IR Inten    --      6.3871                10.1681                16.4624

                     16                     17                     18
                      A                      A                      A
 Frequencies --    403.5759               418.7836               440.4578
 Red. masses --      6.7492                 3.7315                 5.1849
 Frc consts  --      0.6477                 0.3856                 0.5927
 IR Inten    --     22.5495                 1.8977                 4.6503

                     19                     20                     21
                      A                      A                      A
 Frequencies --    454.3672               467.1494               493.9719
 Red. masses --      5.6253                 3.1682                10.8270
 Frc consts  --      0.6842                 0.4074                 1.5565
 IR Inten    --      3.5162                 0.1050                 2.3694

                     22                     23                     24
                      A                      A                      A
 Frequencies --    546.1381               610.0511               638.7922
 Red. masses --      4.4868                 5.6679                 6.7485
 Frc consts  --      0.7885                 1.2428                 1.6225
 IR Inten    --     15.1174                34.6520                12.9998

                     25                     26                     27
                      A                      A                      A
 Frequencies --    657.8647               678.2244               698.1186
 Red. masses --      4.2042                 5.6431                 6.2120
 Frc consts  --      1.0720                 1.5294                 1.7838
 IR Inten    --     21.8587                14.2341                 1.5296

                     28                     29                     30
                      A                      A                      A
 Frequencies --    707.2176               735.7862               768.7893
 Red. masses --      2.7303                 4.4697                 4.3948
 Frc consts  --      0.8046                 1.4257                 1.5304
 IR Inten    --     99.1174                 0.6961                 3.1018

                     31                     32                     33
                      A                      A                      A
 Frequencies --    788.1590               801.0030               801.6655
 Red. masses --      1.7813                 1.1979                 3.7721
 Frc consts  --      0.6520                 0.4528                 1.4283
 IR Inten    --     29.6568                 0.4371                 0.7402

                     34                     35                     36
                      A                      A                      A
 Frequencies --    844.7196               863.4402               885.3919
 Red. masses --      1.7135                 4.6579                 1.4701
 Frc consts  --      0.7204                 2.0460                 0.6790
 IR Inten    --     37.3258                 4.3767                 0.1196

                     37                     38                     39
                      A                      A                      A
 Frequencies --    929.5301               933.8133               982.8267
 Red. masses --      1.5333                 5.9415                 3.2015
 Frc consts  --      0.7806                 3.0526                 1.8220
 IR Inten    --     13.9461                48.2785                 7.1874

                     40                     41                     42
                      A                      A                      A
 Frequencies --    989.6435               993.8606              1001.6330
 Red. masses --      1.3543                 1.3390                 1.2851
 Frc consts  --      0.7815                 0.7793                 0.7597
 IR Inten    --      1.7155                 2.8284                 0.0147

                     43                     44                     45
                      A                      A                      A
 Frequencies --   1008.5052              1027.4108              1037.6804
 Red. masses --      2.5830                 6.1116                 1.9807
 Frc consts  --      1.5478                 3.8010                 1.2566
 IR Inten    --     18.0307               222.8440                30.3403

                     46                     47                     48
                      A                      A                      A
 Frequencies --   1062.8736              1109.8543              1122.2524
 Red. masses --      1.6204                 2.4940                 2.0325
 Frc consts  --      1.0785                 1.8100                 1.5082
 IR Inten    --      0.8227                42.8878                 3.8439

                     49                     50                     51
                      A                      A                      A
 Frequencies --   1148.7841              1154.0728              1195.4811
 Red. masses --      1.5907                 1.3920                 2.2185
 Frc consts  --      1.2369                 1.0923                 1.8681
 IR Inten    --     11.2016                11.5086                 2.7366

                     52                     53                     54
                      A                      A                      A
 Frequencies --   1213.6057              1216.9721              1221.6762
 Red. masses --      1.4541                 2.0310                 1.7956
 Frc consts  --      1.2618                 1.7722                 1.5790
 IR Inten    --     14.4211                32.2218                44.3150

                     55                     56                     57
                      A                      A                      A
 Frequencies --   1227.4634              1241.5642              1265.1858
 Red. masses --      1.2066                 2.6528                 1.9985
 Frc consts  --      1.0711                 2.4093                 1.8848
 IR Inten    --     33.2919                31.3324               316.8181

                     58                     59                     60
                      A                      A                      A
 Frequencies --   1308.7051              1330.5112              1345.8532
 Red. masses --      1.1714                 1.5142                 1.9878
 Frc consts  --      1.1820                 1.5794                 2.1214
 IR Inten    --     15.9692                 6.0083                29.5500

                     61                     62                     63
                      A                      A                      A
 Frequencies --   1357.9703              1366.3364              1407.9995
 Red. masses --     10.4855                 7.0999                 2.9944
 Frc consts  --     11.3925                 7.8094                 3.4976
 IR Inten    --     11.9404                 6.1960              1255.0589

                     64                     65                     66
                      A                      A                      A
 Frequencies --   1436.5667              1460.3939              1473.6976
 Red. masses --      1.3982                 3.0120                 3.2962
 Frc consts  --      1.7001                 3.7848                 4.2178
 IR Inten    --     14.5121               316.9635               179.6763

                     67                     68                     69
                      A                      A                      A
 Frequencies --   1485.4995              1493.8997              1500.9518
 Red. masses --      1.1035                 3.7087                 4.5788
 Frc consts  --      1.4348                 4.8766                 6.0777
 IR Inten    --      5.7648               104.9256               774.8695

                     70                     71                     72
                      A                      A                      A
 Frequencies --   1516.9300              1523.8017              1555.0023
 Red. masses --      1.0868                 4.9017                 5.4184
 Frc consts  --      1.4734                 6.7058                 7.7193
 IR Inten    --      6.5619                42.4794               103.1287

                     73                     74                     75
                      A                      A                      A
 Frequencies --   1605.4257              1623.9661              1636.9620
 Red. masses --      8.5192                 5.6382                 6.3732
 Frc consts  --     12.9368                 8.7608                10.0620
 IR Inten    --      2.9551                 5.8246                10.8163

                     76                     77                     78
                      A                      A                      A
 Frequencies --   2997.4859              3026.5020              3032.6624
 Red. masses --      1.0547                 1.0678                 1.0988
 Frc consts  --      5.5833                 5.7624                 5.9542
 IR Inten    --     56.8463                68.2559                54.5645

                     79                     80                     81
                      A                      A                      A
 Frequencies --   3075.1834              3153.8483              3158.5792
 Red. masses --      1.1048                 1.0886                 1.0859
 Frc consts  --      6.1559                 6.3796                 6.3831
 IR Inten    --     61.1558                27.8240                13.0076

                     82                     83                     84
                      A                      A                      A
 Frequencies --   3172.3975              3173.9407              3187.7732
 Red. masses --      1.0900                 1.0895                 1.0920
 Frc consts  --      6.4634                 6.4667                 6.5380
 IR Inten    --     19.4699                17.1902                15.2255

                     85                     86                     87
                      A                      A                      A
 Frequencies --   3188.2803              3191.4999              3827.3475
 Red. masses --      1.0921                 1.0947                 1.0668
 Frc consts  --      6.5404                 6.5695                 9.2070
 IR Inten    --     31.2477                42.1317                69.8278

 - Thermochemistry -
 -------------------
 Temperature   298.150 Kelvin.  Pressure   1.00000 Atm.
 Atom     1 has atomic number  6 and mass  12.00000

 Molecular mass:   252.07864 amu.
 Principal axes and moments of inertia in atomic units:
                           1         2         3
     Eigenvalues --  1947.284409197.89837**********
           X            0.81703   0.57573  -0.03168
           Y            0.38489  -0.50365   0.77343
           Z           -0.42933   0.64411   0.63309
 This molecule is an asymmetric top.
 Rotational symmetry number  1.
 Warning -- assumption of classical behavior for rotation
           may cause significant error
 Rotational temperatures (Kelvin)      0.04448     0.00942     0.00795
 Rotational constants (GHZ):           0.92680     0.19621     0.16567
 Zero-point vibrational energy     624198.2 (Joules/Mol)
                                  149.18695 (Kcal/Mol)
 Warning -- explicit consideration of  23 degrees of freedom as
           vibrations may cause significant error
 Vibrational temperatures:     38.81    56.99   107.47   125.84   174.46
          (Kelvin)            213.61   237.54   275.02   317.70   350.99
                              383.08   414.12   476.35   532.60   544.80
                              580.66   602.54   633.72   653.73   672.12
                              710.72   785.77   877.73   919.08   946.52
                              975.81  1004.44  1017.53  1058.63  1106.12
                             1133.99  1152.46  1153.42  1215.36  1242.30
                             1273.88  1337.39  1343.55  1414.07  1423.88
                             1429.94  1441.13  1451.01  1478.22  1492.99
                             1529.24  1596.83  1614.67  1652.84  1660.45
                             1720.03  1746.11  1750.95  1757.72  1766.05
                             1786.33  1820.32  1882.93  1914.31  1936.38
                             1953.82  1965.85  2025.80  2066.90  2101.18
                             2120.32  2137.30  2149.39  2159.53  2182.52
                             2192.41  2237.30  2309.85  2336.52  2355.22
                             4312.71  4354.46  4363.32  4424.50  4537.68
                             4544.49  4564.37  4566.59  4586.49  4587.22
                             4591.86  5506.70

 Zero-point correction=                           0.237745 (Hartree/Particle)
 Thermal correction to Energy=                    0.253231
 Thermal correction to Enthalpy=                  0.254175
 Thermal correction to Gibbs Free Energy=         0.193313
 Sum of electronic and zero-point Energies=           -842.752078
 Sum of electronic and thermal Energies=              -842.736592
 Sum of electronic and thermal Enthalpies=            -842.735648
 Sum of electronic and thermal Free Energies=         -842.796510

                     E (Thermal)             CV                S
                      KCal/Mol        Cal/Mol-Kelvin    Cal/Mol-Kelvin
 Total                  158.905             60.687            128.096
 Electronic               0.000              0.000              1.377
 Translational            0.889              2.981             42.474
 Rotational               0.889              2.981             33.633
 Vibrational            157.127             54.726             50.611
 Vibration     1          0.593              1.984              6.040
 Vibration     2          0.594              1.981              5.279
 Vibration     3          0.599              1.966              4.026
 Vibration     4          0.601              1.958              3.716
 Vibration     5          0.609              1.931              3.080
 Vibration     6          0.618              1.904              2.692
 Vibration     7          0.623              1.885              2.491
 Vibration     8          0.634              1.852              2.217
 Vibration     9          0.648              1.809              1.952
 Vibration    10          0.659              1.773              1.774
 Vibration    11          0.672              1.735              1.620
 Vibration    12          0.685              1.696              1.487
 Vibration    13          0.713              1.613              1.255
 Vibration    14          0.742              1.533              1.079
 Vibration    15          0.749              1.516              1.045
 Vibration    16          0.769              1.462              0.950
 Vibration    17          0.782              1.429              0.896
 Vibration    18          0.800              1.382              0.825
 Vibration    19          0.813              1.351              0.783
 Vibration    20          0.824              1.323              0.746
 Vibration    21          0.850              1.263              0.673
 Vibration    22          0.901              1.148              0.552
 Vibration    23          0.969              1.011              0.433

 Optimization completed.
    -- Stationary point found.
 Normal termination of Gaussian 16 at Sun Feb 11 00:19:40 2024.
