 Q-Chem 5.4, Q-Chem, Inc., Pleasanton, CA (2021)
 Q-Chem 5.4.0 for Intel X86 EM64T Linux

User input:
--------------------------------------------------------------
$molecule
0 1
N                 -3.4464670000      1.5826470000      0.4247530000
C                 -2.8460190000      0.3611830000      0.2761890000
C                 -3.6746640000     -0.7881560000      0.2482380000
C                 -3.1552480000     -2.0465480000      0.1341960000
C                 -1.7587330000     -2.2723020000      0.0496500000
N                 -1.3241070000     -3.5626240000     -0.0950390000
C                 -0.8975440000     -1.1477090000      0.0833760000
C                  0.5551490000     -1.3415690000      0.0396620000
O                  1.0352250000     -2.5017410000     -0.0164930000
C                  1.4457060000     -0.1769970000      0.0616270000
C                  2.8497960000     -0.3643960000      0.0319260000
N                  3.4568940000     -1.5914320000      0.0547840000
C                  3.6767000000      0.7863910000      0.0140710000
C                  3.1532000000      2.0482280000      0.0217850000
C                  1.7549020000      2.2755070000      0.0602720000
N                  1.3136790000      3.5713530000      0.0329970000
C                  0.8960460000      1.1489630000      0.0881240000
C                 -0.5551900000      1.3415780000      0.1695590000
O                 -1.0353110000      2.5017370000      0.2259760000
C                 -1.4442790000      0.1757950000      0.1850150000
H                 -2.8561410000      2.3973570000      0.3098350000
H                 -4.4382080000      1.6500790000      0.2689460000
H                 -4.7495510000     -0.6548860000      0.3210690000
H                 -3.8220320000     -2.9027220000      0.1056910000
H                 -1.9687300000     -4.3092340000      0.1035700000
H                 -0.3262940000     -3.7180120000     -0.0196410000
H                  4.4333430000     -1.6462120000     -0.1817460000
H                  2.8573930000     -2.3984060000     -0.0670550000
H                  4.7536570000      0.6513380000     -0.0051320000
H                  3.8179170000      2.9061190000     -0.0030430000
H                  0.3251290000      3.7193040000      0.1952240000
H                  1.9737840000      4.3053660000      0.2276220000
$end
$rem
MAX_SCF_CYCLES=200
BASIS  =  6-311++G(d,p)
GUI  =  2
JOB_TYPE  =  SP
METHOD  =  B3LYP
SOLVENT_METHOD = COSMO
$end
$solvent
dielectric 37.219
opticaldielectric 1.43
$end

--------------------------------------------------------------

             Standard Nuclear Orientation (Angstroms)
    I     Atom           X                Y                Z
 ----------------------------------------------------------------
    1      N      -2.5833198354    -2.7916922947    -0.1352504792
    2      C      -2.4934982307    -1.4281786440    -0.0495418453
    3      C      -3.6984302524    -0.6825064507    -0.0266129423
    4      C      -3.6983907410     0.6826020128     0.0265647375
    5      C      -2.4934370292     1.4282035529     0.0496284664
    6      N      -2.5832073604     2.7917665294     0.1356681494
    7      C      -1.2680736380     0.7175475096     0.0188729765
    8      C       0.0000183087     1.4533440559     0.0000097149
    9      O       0.0000163747     2.7101755546     0.0000667214
   10      C       1.2680952335     0.7175264844    -0.0188473495
   11      C       2.4934567697     1.4281682592    -0.0496148029
   12      N       2.5832670105     2.7917141863    -0.1355475702
   13      C       3.6984093557     0.6825389358    -0.0266817918
   14      C       3.6984102930    -0.6825636742     0.0266026765
   15      C       2.4934738001    -1.4281981731     0.0496576511
   16      N       2.5832987378    -2.7917046809     0.1357970786
   17      C       1.2680741772    -0.7175985297     0.0187601209
   18      C      -0.0000333435    -1.4533729448    -0.0001462611
   19      O      -0.0000840812    -2.7102213265    -0.0004636110
   20      C      -1.2680956268    -0.7175470351    -0.0187585509
   21      H      -1.7233310332    -3.3131259477    -0.0170577434
   22      H      -3.4695620405    -3.2258056405     0.0609470327
   23      H      -4.6415727172    -1.2193593983    -0.0534180521
   24      H      -4.6415072295     1.2195072868     0.0532362923
   25      H      -3.4691954647     3.2258618252    -0.0618089185
   26      H      -1.7231809968     3.3129798754     0.0167043997
   27      H       3.4694301238     3.2258191550     0.0610936044
   28      H       1.7233181710     3.3130696964    -0.0166793524
   29      H       4.6415233941     1.2194347886    -0.0535742027
   30      H       4.6415257738    -1.2194629506     0.0533317718
   31      H       1.7234079127    -3.3131210178     0.0168392169
   32      H       3.4695414327    -3.2258098314    -0.0604659842
 ----------------------------------------------------------------

    9    -910.4792068343      3.83e-06  Convergence criterion met
 Total energy in the final basis set =     -910.4792068343
    4    -910.5034248279      9.62e-06  Convergence criterion met
 Total energy in the final basis set =     -910.5034248279

                    Orbital Energies (a.u.)
 --------------------------------------------------------------

 Alpha MOs
 -- Occupied --
-19.1058 -19.1058 -14.3197 -14.3197 -14.3197 -14.3197 -10.2604 -10.2604
-10.2310 -10.2309 -10.2309 -10.2309 -10.1890 -10.1890 -10.1886 -10.1886
-10.1876 -10.1876 -10.1870 -10.1870  -1.0402  -1.0379  -0.9370  -0.9320
 -0.9261  -0.9212  -0.8525  -0.8336  -0.7973  -0.7617  -0.7404  -0.7252
 -0.6753  -0.6553  -0.6539  -0.6040  -0.5831  -0.5802  -0.5603  -0.5407
 -0.5303  -0.5206  -0.5075  -0.5006  -0.4972  -0.4828  -0.4645  -0.4601
 -0.4543  -0.4468  -0.4346  -0.4274  -0.4141  -0.4102  -0.4092  -0.4069
 -0.3908  -0.3820  -0.3741  -0.3695  -0.3622  -0.3474  -0.2928  -0.2782
 -0.2727  -0.2691  -0.2651  -0.2595  -0.2076  -0.1837

          Ground-State Mulliken Net Atomic Charges

     Atom                 Charge (a.u.)
  ----------------------------------------
      1 N                    -0.444739
      2 C                    -0.045384
      3 C                    -0.363474
      4 C                    -0.363702
      5 C                    -0.046011
      6 N                    -0.443800
      7 C                     0.510452
      8 C                    -0.615521
      9 O                    -0.416367
     10 C                     0.510259
     11 C                    -0.045634
     12 N                    -0.443833
     13 C                    -0.363386
     14 C                    -0.363408
     15 C                    -0.046231
     16 N                    -0.443870
     17 C                     0.510748
     18 C                    -0.616058
     19 O                    -0.416095
     20 C                     0.510898
     21 H                     0.344705
     22 H                     0.300953
     23 H                     0.213385
     24 H                     0.213379
     25 H                     0.300778
     26 H                     0.344491
     27 H                     0.300864
     28 H                     0.344491
     29 H                     0.213382
     30 H                     0.213362
     31 H                     0.344506
     32 H                     0.300860
  ----------------------------------------
  Sum of atomic charges =     0.000000

                    Cartesian Multipole Moments
 -----------------------------------------------------------------
    Charge (ESU x 10^10)
                 0.0000
    Dipole Moment (Debye)
         X       0.0042      Y      -0.0011      Z      -0.0019
       Tot       0.0048
    Quadrupole Moments (Debye-Ang)
        XX     -64.6157     XY       0.0019     YY    -103.1811
        XZ       0.0108     YZ      -0.0062     ZZ    -124.7802

 Total job time:  94.99s(wall), 728.59s(cpu)
        *  Thank you very much for using Q-Chem.  Have a nice day.  *
