 Gaussian 16, Revision A.03,
 Gaussian 16:  ES64L-G16RevA.03 25-Dec-2016

 ----------------------------------------------------------------------
 #P UB3LYP/6-311++G(d,p) nosym opt freq SCRF=(PCM,Solvent=n,n-DiMethylF
 ormamide)
 ----------------------------------------------------------------------

 --------
 Oxidized
 --------
 Symbolic Z-matrix:
 Charge =  0 Multiplicity = 1

 SCF Done:  E(UB3LYP) =  -764.216225093     A.U. after   14 cycles
 SCF Done:  E(UB3LYP) =  -764.216334184     A.U. after   11 cycles
 SCF Done:  E(UB3LYP) =  -764.216345733     A.U. after   10 cycles
 SCF Done:  E(UB3LYP) =  -764.216349775     A.U. after    9 cycles
 Optimization completed.
    -- Stationary point found.
 Normal termination of Gaussian 16 at Sat Feb 10 16:03:07 2024.

 ----------------------------------------------------------------------
 #P Geom=AllCheck Guess=TCheck SCRF=Check GenChk UB3LYP/6-311++G(d,p) F
 req
 ----------------------------------------------------------------------

 Structure from the checkpoint file:  "178.chk"
 --------
 Oxidized
 --------
 Charge =  0 Multiplicity = 1

                          Input orientation:
 ---------------------------------------------------------------------
 Center     Atomic      Atomic             Coordinates (Angstroms)
 Number     Number       Type             X           Y           Z
 ---------------------------------------------------------------------
      1          8           0       -4.704495   -0.655979    0.986426
      2          6           0       -3.485466   -0.227081    0.571832
      3          6           0       -3.443107    0.972557   -0.152769
      4          6           0       -2.228308    1.461351   -0.599888
      5          6           0       -1.034063    0.774668   -0.339415
      6          6           0        0.249007    1.325702   -0.830354
      7          8           0        0.295806    2.373924   -1.466169
      8          6           0        1.492687    0.559819   -0.523301
      9          6           0        2.723752    1.051591   -0.966494
     10          6           0        3.897697    0.356840   -0.693749
     11          6           0        3.852120   -0.839795    0.026150
     12          6           0        2.632371   -1.337503    0.471566
     13          6           0        1.447030   -0.645493    0.202686
     14          6           0        0.155171   -1.199205    0.693218
     15          8           0        0.109337   -2.246610    1.325116
     16          6           0       -1.086466   -0.429204    0.387524
     17          6           0       -2.308406   -0.926203    0.839233
     18          1           0       -4.626149   -1.483654    1.477863
     19          1           0       -4.367017    1.501705   -0.351901
     20          1           0       -2.186526    2.387092   -1.159449
     21          1           0        2.745165    1.979658   -1.523384
     22          1           0        4.848114    0.745062   -1.040550
     23          1           0        4.766781   -1.380683    0.238155
     24          1           0        2.582091   -2.263189    1.030621
     25          1           0       -2.327127   -1.855372    1.397035
 ---------------------------------------------------------------------

 SCF Done:  E(UB3LYP) =  -764.216349775     A.U. after    1 cycles

 Alpha  occ. eigenvalues --  -19.17839 -19.13428 -19.12861 -10.28641 -10.28197
 Alpha  occ. eigenvalues --  -10.26768 -10.21497 -10.21048 -10.20992 -10.20516
 Alpha  occ. eigenvalues --  -10.20264 -10.20051 -10.19998 -10.19960 -10.19906
 Alpha  occ. eigenvalues --  -10.19853 -10.19848  -1.09121  -1.06712  -1.06079
 Alpha  occ. eigenvalues --   -0.89589  -0.88339  -0.81338  -0.78362  -0.77948
 Alpha  occ. eigenvalues --   -0.77022  -0.69256  -0.68003  -0.64572  -0.63100
 Alpha  occ. eigenvalues --   -0.59008  -0.58451  -0.56448  -0.53304  -0.51159
 Alpha  occ. eigenvalues --   -0.49695  -0.48930  -0.46287  -0.45916  -0.45798
 Alpha  occ. eigenvalues --   -0.45737  -0.45179  -0.44743  -0.43408  -0.42440
 Alpha  occ. eigenvalues --   -0.41944  -0.40375  -0.38540  -0.38526  -0.37599
 Alpha  occ. eigenvalues --   -0.36787  -0.35445  -0.28964  -0.28940  -0.28291
 Alpha  occ. eigenvalues --   -0.27947  -0.27729  -0.25666
 Alpha virt. eigenvalues --   -0.11975  -0.07495  -0.03583  -0.02726  -0.00845
 Alpha virt. eigenvalues --   -0.00121   0.00762   0.01572   0.01988   0.03156
 Alpha virt. eigenvalues --    0.03406   0.03733   0.03867   0.04189   0.04723

  Beta  occ. eigenvalues --  -19.17839 -19.13428 -19.12861 -10.28641 -10.28197
  Beta  occ. eigenvalues --  -10.26768 -10.21497 -10.21048 -10.20992 -10.20516
  Beta  occ. eigenvalues --  -10.20264 -10.20051 -10.19998 -10.19960 -10.19906
  Beta  occ. eigenvalues --  -10.19853 -10.19848  -1.09121  -1.06712  -1.06079
  Beta  occ. eigenvalues --   -0.89589  -0.88339  -0.81338  -0.78362  -0.77948
  Beta  occ. eigenvalues --   -0.77022  -0.69256  -0.68003  -0.64572  -0.63100
  Beta  occ. eigenvalues --   -0.59008  -0.58451  -0.56448  -0.53304  -0.51159
  Beta  occ. eigenvalues --   -0.49695  -0.48930  -0.46287  -0.45916  -0.45798
  Beta  occ. eigenvalues --   -0.45737  -0.45179  -0.44743  -0.43408  -0.42440
  Beta  occ. eigenvalues --   -0.41944  -0.40375  -0.38540  -0.38526  -0.37599
  Beta  occ. eigenvalues --   -0.36787  -0.35445  -0.28964  -0.28940  -0.28291
  Beta  occ. eigenvalues --   -0.27947  -0.27729  -0.25666
  Beta virt. eigenvalues --   -0.11975  -0.07495  -0.03583  -0.02726  -0.00845
  Beta virt. eigenvalues --   -0.00121   0.00762   0.01572   0.01988   0.03156
  Beta virt. eigenvalues --    0.03406   0.03733   0.03867   0.04189   0.04723

 Mulliken charges and spin densities:
               1          2
     1  O   -0.249060  -0.000000
     2  C   -0.582423   0.000000
     3  C   -0.119987  -0.000000
     4  C    0.203698   0.000000
     5  C    0.164832   0.000000
     6  C   -0.558906  -0.000000
     7  O   -0.292134   0.000000
     8  C    0.131923   0.000000
     9  C    0.174496   0.000000
    10  C   -0.414885  -0.000000
    11  C   -0.391789   0.000000
    12  C    0.167989  -0.000000
    13  C    0.233785  -0.000000
    14  C   -0.604744  -0.000000
    15  O   -0.275886   0.000000
    16  C    0.431226  -0.000000
    17  C    0.284634   0.000000
    18  H    0.313586   0.000000
    19  H    0.231773  -0.000000
    20  H    0.192899   0.000000
    21  H    0.187484  -0.000000
    22  H    0.206957  -0.000000
    23  H    0.207656  -0.000000
    24  H    0.186295   0.000000
    25  H    0.170580  -0.000000
 Sum of Mulliken charges =  -0.00000  -0.00000

 Dipole moment (field-independent basis, Debye):
    X=              0.3886    Y=             -1.6039    Z=              0.9465  Tot=              1.9025
 Quadrupole moment (field-independent basis, Debye-Ang):
   XX=            -72.5728   YY=           -104.1224   ZZ=           -100.5420
   XY=              2.6838   XZ=             -5.0200   YZ=              2.2242

  Exact polarizability: 356.490  -2.575 238.282 -29.044 -76.092 159.908
 Approx polarizability: 386.689   2.394 308.678 -33.246-106.588 199.117

                      1                      2                      3
                      A                      A                      A
 Frequencies --     37.2151                92.0450               113.8759
 Red. masses --      8.2773                 4.7963                 5.1166
 Frc consts  --      0.0068                 0.0239                 0.0391
 IR Inten    --      8.9891                 0.1239                 0.0936

                      4                      5                      6
                      A                      A                      A
 Frequencies --    144.0495               192.5684               198.0900
 Red. masses --      7.4880                 6.0892                 5.8645
 Frc consts  --      0.0915                 0.1330                 0.1356
 IR Inten    --      5.3153                 1.5108                 0.0338

                      7                      8                      9
                      A                      A                      A
 Frequencies --    283.6254               290.7776               332.5098
 Red. masses --      6.5343                 5.2477                 8.0125
 Frc consts  --      0.3097                 0.2614                 0.5219
 IR Inten    --      1.3996                 2.0011                 0.5704

                     10                     11                     12
                      A                      A                      A
 Frequencies --    374.7234               387.7209               401.6564
 Red. masses --      1.1256                10.2310                 7.9360
 Frc consts  --      0.0931                 0.9062                 0.7543
 IR Inten    --    177.1155                41.6582                 6.2783

                     13                     14                     15
                      A                      A                      A
 Frequencies --    415.0702               442.4246               450.3294
 Red. masses --      3.4263                 3.4072                 5.2555
 Frc consts  --      0.3478                 0.3929                 0.6279
 IR Inten    --      0.6371                 0.6426                19.6019

                     16                     17                     18
                      A                      A                      A
 Frequencies --    456.2657               476.5349               556.6568
 Red. masses --      4.2571                11.9625                 4.4701
 Frc consts  --      0.5222                 1.6005                 0.8161
 IR Inten    --      0.9206                 0.7600                 8.1993

                     19                     20                     21
                      A                      A                      A
 Frequencies --    587.4951               649.3475               669.2774
 Red. masses --      7.0884                 6.7844                 3.6670
 Frc consts  --      1.4415                 1.6854                 0.9678
 IR Inten    --     42.0628                 8.8297                14.4396

                     22                     23                     24
                      A                      A                      A
 Frequencies --    676.0287               701.5267               719.4984
 Red. masses --      6.9441                 6.5661                 4.3889
 Frc consts  --      1.8698                 1.9039                 1.3386
 IR Inten    --      2.5106                 0.2332                 3.9516

                     25                     26                     27
                      A                      A                      A
 Frequencies --    733.6054               758.7648               797.9160
 Red. masses --      2.1549                 7.1683                 4.0294
 Frc consts  --      0.6833                 2.4315                 1.5115
 IR Inten    --    133.3220                22.1969                 0.0011

                     28                     29                     30
                      A                      A                      A
 Frequencies --    810.9873               861.9989               867.1695
 Red. masses --      2.0213                 1.5648                 6.7185
 Frc consts  --      0.7833                 0.6850                 2.9767
 IR Inten    --      3.7418                31.5484                65.1139

                     31                     32                     33
                      A                      A                      A
 Frequencies --    896.7364               915.9187               939.7378
 Red. masses --      1.5069                 1.4170                 7.0755
 Frc consts  --      0.7140                 0.7004                 3.6815
 IR Inten    --     27.9642                 0.1452               117.2918

                     34                     35                     36
                      A                      A                      A
 Frequencies --    996.3925              1002.0030              1003.0879
 Red. masses --      1.3256                 3.3225                 1.3911
 Frc consts  --      0.7754                 1.9654                 0.8247
 IR Inten    --      0.3691                27.6429                 3.1394

                     37                     38                     39
                      A                      A                      A
 Frequencies --   1023.8414              1057.1602              1105.5792
 Red. masses --      1.3323                 1.9525                 2.5817
 Frc consts  --      0.8228                 1.2856                 1.8593
 IR Inten    --      0.0033                 0.4517                36.3912

                     40                     41                     42
                      A                      A                      A
 Frequencies --   1112.3933              1163.7290              1177.6403
 Red. masses --      2.0179                 1.5911                 1.3039
 Frc consts  --      1.4712                 1.2696                 1.0654
 IR Inten    --      3.1745                40.8084                15.6792

                     43                     44                     45
                      A                      A                      A
 Frequencies --   1186.4267              1194.5430              1233.0562
 Red. masses --      1.4984                 1.7741                 1.7934
 Frc consts  --      1.2427                 1.4915                 1.6065
 IR Inten    --    274.1026               142.0122                27.0904

                     46                     47                     48
                      A                      A                      A
 Frequencies --   1254.9439              1290.7551              1307.1017
 Red. masses --      2.3920                 2.2520                 4.0820
 Frc consts  --      2.2195                 2.2106                 4.1090
 IR Inten    --     82.5419               549.3282              1043.1060

                     49                     50                     51
                      A                      A                      A
 Frequencies --   1333.7849              1356.8013              1384.3855
 Red. masses --      2.4383                 7.5265                 5.4873
 Frc consts  --      2.5557                 8.1635                 6.1962
 IR Inten    --    100.3707                95.8775                15.3267

                     52                     53                     54
                      A                      A                      A
 Frequencies --   1467.9547              1482.3810              1502.2980
 Red. masses --      3.0375                 2.6296                 2.6761
 Frc consts  --      3.8565                 3.4046                 3.5585
 IR Inten    --     56.0611                16.7512                 6.8690

                     55                     56                     57
                      A                      A                      A
 Frequencies --   1520.9695              1606.7546              1607.2790
 Red. masses --      3.1196                 6.5975                 6.3055
 Frc consts  --      4.2520                10.0352                 9.5974
 IR Inten    --     24.2350               613.1872                84.4132

                     58                     59                     60
                      A                      A                      A
 Frequencies --   1620.7105              1625.8669              1687.5397
 Red. masses --      6.4803                 6.0855                11.8289
 Frc consts  --     10.0290                 9.4780                19.8474
 IR Inten    --    210.5987                90.4667                97.4363

                     61                     62                     63
                      A                      A                      A
 Frequencies --   1700.7927              3179.0702              3186.9211
 Red. masses --     11.6180                 1.0875                 1.0909
 Frc consts  --     19.8010                 6.4753                 6.5280
 IR Inten    --    571.4258                 3.1352                12.4123

                     64                     65                     66
                      A                      A                      A
 Frequencies --   3191.2693              3192.4895              3203.3224
 Red. masses --      1.0913                 1.0892                 1.0925
 Frc consts  --      6.5484                 6.5405                 6.6051
 IR Inten    --     10.5065                 2.0203                 3.2174

                     67                     68                     69
                      A                      A                      A
 Frequencies --   3206.2979              3206.9233              3799.4632
 Red. masses --      1.0953                 1.0946                 1.0665
 Frc consts  --      6.6344                 6.6325                 9.0708
 IR Inten    --     27.0330                 1.3734               196.2386

 - Thermochemistry -
 -------------------
 Temperature   298.150 Kelvin.  Pressure   1.00000 Atm.
 Atom     1 has atomic number  8 and mass  15.99491

 Molecular mass:   224.04734 amu.
 Principal axes and moments of inertia in atomic units:
                           1         2         3
     Eigenvalues --  1702.125895385.539667087.64126
           X            0.99222  -0.06466   0.10636
           Y            0.00124   0.85956   0.51103
           Z           -0.12447  -0.50692   0.85296
 This molecule is an asymmetric top.
 Rotational symmetry number  1.
 Warning -- assumption of classical behavior for rotation
           may cause significant error
 Rotational temperatures (Kelvin)      0.05089     0.01608     0.01222
 Rotational constants (GHZ):           1.06029     0.33511     0.25463
 Zero-point vibrational energy     480923.2 (Joules/Mol)
                                  114.94340 (Kcal/Mol)
 Warning -- explicit consideration of  19 degrees of freedom as
           vibrations may cause significant error
 Vibrational temperatures:     53.54   132.43   163.84   207.26   277.06
          (Kelvin)            285.01   408.07   418.36   478.41   539.14
                              557.84   577.89   597.19   636.55   647.92
                              656.46   685.63   800.91   845.27   934.27
                              962.94   972.65  1009.34  1035.20  1055.49
                             1091.69  1148.02  1166.83  1240.22  1247.66
                             1290.20  1317.80  1352.07  1433.59  1441.66
                             1443.22  1473.08  1521.02  1590.68  1600.49
                             1674.35  1694.36  1707.00  1718.68  1774.09
                             1805.58  1857.11  1880.63  1919.02  1952.13
                             1991.82  2112.06  2132.82  2161.47  2188.34
                             2311.76  2312.52  2331.84  2339.26  2427.99
                             2447.06  4573.97  4585.27  4591.52  4593.28
                             4608.87  4613.15  4614.05  5466.58

 Zero-point correction=                           0.183174 (Hartree/Particle)
 Thermal correction to Energy=                    0.195645
 Thermal correction to Enthalpy=                  0.196590
 Thermal correction to Gibbs Free Energy=         0.144063
 Sum of electronic and zero-point Energies=           -764.033176
 Sum of electronic and thermal Energies=              -764.020704
 Sum of electronic and thermal Enthalpies=            -764.019760
 Sum of electronic and thermal Free Energies=         -764.072287

                     E (Thermal)             CV                S
                      KCal/Mol        Cal/Mol-Kelvin    Cal/Mol-Kelvin
 Total                  122.769             50.376            110.551
 Electronic               0.000              0.000              0.000
 Translational            0.889              2.981             42.123
 Rotational               0.889              2.981             32.541
 Vibrational            120.992             44.415             35.888
 Vibration     1          0.594              1.982              5.402
 Vibration     2          0.602              1.955              3.616
 Vibration     3          0.607              1.938              3.202
 Vibration     4          0.616              1.909              2.749
 Vibration     5          0.635              1.850              2.203
 Vibration     6          0.637              1.843              2.151
 Vibration     7          0.682              1.704              1.512
 Vibration     8          0.687              1.691              1.469
 Vibration     9          0.714              1.611              1.248
 Vibration    10          0.746              1.524              1.060
 Vibration    11          0.756              1.496              1.009
 Vibration    12          0.767              1.467              0.957
 Vibration    13          0.778              1.438              0.909
 Vibration    14          0.802              1.378              0.819
 Vibration    15          0.809              1.360              0.795
 Vibration    16          0.814              1.347              0.777
 Vibration    17          0.833              1.302              0.719
 Vibration    18          0.912              1.125              0.531
 Vibration    19          0.945              1.058              0.472

                           ! Non-Optimized Parameters !
 Normal termination of Gaussian 16 at Sat Feb 10 17:02:03 2024.
