 Q-Chem 5.4, Q-Chem, Inc., Pleasanton, CA (2021)
 Q-Chem 5.4.0 for Intel X86 EM64T Linux

User input:
--------------------------------------------------------------
$molecule
-1 2
C                  5.7353010000     -5.3557230000      1.3223510000
C                  6.6989460000     -5.1908220000      0.3394520000
C                  6.6085500000     -4.1739070000     -0.6159450000
C                  4.6260050000     -4.4566880000      1.3489400000
C                  4.5329070000     -3.4079090000      0.3638860000
C                  5.5506730000     -3.2780230000     -0.6295000000
C                  3.5756920000     -4.6030790000      2.3858740000
C                  2.4943150000     -3.6607920000      2.3444990000
C                  2.4060200000     -2.6647680000      1.4092460000
C                  3.3863070000     -2.4672260000      0.3801670000
O                  3.6076030000     -5.5032700000      3.2721220000
O                  3.2554620000     -1.5308320000     -0.4581970000
C                  5.9326770000     -6.4895860000      2.3059380000
H                  7.5462570000     -5.8710470000      0.3125350000
H                  1.5731080000     -1.9672090000      1.4062740000
C                  5.5527040000     -2.2164700000     -1.7089060000
H                  7.3871350000     -4.0816560000     -1.3687090000
H                  6.8594160000     -7.0218830000      2.0621360000
H                  5.0989190000     -7.1934850000      2.2880470000
H                  5.9847250000     -6.1308240000      3.3352590000
H                  1.7340510000     -3.7826870000      3.1109740000
H                  5.5478000000     -1.2092060000     -1.2889770000
H                  4.6609030000     -2.2716540000     -2.3354620000
H                  6.4427740000     -2.3413230000     -2.3364630000
$end
$rem
MAX_SCF_CYCLES=200
BASIS  =  6-311++G(d,p)
GUI  =  2
JOB_TYPE  =  SP
METHOD  =  B3LYP
SOLVENT_METHOD = PCM
$end
$pcm
theory = CPCM
$end
$solvent
dielectric 37.219
opticaldielectric 1.43
$end

--------------------------------------------------------------

             Standard Nuclear Orientation (Angstroms)
    I     Atom           X                Y                Z
 ----------------------------------------------------------------
    1      C       5.7353010000    -5.3557230000     1.3223510000
    2      C       6.6989460000    -5.1908220000     0.3394520000
    3      C       6.6085500000    -4.1739070000    -0.6159450000
    4      C       4.6260050000    -4.4566880000     1.3489400000
    5      C       4.5329070000    -3.4079090000     0.3638860000
    6      C       5.5506730000    -3.2780230000    -0.6295000000
    7      C       3.5756920000    -4.6030790000     2.3858740000
    8      C       2.4943150000    -3.6607920000     2.3444990000
    9      C       2.4060200000    -2.6647680000     1.4092460000
   10      C       3.3863070000    -2.4672260000     0.3801670000
   11      O       3.6076030000    -5.5032700000     3.2721220000
   12      O       3.2554620000    -1.5308320000    -0.4581970000
   13      C       5.9326770000    -6.4895860000     2.3059380000
   14      H       7.5462570000    -5.8710470000     0.3125350000
   15      H       1.5731080000    -1.9672090000     1.4062740000
   16      C       5.5527040000    -2.2164700000    -1.7089060000
   17      H       7.3871350000    -4.0816560000    -1.3687090000
   18      H       6.8594160000    -7.0218830000     2.0621360000
   19      H       5.0989190000    -7.1934850000     2.2880470000
   20      H       5.9847250000    -6.1308240000     3.3352590000
   21      H       1.7340510000    -3.7826870000     3.1109740000
   22      H       5.5478000000    -1.2092060000    -1.2889770000
   23      H       4.6609030000    -2.2716540000    -2.3354620000
   24      H       6.4427740000    -2.3413230000    -2.3364630000
 ----------------------------------------------------------------

    8    -614.0534158704      5.75e-06  Convergence criterion met
 Total energy in the final basis set =     -614.0534158704

                    Orbital Energies (a.u.)
 --------------------------------------------------------------

 Alpha MOs
 -- Occupied --
-19.0706 -19.0706 -10.2193 -10.2193 -10.1781 -10.1780 -10.1745 -10.1741
-10.1628 -10.1623 -10.1576 -10.1569 -10.1504 -10.1503  -0.9972  -0.9948
 -0.8558  -0.8009  -0.7801  -0.7347  -0.7057  -0.6797  -0.6391  -0.6107
 -0.5982  -0.5267  -0.4986  -0.4874  -0.4693  -0.4526  -0.4254  -0.4197
 -0.4170  -0.4049  -0.3911  -0.3872  -0.3862  -0.3856  -0.3762  -0.3668
 -0.3551  -0.3422  -0.3355  -0.3345  -0.2738  -0.2481  -0.2391  -0.2353
 -0.2310  -0.1485

 Beta MOs
 -- Occupied --
-19.0644 -19.0644 -10.2177 -10.2177 -10.1779 -10.1778 -10.1742 -10.1738
-10.1624 -10.1619 -10.1560 -10.1554 -10.1504 -10.1503  -0.9863  -0.9837
 -0.8540  -0.7952  -0.7789  -0.7327  -0.7054  -0.6715  -0.6364  -0.6075
 -0.5958  -0.5239  -0.4958  -0.4862  -0.4666  -0.4511  -0.4190  -0.4159
 -0.4148  -0.4021  -0.3871  -0.3860  -0.3837  -0.3752  -0.3748  -0.3537
 -0.3421  -0.3405  -0.3337  -0.3294  -0.2456  -0.2419  -0.2321  -0.2297
 -0.2256

          Ground-State Mulliken Net Atomic Charges

     Atom                 Charge (a.u.)    Spin (a.u.)
  --------------------------------------------------------
      1 C                     1.003436       0.038489
      2 C                    -0.610097       0.023886
      3 C                    -0.612888       0.023847
      4 C                     0.207516       0.028498
      5 C                     0.205768       0.028437
      6 C                     1.004809       0.038533
      7 C                    -0.827962       0.081949
      8 C                    -0.253499       0.109492
      9 C                    -0.250660       0.109595
     10 C                    -0.828242       0.082067
     11 O                    -0.481464       0.223247
     12 O                    -0.482551       0.223196
     13 C                    -0.352512       0.007053
     14 H                     0.156504      -0.002855
     15 H                     0.188552      -0.010381
     16 C                    -0.351397       0.007014
     17 H                     0.156384      -0.002856
     18 H                     0.145024      -0.000405
     19 H                     0.162722       0.000496
     20 H                     0.162609       0.000496
     21 H                     0.188486      -0.010385
     22 H                     0.162342       0.000493
     23 H                     0.162221       0.000497
     24 H                     0.144899      -0.000404
  --------------------------------------------------------
  Sum of atomic charges =    -1.000000

                    Cartesian Multipole Moments
 -----------------------------------------------------------------
    Charge (ESU x 10^10)
                -4.8032
    Dipole Moment (Debye)
         X     -16.4131      Y      16.8653      Z      -6.7891
       Tot      24.4932
    Quadrupole Moments (Debye-Ang)
        XX    -139.6203     XY      57.4959     YY    -164.6643
        XZ     -26.9646     YZ      41.4726     ZZ    -112.4560

 Total job time:  52.16s(wall), 258.60s(cpu)
        *  Thank you very much for using Q-Chem.  Have a nice day.  *
