 Q-Chem 5.4, Q-Chem, Inc., Pleasanton, CA (2021)
 Q-Chem 5.4.0 for Intel X86 EM64T Linux

User input:
--------------------------------------------------------------
$molecule
-1 2
C                  4.7924120000     -3.0421220000      0.3176360000
C                  5.7020380000     -2.2435330000     -0.3463960000
C                  5.2721480000     -1.0556510000     -0.9743860000
C                  3.4280900000     -2.6867530000      0.3789680000
C                  2.9947020000     -1.4907630000     -0.2534720000
C                  3.9417090000     -0.6897530000     -0.9262620000
C                  2.4891240000     -3.5447430000      1.0855820000
C                  1.1013670000     -3.1396790000      1.1186320000
C                  0.6637170000     -1.9347960000      0.4836050000
C                  1.5966370000     -1.0801240000     -0.2180990000
C                  0.1633680000     -3.9646760000      1.8047210000
C                 -1.1771390000     -3.5719230000      1.8365440000
C                 -0.7134010000     -1.5720690000      0.5507650000
C                 -1.6142700000     -2.3841130000      1.2213690000
O                  2.8838900000     -4.6182610000      1.6550300000
O                  1.2173740000     -0.0042470000     -0.7861450000
O                  0.5685000000     -5.0839230000      2.4204390000
H                  5.0969050000     -3.9590660000      0.8075100000
H                  6.7485150000     -2.5286810000     -0.3862840000
H                  5.9892750000     -0.4296050000     -1.4958630000
H                  1.5686750000     -5.1344780000      2.2329040000
O                 -1.1621510000     -0.4389140000     -0.0318010000
H                 -2.6560240000     -2.0999080000      1.2722180000
H                 -0.3528420000     -0.0216410000     -0.4499840000
H                  3.5865310000      0.2172190000     -1.4003700000
S                 -2.4105860000     -4.5930810000      2.6167820000
O                 -3.6574190000     -3.8390470000      2.6594530000
O                 -2.4155250000     -5.9518740000      2.0795340000
O                 -1.9007370000     -4.6741840000      4.1839860000
C                 -1.4157120000     -5.9362420000      4.6905860000
H                 -0.5700080000     -6.2844590000      4.1008000000
H                 -2.2146970000     -6.6797270000      4.6968980000
H                 -1.1027940000     -5.7135710000      5.7107510000
$end
$rem
MAX_SCF_CYCLES=200
BASIS  =  6-311++G(d,p)
GUI  =  2
JOB_TYPE  =  SP
METHOD  =  B3LYP
SOLVENT_METHOD = COSMO
$end
$solvent
dielectric 37.219
opticaldielectric 1.43
$end

--------------------------------------------------------------

             Standard Nuclear Orientation (Angstroms)
    I     Atom           X                Y                Z
 ----------------------------------------------------------------
    1      C       3.7693453915    -2.0460311226    -0.0641687612
    2      C       5.1178383983    -1.7546031483    -0.0118362262
    3      C       5.5475902684    -0.4132642865     0.0679377435
    4      C       2.8056063283    -1.0154971570    -0.0390684849
    5      C       3.2379160441     0.3353881010     0.0410247202
    6      C       4.6209970943     0.6099795246     0.0936747038
    7      C       1.3902755246    -1.3484596323    -0.0945846126
    8      C       0.4410747068    -0.2578703061    -0.0686738699
    9      C       0.8748356355     1.1028749115     0.0135682515
   10      C       2.2818095544     1.4351461257     0.0702488424
   11      C      -0.9506981591    -0.5599703586    -0.1223780392
   12      C      -1.8669211807     0.4945901748    -0.0966079903
   13      C      -0.0985988403     2.1440021440     0.0454231583
   14      C      -1.4486306915     1.8353102895    -0.0076190660
   15      O       1.0060256820    -2.5650420096    -0.1640935588
   16      O       2.6787360636     2.6438345985     0.1447439589
   17      O      -1.3661942677    -1.8328516139    -0.1779724069
   18      H       3.4136167640    -3.0673575256    -0.1260423766
   19      H       5.8486680736    -2.5567785766    -0.0322595896
   20      H       6.6083396933    -0.1868185135     0.1088762257
   21      H      -0.5093572679    -2.3838465710    -0.1955828527
   22      O       0.2733236232     3.4399760431     0.1286415146
   23      H      -2.1809553466     2.6299385982     0.0219773842
   24      H       1.2748909639     3.4236061511     0.1525104080
   25      H       4.9253269245     1.6478639487     0.1545622469
   26      S      -3.6165975327     0.1888540591    -0.2310869485
   27      O      -4.3132227236     1.4445065395     0.0199724254
   28      O      -3.9465365169    -0.5845960980    -1.4260318615
   29      O      -3.9395092331    -0.7548278396     1.0833880740
   30      C      -4.3024590823    -2.1362961977     0.8724478250
   31      H      -3.5137042875    -2.6604117087     0.3362699951
   32      H      -5.2487526046    -2.2063529825     0.3331821824
   33      H      -4.4133793612    -2.5412990963     1.8783832206
 ----------------------------------------------------------------

    9   -1502.7601150462      5.57e-06  Convergence criterion met
 Total energy in the final basis set =    -1502.7601150462
    4   -1502.8361092517      6.57e-06  Convergence criterion met
 Total energy in the final basis set =    -1502.8361092517

                    Orbital Energies (a.u.)
 --------------------------------------------------------------

 Alpha MOs
 -- Occupied --
-89.0942 -19.1775 -19.1476 -19.1417 -19.1413 -19.1407 -19.1079 -19.1041
-10.2621 -10.2514 -10.2477 -10.2466 -10.2217 -10.2195 -10.1955 -10.1951
-10.1909 -10.1887 -10.1882 -10.1818 -10.1813 -10.1802 -10.1796  -8.1544
 -6.1182  -6.1167  -6.1149  -1.1604  -1.0763  -1.0664  -1.0486  -1.0347
 -1.0246  -1.0210  -0.8804  -0.8651  -0.8155  -0.7718  -0.7646  -0.7551
 -0.7361  -0.6981  -0.6709  -0.6490  -0.6268  -0.6125  -0.5861  -0.5631
 -0.5535  -0.5422  -0.5321  -0.5269  -0.5074  -0.4973  -0.4849  -0.4768
 -0.4638  -0.4589  -0.4540  -0.4460  -0.4403  -0.4374  -0.4343  -0.4295
 -0.4215  -0.4199  -0.4137  -0.4003  -0.3932  -0.3862  -0.3721  -0.3671
 -0.3629  -0.3614  -0.3515  -0.3487  -0.3404  -0.3308  -0.3271  -0.3170
 -0.2896  -0.2778  -0.2684  -0.2643  -0.2632  -0.2314  -0.1624

 Beta MOs
 -- Occupied --
-89.0942 -19.1774 -19.1474 -19.1413 -19.1412 -19.1407 -19.1035 -19.0990
-10.2621 -10.2494 -10.2464 -10.2457 -10.2217 -10.2184 -10.1952 -10.1946
-10.1891 -10.1882 -10.1878 -10.1815 -10.1809 -10.1801 -10.1795  -8.1545
 -6.1182  -6.1167  -6.1150  -1.1602  -1.0752  -1.0647  -1.0484  -1.0344
 -1.0175  -1.0129  -0.8777  -0.8635  -0.8120  -0.7696  -0.7623  -0.7529
 -0.7350  -0.6928  -0.6685  -0.6464  -0.6256  -0.6117  -0.5847  -0.5620
 -0.5518  -0.5410  -0.5315  -0.5250  -0.5065  -0.4970  -0.4829  -0.4754
 -0.4626  -0.4572  -0.4484  -0.4443  -0.4375  -0.4355  -0.4332  -0.4276
 -0.4197  -0.4122  -0.4053  -0.3997  -0.3918  -0.3715  -0.3699  -0.3660
 -0.3617  -0.3542  -0.3503  -0.3477  -0.3394  -0.3306  -0.3236  -0.3130
 -0.2740  -0.2729  -0.2617  -0.2595  -0.2593  -0.2209

          Ground-State Mulliken Net Atomic Charges

     Atom                 Charge (a.u.)    Spin (a.u.)
  --------------------------------------------------------
      1 C                    -0.008956       0.032312
      2 C                    -0.495101       0.029237
      3 C                    -0.459839       0.024929
      4 C                     0.120148       0.004539
      5 C                     0.160532       0.005174
      6 C                    -0.003936       0.038166
      7 C                    -0.260841       0.118187
      8 C                     0.337023       0.014607
      9 C                     0.743777       0.041952
     10 C                    -0.326325       0.112338
     11 C                    -0.067351       0.003997
     12 C                    -1.000981       0.069117
     13 C                    -0.313003       0.024114
     14 C                    -0.220372       0.128831
     15 O                    -0.487962       0.158336
     16 O                    -0.490950       0.182243
     17 O                    -0.438370       0.007581
     18 H                     0.189047      -0.000919
     19 H                     0.215398      -0.002509
     20 H                     0.212917      -0.002205
     21 H                     0.468547      -0.002189
     22 O                    -0.408070       0.015238
     23 H                     0.255413      -0.010054
     24 H                     0.380335      -0.003729
     25 H                     0.191961      -0.001307
     26 S                     1.193480       0.004901
     27 O                    -0.221287       0.000206
     28 O                    -0.276415       0.002900
     29 O                    -0.212018       0.003037
     30 C                    -0.364012       0.000500
     31 H                     0.212009      -0.000020
     32 H                     0.198935       0.000400
     33 H                     0.176263       0.000092
  --------------------------------------------------------
  Sum of atomic charges =    -1.000001

                    Cartesian Multipole Moments
 -----------------------------------------------------------------
    Charge (ESU x 10^10)
                -4.8032
    Dipole Moment (Debye)
         X       3.9935      Y      -5.3850      Z       1.8395
       Tot       6.9519
    Quadrupole Moments (Debye-Ang)
        XX    -170.6294     XY       3.7296     YY    -169.3653
        XZ      -8.3646     YZ      -5.8431     ZZ    -149.3044

 Total job time:  137.43s(wall), 1025.92s(cpu)
        *  Thank you very much for using Q-Chem.  Have a nice day.  *
