 Gaussian 16, Revision A.03,
 Gaussian 16:  ES64L-G16RevA.03 25-Dec-2016

 --------------------------------------
 #P UB3LYP/6-311++G(d,p) nosym opt freq
 --------------------------------------

 --------
 Oxidized
 --------
 Symbolic Z-matrix:
 Charge =  0 Multiplicity = 1

 SCF Done:  E(UB3LYP) =  -839.451572087     A.U. after   15 cycles
 Optimization completed.
    -- Stationary point found.
 Normal termination of Gaussian 16 at Sun Jan  7 04:59:08 2024.

 ----------------------------------------------------------------------
 #P Geom=AllCheck Guess=TCheck SCRF=Check GenChk UB3LYP/6-311++G(d,p) F
 req
 ----------------------------------------------------------------------

 Structure from the checkpoint file:  "186.chk"
 --------
 Oxidized
 --------
 Charge =  0 Multiplicity = 1

                          Input orientation:
 ---------------------------------------------------------------------
 Center     Atomic      Atomic             Coordinates (Angstroms)
 Number     Number       Type             X           Y           Z
 ---------------------------------------------------------------------
      1          8           0        3.102200   -2.181147    0.214224
      2          6           0        2.780501   -0.882625    0.256014
      3          6           0        3.815739    0.049619    0.418868
      4          6           0        3.527726    1.403174    0.467311
      5          6           0        2.212150    1.866457    0.356124
      6          6           0        1.174461    0.959303    0.194492
      7          6           0       -0.224736    1.492075    0.078509
      8          8           0       -0.421305    2.693132    0.127374
      9          6           0       -1.326278    0.502322   -0.094316
     10          6           0       -2.677540    0.902375   -0.212537
     11          8           0       -2.997733    2.215967   -0.169573
     12          6           0       -3.680589   -0.062564   -0.373769
     13          6           0       -3.371413   -1.413800   -0.420143
     14          6           0       -2.049596   -1.829569   -0.305882
     15          6           0       -1.040224   -0.882312   -0.144909
     16          6           0        0.357665   -1.387719   -0.027624
     17          8           0        0.578518   -2.607169   -0.075375
     18          6           0        1.442036   -0.427280    0.142040
     19          1           0        2.260965   -2.685383    0.096543
     20          1           0        4.830313   -0.319978    0.503845
     21          1           0        4.336487    2.114338    0.593532
     22          1           0        1.980621    2.922589    0.393168
     23          1           0       -3.952366    2.312839   -0.264125
     24          1           0       -4.713006    0.263687   -0.462859
     25          1           0       -4.164424   -2.141869   -0.545634
     26          1           0       -1.780170   -2.876461   -0.338617
 ---------------------------------------------------------------------

 SCF Done:  E(UB3LYP) =  -839.451572087     A.U. after    1 cycles

 Alpha  occ. eigenvalues --  -19.17979 -19.15857 -19.13750 -19.11871 -10.28798
 Alpha  occ. eigenvalues --  -10.27683 -10.27526 -10.26573 -10.21698 -10.21450
 Alpha  occ. eigenvalues --  -10.21084 -10.20914 -10.20859 -10.20598 -10.20324
 Alpha  occ. eigenvalues --  -10.19818 -10.19397 -10.18997  -1.09771  -1.08884
 Alpha  occ. eigenvalues --   -1.05961  -1.05420  -0.89603  -0.88052  -0.81869
 Alpha  occ. eigenvalues --   -0.78027  -0.77897  -0.76815  -0.69553  -0.67793
 Alpha  occ. eigenvalues --   -0.66380  -0.62698  -0.61532  -0.57804  -0.56905
 Alpha  occ. eigenvalues --   -0.53843  -0.52975  -0.51406  -0.49945  -0.49461
 Alpha  occ. eigenvalues --   -0.47810  -0.46640  -0.45704  -0.45507  -0.44851
 Alpha  occ. eigenvalues --   -0.44300  -0.41908  -0.41326  -0.40982  -0.40858
 Alpha  occ. eigenvalues --   -0.39984  -0.39213  -0.38543  -0.37302  -0.36435
 Alpha  occ. eigenvalues --   -0.35318  -0.29481  -0.29051  -0.28209  -0.26433
 Alpha  occ. eigenvalues --   -0.25877  -0.24758
 Alpha virt. eigenvalues --   -0.11881  -0.06692  -0.04331  -0.02348  -0.01706
 Alpha virt. eigenvalues --   -0.00336  -0.00152   0.01088   0.02081   0.02864
 Alpha virt. eigenvalues --    0.02914   0.03703   0.03974   0.04306   0.04434

  Beta  occ. eigenvalues --  -19.17979 -19.15857 -19.13750 -19.11871 -10.28798
  Beta  occ. eigenvalues --  -10.27683 -10.27526 -10.26573 -10.21698 -10.21450
  Beta  occ. eigenvalues --  -10.21084 -10.20914 -10.20859 -10.20598 -10.20324
  Beta  occ. eigenvalues --  -10.19818 -10.19397 -10.18997  -1.09771  -1.08884
  Beta  occ. eigenvalues --   -1.05961  -1.05420  -0.89603  -0.88052  -0.81869
  Beta  occ. eigenvalues --   -0.78027  -0.77897  -0.76815  -0.69553  -0.67793
  Beta  occ. eigenvalues --   -0.66380  -0.62698  -0.61532  -0.57804  -0.56905
  Beta  occ. eigenvalues --   -0.53843  -0.52975  -0.51406  -0.49945  -0.49461
  Beta  occ. eigenvalues --   -0.47810  -0.46640  -0.45704  -0.45507  -0.44851
  Beta  occ. eigenvalues --   -0.44300  -0.41908  -0.41326  -0.40982  -0.40858
  Beta  occ. eigenvalues --   -0.39984  -0.39213  -0.38543  -0.37302  -0.36435
  Beta  occ. eigenvalues --   -0.35318  -0.29481  -0.29051  -0.28209  -0.26433
  Beta  occ. eigenvalues --   -0.25877  -0.24758
  Beta virt. eigenvalues --   -0.11881  -0.06692  -0.04331  -0.02348  -0.01706
  Beta virt. eigenvalues --   -0.00336  -0.00152   0.01088   0.02081   0.02864
  Beta virt. eigenvalues --    0.02914   0.03703   0.03974   0.04306   0.04434

 Mulliken charges and spin densities:
               1          2
     1  O   -0.272764   0.000000
     2  C   -0.213252  -0.000000
     3  C   -0.052211  -0.000000
     4  C   -0.324421  -0.000000
     5  C   -0.064743   0.000000
     6  C    0.525082   0.000000
     7  C   -0.481924  -0.000000
     8  O   -0.202240   0.000000
     9  C   -0.202264  -0.000000
    10  C    0.005229   0.000000
    11  O   -0.146980  -0.000000
    12  C   -0.154503  -0.000000
    13  C   -0.339837  -0.000000
    14  C    0.078121  -0.000000
    15  C    0.623697  -0.000000
    16  C   -0.527301   0.000000
    17  O   -0.273476   0.000000
    18  C    0.374094  -0.000000
    19  H    0.333897   0.000000
    20  H    0.193397   0.000000
    21  H    0.186457   0.000000
    22  H    0.172274  -0.000000
    23  H    0.267507   0.000000
    24  H    0.128217  -0.000000
    25  H    0.187535  -0.000000
    26  H    0.180408  -0.000000
 Sum of Mulliken charges =  -0.00000  -0.00000

 Dipole moment (field-independent basis, Debye):
    X=             -3.1339    Y=             -0.0093    Z=             -0.3286  Tot=              3.1511
 Quadrupole moment (field-independent basis, Debye-Ang):
   XX=            -75.1836   YY=           -112.7391   ZZ=           -104.7665
   XY=              7.5867   XZ=              3.5337   YZ=              0.3578

  Exact polarizability: 267.174   6.697 201.466  19.665   7.566  85.872
 Approx polarizability: 398.641   0.937 391.450  27.744  15.029 138.401

                      1                      2                      3
                      A                      A                      A
 Frequencies --     31.7698                61.2007               102.6692
 Red. masses --      7.7223                 6.4399                 9.3084
 Frc consts  --      0.0046                 0.0142                 0.0578
 IR Inten    --      6.8788                 0.3813                 0.2673

                      4                      5                      6
                      A                      A                      A
 Frequencies --    164.4401               196.1397               204.4285
 Red. masses --      7.0957                 4.5087                 6.0128
 Frc consts  --      0.1130                 0.1022                 0.1481
 IR Inten    --      0.0080                 0.7059                 1.3642

                      7                      8                      9
                      A                      A                      A
 Frequencies --    236.5335               264.3428               289.3008
 Red. masses --      4.4526                 5.1729                 7.7810
 Frc consts  --      0.1468                 0.2130                 0.3837
 IR Inten    --      1.0427                 4.1358                 4.1570

                     10                     11                     12
                      A                      A                      A
 Frequencies --    347.9470               370.8248               380.0983
 Red. masses --      7.2363                 1.1734                10.4691
 Frc consts  --      0.5162                 0.0951                 0.8912
 IR Inten    --      0.5900                88.0305                 2.5933

                     13                     14                     15
                      A                      A                      A
 Frequencies --    429.5022               431.3085               441.4265
 Red. masses --      5.1411                10.9071                 6.9888
 Frc consts  --      0.5588                 1.1955                 0.8024
 IR Inten    --      0.1109                25.4777                 3.1315

                     16                     17                     18
                      A                      A                      A
 Frequencies --    456.5330               478.6577               503.5219
 Red. masses --      7.6519                 3.9195                 6.8051
 Frc consts  --      0.9396                 0.5291                 1.0165
 IR Inten    --      9.4015                 2.0149                 8.2308

                     19                     20                     21
                      A                      A                      A
 Frequencies --    538.1398               538.5433               564.8046
 Red. masses --      6.4834                 5.1560                 4.4713
 Frc consts  --      1.1062                 0.8811                 0.8404
 IR Inten    --      1.6652                 3.0864                 0.1271

                     22                     23                     24
                      A                      A                      A
 Frequencies --    594.4535               624.8724               673.1342
 Red. masses --      7.6380                 5.9890                 4.3396
 Frc consts  --      1.5903                 1.3778                 1.1585
 IR Inten    --      3.5714                 2.7898                 0.8651

                     25                     26                     27
                      A                      A                      A
 Frequencies --    710.8261               710.8912               760.1583
 Red. masses --      3.2218                 6.5479                 2.9756
 Frc consts  --      0.9591                 1.9496                 1.0131
 IR Inten    --     28.7150                 2.9142                 9.0761

                     28                     29                     30
                      A                      A                      A
 Frequencies --    781.3856               782.2274               801.7847
 Red. masses --      7.0769                 2.8789                 1.2311
 Frc consts  --      2.5458                 1.0379                 0.4663
 IR Inten    --     22.2153                11.9551               167.3744

                     31                     32                     33
                      A                      A                      A
 Frequencies --    813.6328               833.0488               872.0791
 Red. masses --      2.2062                 1.6110                 7.8568
 Frc consts  --      0.8605                 0.6587                 3.5205
 IR Inten    --      4.0246                 0.0384                72.4017

                     34                     35                     36
                      A                      A                      A
 Frequencies --    909.9364               913.8533               933.2124
 Red. masses --      1.3879                 7.2460                 1.4064
 Frc consts  --      0.6771                 3.5653                 0.7216
 IR Inten    --      0.1424                 6.5850                 0.0719

                     37                     38                     39
                      A                      A                      A
 Frequencies --    973.4285               992.4686              1005.0262
 Red. masses --      5.4204                 1.3096                 1.3196
 Frc consts  --      3.0261                 0.7600                 0.7853
 IR Inten    --      5.4291                 0.2574                 0.4931

                     40                     41                     42
                      A                      A                      A
 Frequencies --   1062.3983              1082.1274              1107.4218
 Red. masses --      4.5880                 2.2053                 1.9070
 Frc consts  --      3.0510                 1.5215                 1.3779
 IR Inten    --     53.1934                 5.4664                14.4671

                     43                     44                     45
                      A                      A                      A
 Frequencies --   1175.4500              1182.8336              1193.2617
 Red. masses --      1.9951                 1.2658                 1.1617
 Frc consts  --      1.6241                 1.0434                 0.9746
 IR Inten    --     41.3762                12.1159                 5.3465

                     46                     47                     48
                      A                      A                      A
 Frequencies --   1207.9022              1233.8680              1279.5065
 Red. masses --      2.0238                 1.8083                 3.3041
 Frc consts  --      1.7397                 1.6220                 3.1871
 IR Inten    --     30.8046                96.2489               581.0032

                     49                     50                     51
                      A                      A                      A
 Frequencies --   1298.1954              1313.6659              1341.4662
 Red. masses --      2.3381                 3.7884                 4.1050
 Frc consts  --      2.3216                 3.8519                 4.3524
 IR Inten    --    213.8692               137.5340                12.6374

                     52                     53                     54
                      A                      A                      A
 Frequencies --   1366.4550              1383.9881              1402.3121
 Red. masses --      4.8692                 6.9135                 2.8503
 Frc consts  --      5.3567                 7.8021                 3.3024
 IR Inten    --     18.1020               113.4677               126.8280

                     55                     56                     57
                      A                      A                      A
 Frequencies --   1481.8275              1486.6738              1498.2777
 Red. masses --      2.6162                 2.6820                 2.8465
 Frc consts  --      3.3847                 3.4926                 3.7648
 IR Inten    --     76.0200                19.1047                 9.9054

                     58                     59                     60
                      A                      A                      A
 Frequencies --   1510.2917              1609.2390              1614.7421
 Red. masses --      2.7711                 4.1007                 6.5176
 Frc consts  --      3.7241                 6.2567                10.0125
 IR Inten    --    130.8264                36.8615                52.3062

                     61                     62                     63
                      A                      A                      A
 Frequencies --   1620.4836              1636.8717              1674.7717
 Red. masses --      5.8827                 5.8628                 7.6688
 Frc consts  --      9.1015                 9.2552                12.6733
 IR Inten    --    120.3700               105.0756               185.0549

                     64                     65                     66
                      A                      A                      A
 Frequencies --   1726.0645              3149.5695              3174.0804
 Red. masses --     12.1485                 1.0892                 1.0885
 Frc consts  --     21.3250                 6.3661                 6.4610
 IR Inten    --    189.4693                11.7315                 9.3282

                     67                     68                     69
                      A                      A                      A
 Frequencies --   3183.7086              3197.5629              3210.7342
 Red. masses --      1.0922                 1.0935                 1.0928
 Frc consts  --      6.5224                 6.5874                 6.6375
 IR Inten    --     10.0735                 4.1326                 2.9948

                     70                     71                     72
                      A                      A                      A
 Frequencies --   3214.5292              3337.5224              3809.8843
 Red. masses --      1.0930                 1.0680                 1.0660
 Frc consts  --      6.6543                 7.0095                 9.1165
 IR Inten    --      3.1472               254.1795                77.8679

 - Thermochemistry -
 -------------------
 Temperature   298.150 Kelvin.  Pressure   1.00000 Atm.
 Atom     1 has atomic number  8 and mass  15.99491

 Molecular mass:   240.04226 amu.
 Principal axes and moments of inertia in atomic units:
                           1         2         3
     Eigenvalues --  2268.097335098.970877367.06811
           X            0.98929   0.10231  -0.10413
           Y           -0.10870   0.99240  -0.05771
           Z            0.09743   0.06841   0.99289
 This molecule is an asymmetric top.
 Rotational symmetry number  1.
 Warning -- assumption of classical behavior for rotation
           may cause significant error
 Rotational temperatures (Kelvin)      0.03819     0.01699     0.01176
 Rotational constants (GHZ):           0.79571     0.35394     0.24497
 Zero-point vibrational energy     493377.3 (Joules/Mol)
                                  117.92000 (Kcal/Mol)
 Warning -- explicit consideration of  22 degrees of freedom as
           vibrations may cause significant error
 Vibrational temperatures:     45.71    88.05   147.72   236.59   282.20
          (Kelvin)            294.13   340.32   380.33   416.24   500.62
                              533.53   546.88   617.96   620.56   635.11
                              656.85   688.68   724.46   774.26   774.84
                              812.63   855.29   899.05   968.49  1022.72
                             1022.81  1093.70  1124.24  1125.45  1153.59
                             1170.64  1198.57  1254.73  1309.20  1314.83
                             1342.68  1400.55  1427.94  1446.01  1528.55
                             1556.94  1593.33  1691.21  1701.83  1716.84
                             1737.90  1775.26  1840.92  1867.81  1890.07
                             1930.07  1966.02  1991.25  2017.61  2132.02
                             2138.99  2155.69  2172.97  2315.34  2323.25
                             2331.51  2355.09  2409.62  2483.42  4531.53
                             4566.79  4580.65  4600.58  4619.53  4624.99
                             4801.95  5481.57

 Zero-point correction=                           0.187917 (Hartree/Particle)
 Thermal correction to Energy=                    0.201194
 Thermal correction to Enthalpy=                  0.202138
 Thermal correction to Gibbs Free Energy=         0.147709
 Sum of electronic and zero-point Energies=           -839.263655
 Sum of electronic and thermal Energies=              -839.250378
 Sum of electronic and thermal Enthalpies=            -839.249434
 Sum of electronic and thermal Free Energies=         -839.303863

                     E (Thermal)             CV                S
                      KCal/Mol        Cal/Mol-Kelvin    Cal/Mol-Kelvin
 Total                  126.251             53.790            114.556
 Electronic               0.000              0.000              0.000
 Translational            0.889              2.981             42.328
 Rotational               0.889              2.981             32.810
 Vibrational            124.474             47.828             39.418
 Vibration     1          0.594              1.983              5.716
 Vibration     2          0.597              1.973              4.418
 Vibration     3          0.605              1.947              3.403
 Vibration     4          0.623              1.886              2.498
 Vibration     5          0.636              1.845              2.169
 Vibration     6          0.640              1.834              2.093
 Vibration     7          0.655              1.785              1.829
 Vibration     8          0.671              1.738              1.633
 Vibration     9          0.686              1.694              1.478
 Vibration    10          0.726              1.579              1.175
 Vibration    11          0.743              1.532              1.076
 Vibration    12          0.750              1.513              1.039
 Vibration    13          0.791              1.406              0.860
 Vibration    14          0.792              1.402              0.854
 Vibration    15          0.801              1.380              0.822
 Vibration    16          0.815              1.346              0.776
 Vibration    17          0.835              1.297              0.714
 Vibration    18          0.859              1.242              0.649
 Vibration    19          0.893              1.166              0.569
 Vibration    20          0.894              1.165              0.568
 Vibration    21          0.921              1.107              0.514
 Vibration    22          0.952              1.044              0.459

 Optimization completed.
    -- Stationary point found.
 Normal termination of Gaussian 16 at Sun Jan  7 05:28:26 2024.
