 Gaussian 16, Revision A.03,
 Gaussian 16:  ES64L-G16RevA.03 25-Dec-2016

 ----------------------------------------------------------------
 #P UB3LYP/6-311++G(d,p) SCRF=(PCM,Solvent=n,n-DiMethylFormamide)
 ----------------------------------------------------------------

 ------------------
 Quinone PCM in DMF
 ------------------
 Symbolic Z-matrix:
 Charge =  0 Multiplicity = 1

                         Standard orientation:
 ---------------------------------------------------------------------
 Center     Atomic      Atomic             Coordinates (Angstroms)
 Number     Number       Type             X           Y           Z
 ---------------------------------------------------------------------
      1          6           0       -5.358272   -1.112699   -0.442825
      2          6           0       -4.045920   -1.312057    0.207127
      3          6           0       -3.361702   -0.228584    0.641902
      4          6           0       -3.925474    1.163258    0.439835
      5          6           0       -5.230417    1.362609   -0.218778
      6          6           0       -5.900745    0.265446   -0.627050
      7          8           0       -6.043083   -2.045747   -0.851050
      8          8           0       -3.282941    2.128518    0.831995
      9          6           0       -2.012278   -0.285408    1.305273
     10          6           0       -0.847372   -0.180265    0.296402
     11          6           0        0.524813   -0.199099    0.977868
     12          6           0        1.693171   -0.095903   -0.009078
     13          6           0        3.068949   -0.114240    0.666882
     14          6           0        4.237973   -0.008913   -0.319015
     15          6           0        5.614386   -0.026448    0.355457
     16          6           0        6.783288    0.079151   -0.630638
     17          6           0        8.159997    0.061431    0.042791
     18          6           0        9.329483    0.167322   -0.942633
     19          6           0       -5.738531    2.762581   -0.388694
     20          6           0       -3.598920   -2.743087    0.317529
     21          8           0       -7.099324    0.309515   -1.232218
     22          1           0       -1.914033   -1.209504    1.879684
     23          1           0       -1.938165    0.547842    2.006800
     24          1           0       -0.958226    0.745619   -0.277293
     25          1           0       -0.913360   -1.005282   -0.422894
     26          1           0        0.627183   -1.120705    1.565761
     27          1           0        0.581110    0.628928    1.695286
     28          1           0        1.589991    0.826431   -0.594733
     29          1           0        1.633310   -0.921924   -0.729635
     30          1           0        3.172064   -1.036749    1.252989
     31          1           0        3.128157    0.711357    1.387745
     32          1           0        4.134268    0.913495   -0.904987
     33          1           0        4.178303   -0.834380   -1.040281
     34          1           0        5.718172   -0.948828    0.941649
     35          1           0        5.674050    0.799056    1.076569
     36          1           0        6.679501    1.001676   -1.216569
     37          1           0        6.723318   -0.746179   -1.352071
     38          1           0        8.265067   -0.861176    0.628710
     39          1           0        8.221102    0.886684    0.764380
     40          6           0       10.700598    0.148631   -0.260604
     41          1           0        9.225407    1.089356   -1.527593
     42          1           0       -5.871550    3.244985    0.583934
     43          1           0       -6.689337    2.768595   -0.919848
     44          1           0       -5.015002    3.369465   -0.939502
     45          1           0       -4.313116   -3.323106    0.909214
     46          1           0       -2.613427   -2.833225    0.768941
     47          1           0       -3.573193   -3.209010   -0.671331
     48          1           0        9.269195   -0.657335   -1.663403
     49          1           0       10.804941    0.982583    0.440795
     50          1           0       11.511678    0.225571   -0.990151
     51          1           0       10.848923   -0.777351    0.304124
     52          1           0       -7.341702   -0.617528   -1.416625
 ---------------------------------------------------------------------

 SCF Done:  E(UB3LYP) =  -968.063632612     A.U. after   16 cycles

 The electronic state is 1-A.
 Alpha  occ. eigenvalues --  -19.17825 -19.15125 -19.13308 -10.29098 -10.27999
 Alpha  occ. eigenvalues --  -10.26466 -10.21472 -10.21305 -10.20244 -10.17808
 Alpha  occ. eigenvalues --  -10.17712 -10.17442 -10.17114 -10.16388 -10.16166
 Alpha  occ. eigenvalues --  -10.16140 -10.16018 -10.15961 -10.15943 -10.15929
 Alpha  occ. eigenvalues --  -10.15912 -10.15527  -1.10850  -1.06763  -1.06523
 Alpha  occ. eigenvalues --   -0.86796  -0.82468  -0.81268  -0.80073  -0.78189
 Alpha  occ. eigenvalues --   -0.75785  -0.73667  -0.72896  -0.70290  -0.67488
 Alpha  occ. eigenvalues --   -0.66582  -0.63974  -0.61442  -0.59868  -0.58293
 Alpha  occ. eigenvalues --   -0.58031  -0.57415  -0.57168  -0.56284  -0.53164
 Alpha  occ. eigenvalues --   -0.48720  -0.48394  -0.47661  -0.47599  -0.46405
 Alpha  occ. eigenvalues --   -0.46010  -0.44711  -0.43787  -0.43719  -0.43362
 Alpha  occ. eigenvalues --   -0.42780  -0.42553  -0.42364  -0.42079  -0.40977
 Alpha  occ. eigenvalues --   -0.40276  -0.40152  -0.39881  -0.39478  -0.39000
 Alpha  occ. eigenvalues --   -0.38745  -0.38253  -0.37899  -0.37019  -0.35754
 Alpha  occ. eigenvalues --   -0.35033  -0.34292  -0.33819  -0.33471  -0.32878
 Alpha  occ. eigenvalues --   -0.32551  -0.32316  -0.32079  -0.31979  -0.30411
 Alpha  occ. eigenvalues --   -0.30163  -0.28810  -0.27775  -0.25418
 Alpha virt. eigenvalues --   -0.12917  -0.01249  -0.00968  -0.00439   0.00048
 Alpha virt. eigenvalues --    0.00263   0.00452   0.00516   0.01138   0.01245
 Alpha virt. eigenvalues --    0.01490   0.02148   0.02214   0.02917   0.03215

  Beta  occ. eigenvalues --  -19.17825 -19.15125 -19.13308 -10.29098 -10.27999
  Beta  occ. eigenvalues --  -10.26466 -10.21472 -10.21305 -10.20244 -10.17808
  Beta  occ. eigenvalues --  -10.17712 -10.17442 -10.17114 -10.16388 -10.16166
  Beta  occ. eigenvalues --  -10.16140 -10.16018 -10.15961 -10.15943 -10.15929
  Beta  occ. eigenvalues --  -10.15912 -10.15527  -1.10850  -1.06763  -1.06523
  Beta  occ. eigenvalues --   -0.86796  -0.82468  -0.81268  -0.80073  -0.78189
  Beta  occ. eigenvalues --   -0.75785  -0.73667  -0.72896  -0.70290  -0.67488
  Beta  occ. eigenvalues --   -0.66582  -0.63974  -0.61442  -0.59868  -0.58293
  Beta  occ. eigenvalues --   -0.58031  -0.57415  -0.57168  -0.56284  -0.53164
  Beta  occ. eigenvalues --   -0.48720  -0.48394  -0.47661  -0.47599  -0.46405
  Beta  occ. eigenvalues --   -0.46010  -0.44711  -0.43787  -0.43719  -0.43362
  Beta  occ. eigenvalues --   -0.42780  -0.42553  -0.42364  -0.42079  -0.40977
  Beta  occ. eigenvalues --   -0.40276  -0.40152  -0.39881  -0.39478  -0.39000
  Beta  occ. eigenvalues --   -0.38745  -0.38253  -0.37899  -0.37019  -0.35754
  Beta  occ. eigenvalues --   -0.35033  -0.34292  -0.33819  -0.33471  -0.32878
  Beta  occ. eigenvalues --   -0.32551  -0.32316  -0.32079  -0.31979  -0.30411
  Beta  occ. eigenvalues --   -0.30163  -0.28810  -0.27775  -0.25418
  Beta virt. eigenvalues --   -0.12917  -0.01249  -0.00968  -0.00439   0.00048
  Beta virt. eigenvalues --    0.00263   0.00452   0.00516   0.01138   0.01245
  Beta virt. eigenvalues --    0.01490   0.02148   0.02214   0.02917   0.03215

 Mulliken charges and spin densities:
               1          2
     1  C   -0.492530   0.000000
     2  C    0.944163  -0.000000
     3  C    0.820391   0.000000
     4  C   -0.666629  -0.000000
     5  C    1.046326  -0.000000
     6  C   -1.109086   0.000000
     7  O   -0.311553  -0.000000
     8  O   -0.270506  -0.000000
     9  C   -0.423914   0.000000
    10  C   -0.902601  -0.000000
    11  C   -0.365349   0.000000
    12  C   -0.043630   0.000000
    13  C    0.026456  -0.000000
    14  C    0.049400  -0.000000
    15  C   -0.040368  -0.000000
    16  C   -0.295811  -0.000000
    17  C   -0.475760  -0.000000
    18  C   -0.283391  -0.000000
    19  C   -0.383195   0.000000
    20  C   -0.542623  -0.000000
    21  O   -0.244414  -0.000000
    22  H    0.203728   0.000000
    23  H    0.226594   0.000000
    24  H    0.198434   0.000000
    25  H    0.147753   0.000000
    26  H    0.131105  -0.000000
    27  H    0.122654  -0.000000
    28  H    0.126232  -0.000000
    29  H    0.131251  -0.000000
    30  H    0.132340   0.000000
    31  H    0.133545  -0.000000
    32  H    0.129998   0.000000
    33  H    0.130019   0.000000
    34  H    0.128667  -0.000000
    35  H    0.129188  -0.000000
    36  H    0.127111   0.000000
    37  H    0.126828   0.000000
    38  H    0.123612   0.000000
    39  H    0.123727   0.000000
    40  C   -0.690817   0.000000
    41  H    0.131036  -0.000000
    42  H    0.184730   0.000000
    43  H    0.192615  -0.000000
    44  H    0.182713   0.000000
    45  H    0.196406   0.000000
    46  H    0.142461  -0.000000
    47  H    0.189239   0.000000
    48  H    0.130988  -0.000000
    49  H    0.139985   0.000000
    50  H    0.147802   0.000000
    51  H    0.139944   0.000000
    52  H    0.304736   0.000000
 Sum of Mulliken charges =  -0.00000  -0.00000

 Dipole moment (field-independent basis, Debye):
    X=              1.2481    Y=             -2.2048    Z=              0.1617  Tot=              2.5387
 Quadrupole moment (field-independent basis, Debye-Ang):
   XX=           -150.4039   YY=           -142.7457   ZZ=           -139.8729
   XY=              1.6751   XZ=             -2.6879   YZ=             -4.5401

 Normal termination of Gaussian 16 at Wed Jan 24 22:56:22 2024.
