 Gaussian 16, Revision A.03,
 Gaussian 16:  ES64L-G16RevA.03 25-Dec-2016

 ----------------------------------------------------------------
 #P UB3LYP/6-311++G(d,p) SCRF=(PCM,Solvent=n,n-DiMethylFormamide)
 ----------------------------------------------------------------

 ------------------
 Radical PCM in DMF
 ------------------
 Symbolic Z-matrix:
 Charge = -1 Multiplicity = 2

                         Standard orientation:
 ---------------------------------------------------------------------
 Center     Atomic      Atomic             Coordinates (Angstroms)
 Number     Number       Type             X           Y           Z
 ---------------------------------------------------------------------
      1          7           0        2.575557   -2.804263    0.308171
      2          6           0        2.503488   -1.419927    0.122824
      3          6           0        3.690752   -0.692681    0.069733
      4          6           0        3.690807    0.692445   -0.069447
      5          6           0        2.503646    1.419806   -0.122592
      6          7           0        2.575957    2.804255   -0.307270
      7          6           0        1.255747    0.719679   -0.041143
      8          6           0        0.000028    1.456655   -0.000469
      9          8           0        0.000014    2.740385   -0.000863
     10          6           0       -1.255736    0.719755    0.040836
     11          6           0       -2.503495    1.419931    0.122877
     12          7           0       -2.575595    2.804390    0.307991
     13          6           0       -3.690745    0.692646    0.070031
     14          6           0       -3.690832   -0.692446   -0.069286
     15          6           0       -2.503624   -1.419817   -0.122609
     16          7           0       -2.575893   -2.804176   -0.307443
     17          6           0       -1.255781   -0.719711   -0.041077
     18          6           0       -0.000043   -1.456691   -0.000390
     19          8           0       -0.000018   -2.740433   -0.000854
     20          6           0        1.255703   -0.719749    0.040772
     21          1           0        1.683257   -3.258570    0.113157
     22          1           0        3.392024   -3.233849   -0.102023
     23          1           0        4.634650   -1.227013    0.141668
     24          1           0        4.634755    1.226716   -0.141248
     25          1           0        3.392107    3.233523    0.103928
     26          1           0        1.683470    3.258434   -0.112743
     27          1           0       -3.391689    3.233813   -0.103174
     28          1           0       -1.683150    3.258410    0.112822
     29          1           0       -4.634620    1.227012    0.142101
     30          1           0       -4.634767   -1.226724   -0.141154
     31          1           0       -1.683442   -3.258516   -0.113203
     32          1           0       -3.392229   -3.233660    0.103102
 ---------------------------------------------------------------------

 SCF Done:  E(UB3LYP) =  -910.606337872     A.U. after   17 cycles

 The electronic state is 2-A.
 Alpha  occ. eigenvalues --  -19.07181 -19.07180 -14.29501 -14.29500 -14.29500
 Alpha  occ. eigenvalues --  -14.29498 -10.22443 -10.22442 -10.20322 -10.20321
 Alpha  occ. eigenvalues --  -10.20320 -10.20319 -10.16910 -10.16908 -10.16870
 Alpha  occ. eigenvalues --  -10.16870 -10.16069 -10.16069 -10.16015 -10.16014
 Alpha  occ. eigenvalues --   -1.00123  -0.99850  -0.90996  -0.90401  -0.89925
 Alpha  occ. eigenvalues --   -0.89351  -0.82922  -0.80901  -0.77396  -0.73557
 Alpha  occ. eigenvalues --   -0.71860  -0.70238  -0.65799  -0.63085  -0.62866
 Alpha  occ. eigenvalues --   -0.57514  -0.55450  -0.55408  -0.53182  -0.51154
 Alpha  occ. eigenvalues --   -0.50285  -0.49045  -0.47596  -0.47418  -0.47101
 Alpha  occ. eigenvalues --   -0.45787  -0.44183  -0.43262  -0.42898  -0.42213
 Alpha  occ. eigenvalues --   -0.40380  -0.40315  -0.38681  -0.38476  -0.38083
 Alpha  occ. eigenvalues --   -0.37844  -0.36568  -0.36464  -0.35154  -0.34790
 Alpha  occ. eigenvalues --   -0.33388  -0.32358  -0.27915  -0.26294  -0.25650
 Alpha  occ. eigenvalues --   -0.24306  -0.24292  -0.23207  -0.20034  -0.18020
 Alpha  occ. eigenvalues --   -0.12586
 Alpha virt. eigenvalues --   -0.03222  -0.02045  -0.00230   0.00359   0.00609
 Alpha virt. eigenvalues --    0.01658   0.01906   0.02220   0.03458   0.03478
 Alpha virt. eigenvalues --    0.04099   0.04165   0.04977   0.05974   0.06201

  Beta  occ. eigenvalues --  -19.06773 -19.06772 -14.29447 -14.29446 -14.29446
  Beta  occ. eigenvalues --  -14.29444 -10.22255 -10.22254 -10.20282 -10.20281
  Beta  occ. eigenvalues --  -10.20279 -10.20278 -10.16906 -10.16904 -10.16865
  Beta  occ. eigenvalues --  -10.16865 -10.15962 -10.15962 -10.15907 -10.15906
  Beta  occ. eigenvalues --   -0.99428  -0.99133  -0.90866  -0.90211  -0.89808
  Beta  occ. eigenvalues --   -0.89198  -0.82709  -0.80744  -0.77029  -0.73405
  Beta  occ. eigenvalues --   -0.71508  -0.70034  -0.65214  -0.62858  -0.62662
  Beta  occ. eigenvalues --   -0.57395  -0.55229  -0.55219  -0.53130  -0.51089
  Beta  occ. eigenvalues --   -0.50197  -0.48910  -0.47503  -0.47303  -0.46827
  Beta  occ. eigenvalues --   -0.45700  -0.44064  -0.43132  -0.42760  -0.41394
  Beta  occ. eigenvalues --   -0.40280  -0.39901  -0.38454  -0.38051  -0.37959
  Beta  occ. eigenvalues --   -0.36605  -0.36332  -0.36318  -0.34669  -0.33923
  Beta  occ. eigenvalues --   -0.33032  -0.31407  -0.27038  -0.25784  -0.24380
  Beta  occ. eigenvalues --   -0.23960  -0.23935  -0.22832  -0.18812  -0.17258
  Beta virt. eigenvalues --   -0.07725  -0.01940  -0.01061  -0.00195   0.00371
  Beta virt. eigenvalues --    0.00632   0.01675   0.01926   0.02547   0.03502
  Beta virt. eigenvalues --    0.03507   0.04119   0.04337   0.05415   0.06152

 Mulliken charges and spin densities:
               1          2
     1  N   -0.438119   0.023404
     2  C   -0.177598   0.043641
     3  C   -0.356950   0.085490
     4  C   -0.357304   0.085412
     5  C   -0.176910   0.043735
     6  N   -0.438181   0.023418
     7  C    0.541750  -0.009360
     8  C   -0.639749   0.090409
     9  O   -0.481033   0.142902
    10  C    0.541591  -0.009360
    11  C   -0.177514   0.043743
    12  N   -0.438164   0.023400
    13  C   -0.357063   0.085391
    14  C   -0.357083   0.085492
    15  C   -0.176775   0.043660
    16  N   -0.438211   0.023420
    17  C    0.541601  -0.009355
    18  C   -0.639587   0.090378
    19  O   -0.481107   0.142873
    20  C    0.541145  -0.009338
    21  H    0.318908  -0.002444
    22  H    0.254205  -0.000853
    23  H    0.168188  -0.006544
    24  H    0.168210  -0.006537
    25  H    0.254210  -0.000855
    26  H    0.318894  -0.002446
    27  H    0.254171  -0.000851
    28  H    0.318892  -0.002445
    29  H    0.168215  -0.006536
    30  H    0.168201  -0.006543
    31  H    0.318932  -0.002447
    32  H    0.254235  -0.000855
 Sum of Mulliken charges =  -1.00000   1.00000

 Dipole moment (field-independent basis, Debye):
    X=              0.0005    Y=             -0.0050    Z=              0.0022  Tot=              0.0055
 Quadrupole moment (field-independent basis, Debye-Ang):
   XX=           -112.1167   YY=           -137.5303   ZZ=           -131.0268
   XY=              0.0041   XZ=              0.0122   YZ=             -0.0011

 Normal termination of Gaussian 16 at Sun Jan 14 01:20:11 2024.
