 Gaussian 16, Revision A.03,
 Gaussian 16:  ES64L-G16RevA.03 25-Dec-2016

 --------------------------------------
 #P UB3LYP/6-311++G(d,p) nosym opt freq
 --------------------------------------

 -------
 Radical
 -------
 Symbolic Z-matrix:
 Charge = -1 Multiplicity = 2

 SCF Done:  E(UB3LYP) =  -910.527610674     A.U. after   18 cycles
 Optimization completed.
    -- Stationary point found.
 Normal termination of Gaussian 16 at Wed Dec 27 19:54:48 2023.

 ----------------------------------------------------------------------
 #P Geom=AllCheck Guess=TCheck SCRF=Check GenChk UB3LYP/6-311++G(d,p) F
 req
 ----------------------------------------------------------------------

 Structure from the checkpoint file:  "169-rad.chk"
 -------
 Radical
 -------
 Charge = -1 Multiplicity = 2

                          Input orientation:
 ---------------------------------------------------------------------
 Center     Atomic      Atomic             Coordinates (Angstroms)
 Number     Number       Type             X           Y           Z
 ---------------------------------------------------------------------
      1          7           0       -3.437560    1.591877    0.595778
      2          6           0       -2.849355    0.347578    0.347442
      3          6           0       -3.669947   -0.776937    0.289170
      4          6           0       -3.146281   -2.051093    0.088555
      5          6           0       -1.774275   -2.265956   -0.023976
      6          7           0       -1.319323   -3.565699   -0.268353
      7          6           0       -0.886254   -1.144160    0.060028
      8          6           0        0.556307   -1.344667    0.039207
      9          8           0        1.046600   -2.529686   -0.018287
     10          6           0        1.436015   -0.184613    0.084574
     11          6           0        2.858747   -0.355537    0.106887
     12          7           0        3.461147   -1.611924    0.228542
     13          6           0        3.675273    0.772437    0.059356
     14          6           0        3.141035    2.055584   -0.018179
     15          6           0        1.764924    2.273883   -0.011982
     16          7           0        1.295884    3.585483   -0.136658
     17          6           0        0.883158    1.146855    0.066790
     18          6           0       -0.556320    1.344726    0.168871
     19          8           0       -1.046661    2.529779    0.225510
     20          6           0       -1.432853    0.181971    0.205866
     21          1           0       -2.794552    2.359449    0.400848
     22          1           0       -4.371195    1.688880    0.223842
     23          1           0       -4.742883   -0.647665    0.406328
     24          1           0       -3.816609   -2.903638    0.014626
     25          1           0       -1.893337   -4.287976    0.141866
     26          1           0       -0.314317   -3.649300   -0.114643
     27          1           0        4.363071   -1.682344   -0.219838
     28          1           0        2.803024   -2.366662    0.033793
     29          1           0        4.753689    0.638465    0.086022
     30          1           0        3.805873    2.912779   -0.087739
     31          1           0        0.305667    3.656668    0.097920
     32          1           0        1.901307    4.281443    0.273843
 ---------------------------------------------------------------------

 SCF Done:  E(UB3LYP) =  -910.527610674     A.U. after    1 cycles

 Alpha  occ. eigenvalues --  -18.94944 -18.94943 -14.18010 -14.18009 -14.18008
 Alpha  occ. eigenvalues --  -14.18006 -10.10237 -10.10236 -10.08552 -10.08551
 Alpha  occ. eigenvalues --  -10.08550 -10.08548 -10.04913 -10.04911 -10.04873
 Alpha  occ. eigenvalues --  -10.04873 -10.04659 -10.04658 -10.04604 -10.04604
 Alpha  occ. eigenvalues --   -0.87792  -0.87509  -0.79354  -0.78729  -0.78341
 Alpha  occ. eigenvalues --   -0.77759  -0.71022  -0.69222  -0.65677  -0.61795
 Alpha  occ. eigenvalues --   -0.59963  -0.58538  -0.53995  -0.51357  -0.51203
 Alpha  occ. eigenvalues --   -0.45952  -0.43882  -0.43594  -0.41621  -0.39717
 Alpha  occ. eigenvalues --   -0.38762  -0.37607  -0.36191  -0.35785  -0.35259
 Alpha  occ. eigenvalues --   -0.34403  -0.32691  -0.31606  -0.31073  -0.29946
 Alpha  occ. eigenvalues --   -0.28658  -0.28044  -0.27116  -0.26644  -0.26535
 Alpha  occ. eigenvalues --   -0.25605  -0.25188  -0.24477  -0.23226  -0.23061
 Alpha  occ. eigenvalues --   -0.21467  -0.20358  -0.15790  -0.14561  -0.13752
 Alpha  occ. eigenvalues --   -0.12295  -0.12101  -0.11095  -0.07920  -0.06143
 Alpha  occ. eigenvalues --   -0.00545
 Alpha virt. eigenvalues --    0.07983   0.08091   0.08586   0.08940   0.09377
 Alpha virt. eigenvalues --    0.09650   0.10604   0.11231   0.12357   0.13410
 Alpha virt. eigenvalues --    0.13472   0.13693   0.15325   0.15492   0.15783

  Beta  occ. eigenvalues --  -18.94501 -18.94500 -14.17966 -14.17965 -14.17965
  Beta  occ. eigenvalues --  -14.17963 -10.10058 -10.10057 -10.08528 -10.08527
  Beta  occ. eigenvalues --  -10.08525 -10.08524 -10.04894 -10.04893 -10.04854
  Beta  occ. eigenvalues --  -10.04854 -10.04549 -10.04549 -10.04494 -10.04494
  Beta  occ. eigenvalues --   -0.87052  -0.86743  -0.79245  -0.78552  -0.78248
  Beta  occ. eigenvalues --   -0.77623  -0.70802  -0.69066  -0.65299  -0.61633
  Beta  occ. eigenvalues --   -0.59625  -0.58350  -0.53400  -0.51129  -0.51008
  Beta  occ. eigenvalues --   -0.45845  -0.43651  -0.43426  -0.41572  -0.39661
  Beta  occ. eigenvalues --   -0.38676  -0.37481  -0.36103  -0.35681  -0.34971
  Beta  occ. eigenvalues --   -0.34325  -0.32571  -0.31487  -0.30937  -0.29126
  Beta  occ. eigenvalues --   -0.28554  -0.27593  -0.27017  -0.26522  -0.26135
  Beta  occ. eigenvalues --   -0.25059  -0.24269  -0.24215  -0.23072  -0.21834
  Beta  occ. eigenvalues --   -0.21166  -0.19337  -0.15004  -0.14069  -0.12239
  Beta  occ. eigenvalues --   -0.11939  -0.11699  -0.10711  -0.06723  -0.05460
  Beta virt. eigenvalues --    0.04425   0.07997   0.08096   0.08947   0.09128
  Beta virt. eigenvalues --    0.09983   0.10395   0.10879   0.11238   0.12369
  Beta virt. eigenvalues --    0.13539   0.13582   0.13721   0.15354   0.15650

 Mulliken charges and spin densities:
               1          2
     1  N   -0.384725   0.018431
     2  C   -0.167151   0.035033
     3  C   -0.360814   0.087514
     4  C   -0.361507   0.087460
     5  C   -0.166151   0.035110
     6  N   -0.384791   0.018446
     7  C    0.615699   0.001274
     8  C   -0.728036   0.079305
     9  O   -0.407890   0.157559
    10  C    0.615600   0.001279
    11  C   -0.167138   0.035116
    12  N   -0.384739   0.018430
    13  C   -0.360971   0.087448
    14  C   -0.361107   0.087512
    15  C   -0.166309   0.035057
    16  N   -0.384854   0.018447
    17  C    0.615771   0.001271
    18  C   -0.727866   0.079292
    19  O   -0.407988   0.157531
    20  C    0.615162   0.001296
    21  H    0.305629  -0.002491
    22  H    0.204051  -0.001252
    23  H    0.105247  -0.006961
    24  H    0.105275  -0.006954
    25  H    0.204064  -0.001255
    26  H    0.305614  -0.002493
    27  H    0.204021  -0.001252
    28  H    0.305607  -0.002492
    29  H    0.105290  -0.006953
    30  H    0.105261  -0.006958
    31  H    0.305662  -0.002494
    32  H    0.204081  -0.001255
 Sum of Mulliken charges =  -1.00000   1.00000

 Dipole moment (field-independent basis, Debye):
    X=             -0.0017    Y=              0.0031    Z=             -0.5004  Tot=              0.5004
 Quadrupole moment (field-independent basis, Debye-Ang):
   XX=           -131.6223   YY=           -138.8265   ZZ=           -130.4811
   XY=              3.6017   XZ=              0.1534   YZ=             -0.4126

  Exact polarizability: 381.589  37.886 306.520  -8.907   4.729 116.433
 Approx polarizability: 621.301  39.770 542.958 -15.267  10.007 188.198

                      1                      2                      3
                      A                      A                      A
 Frequencies --     35.8959                51.1611                94.2559
 Red. masses --      6.9748                 5.0726                 8.1799
 Frc consts  --      0.0053                 0.0078                 0.0428
 IR Inten    --      5.0668                 0.0001                 0.1652

                      4                      5                      6
                      A                      A                      A
 Frequencies --    117.9705               121.7517               185.6356
 Red. masses --      4.1702                 4.3434                 6.7952
 Frc consts  --      0.0342                 0.0379                 0.1380
 IR Inten    --      2.5151                 6.1415                 1.8559

                      7                      8                      9
                      A                      A                      A
 Frequencies --    225.5824               260.1106               311.4528
 Red. masses --      5.6133                 4.2447                 5.9197
 Frc consts  --      0.1683                 0.1692                 0.3383
 IR Inten    --      5.6643                18.0200                 7.9282

                     10                     11                     12
                      A                      A                      A
 Frequencies --    311.6790               332.3006               333.3210
 Red. masses --      4.6874                 2.8629                 3.2998
 Frc consts  --      0.2683                 0.1863                 0.2160
 IR Inten    --      0.1731                32.2170                 0.4387

                     13                     14                     15
                      A                      A                      A
 Frequencies --    372.2441               383.2121               391.6719
 Red. masses --      2.8230                 1.3015                 1.2826
 Frc consts  --      0.2305                 0.1126                 0.1159
 IR Inten    --     47.5560               110.8557               270.2153

                     16                     17                     18
                      A                      A                      A
 Frequencies --    412.9832               418.6872               419.0100
 Red. masses --      5.0014                 2.0136                 2.6751
 Frc consts  --      0.5026                 0.2080                 0.2767
 IR Inten    --     18.9462               127.1219                10.3670

                     19                     20                     21
                      A                      A                      A
 Frequencies --    429.9133               461.1203               465.5149
 Red. masses --      1.9109                 3.5076                 4.6656
 Frc consts  --      0.2081                 0.4394                 0.5957
 IR Inten    --      0.0626                14.5567                15.6347

                     22                     23                     24
                      A                      A                      A
 Frequencies --    465.7301               471.4925               478.0194
 Red. masses --      4.3663                 6.2989                 3.6275
 Frc consts  --      0.5580                 0.8250                 0.4884
 IR Inten    --      0.9168                 2.9266                10.0762

                     25                     26                     27
                      A                      A                      A
 Frequencies --    501.0091               515.5323               543.1225
 Red. masses --      4.6844                 4.9490                 6.3451
 Frc consts  --      0.6928                 0.7750                 1.1028
 IR Inten    --      0.0002                70.5678                 0.0005

                     28                     29                     30
                      A                      A                      A
 Frequencies --    553.5061               586.2106               620.9244
 Red. masses --      3.2630                 3.4888                 2.8153
 Frc consts  --      0.5890                 0.7064                 0.6395
 IR Inten    --     39.9867                46.1529                32.3549

                     31                     32                     33
                      A                      A                      A
 Frequencies --    648.5720               722.1358               727.4524
 Red. masses --      4.8146                 4.5457                 2.8208
 Frc consts  --      1.1932                 1.3967                 0.8795
 IR Inten    --      0.9611                51.8760                 0.0029

                     34                     35                     36
                      A                      A                      A
 Frequencies --    732.2743               740.9250               763.7602
 Red. masses --      2.9588                 2.3281                 1.4571
 Frc consts  --      0.9348                 0.7530                 0.5008
 IR Inten    --    255.0587               142.3824                85.2983

                     37                     38                     39
                      A                      A                      A
 Frequencies --    770.0316               775.5967               776.9069
 Red. masses --      1.7583                 1.4604                 1.6563
 Frc consts  --      0.6143                 0.5176                 0.5890
 IR Inten    --     25.3114                98.1117                 0.0495

                     40                     41                     42
                      A                      A                      A
 Frequencies --    800.3575               801.5615               802.2011
 Red. masses --      5.6096                 2.7078                 2.0466
 Frc consts  --      2.1172                 1.0250                 0.7760
 IR Inten    --     26.5327               125.7354                63.9839

                     43                     44                     45
                      A                      A                      A
 Frequencies --    821.2354               868.0177               868.7134
 Red. masses --      5.4786                 3.7054                 1.3750
 Frc consts  --      2.1770                 1.6449                 0.6114
 IR Inten    --     30.6360                59.6226                 0.9101

                     46                     47                     48
                      A                      A                      A
 Frequencies --    869.7088               960.8006               967.2810
 Red. masses --      1.3503                 4.9364                 6.5887
 Frc consts  --      0.6018                 2.6849                 3.6321
 IR Inten    --      0.0019                 0.5756                75.7993

                     49                     50                     51
                      A                      A                      A
 Frequencies --    995.9979              1072.4440              1142.4092
 Red. masses --      3.7443                 1.8024                 1.5433
 Frc consts  --      2.1884                 1.2213                 1.1867
 IR Inten    --      0.0001                 1.1431               113.0390

                     52                     53                     54
                      A                      A                      A
 Frequencies --   1145.7824              1161.2737              1169.4022
 Red. masses --      2.0053                 1.3233                 1.5350
 Frc consts  --      1.5510                 1.0515                 1.2367
 IR Inten    --      0.0221                 4.4030               161.2706

                     55                     56                     57
                      A                      A                      A
 Frequencies --   1188.8829              1219.4977              1241.0620
 Red. masses --      1.1408                 3.0104                 3.0307
 Frc consts  --      0.9501                 2.6378                 2.7503
 IR Inten    --      0.0001                10.6159                87.5431

                     58                     59                     60
                      A                      A                      A
 Frequencies --   1256.8749              1283.6027              1291.7413
 Red. masses --      5.4542                 2.9096                 5.8226
 Frc consts  --      5.0765                 2.8245                 5.7242
 IR Inten    --      1.9711                 2.4605                 0.0003

                     61                     62                     63
                      A                      A                      A
 Frequencies --   1306.5702              1345.3200              1347.5464
 Red. masses --      2.0750                 6.2276                 7.5804
 Frc consts  --      2.0871                 6.6408                 8.1102
 IR Inten    --      0.3857                97.2786                 0.0102

                     64                     65                     66
                      A                      A                      A
 Frequencies --   1394.2730              1405.5650              1410.4621
 Red. masses --      4.2060                 6.0649                 2.2007
 Frc consts  --      4.8175                 7.0595                 2.5794
 IR Inten    --      3.1616                 0.0025               348.2810

                     67                     68                     69
                      A                      A                      A
 Frequencies --   1433.2149              1469.0980              1490.9648
 Red. masses --      3.1085                 3.2439                 2.7909
 Frc consts  --      3.7621                 4.1250                 3.6553
 IR Inten    --     49.9114                 4.6370                 0.0001

                     70                     71                     72
                      A                      A                      A
 Frequencies --   1519.0018              1557.3618              1579.4165
 Red. masses --      6.0152                 1.4186                 1.2179
 Frc consts  --      8.1774                 2.0271                 1.7900
 IR Inten    --   1026.0239                 3.5977                 6.1057

                     73                     74                     75
                      A                      A                      A
 Frequencies --   1593.9585              1594.2330              1612.7855
 Red. masses --      4.9413                 3.1079                 2.8855
 Frc consts  --      7.3969                 4.6540                 4.4221
 IR Inten    --      3.5472               295.8409               530.2549

                     76                     77                     78
                      A                      A                      A
 Frequencies --   1617.0703              1617.1360              1641.8095
 Red. masses --      1.4667                 1.3237                 7.3632
 Frc consts  --      2.2597                 2.0395                11.6940
 IR Inten    --     15.1337                 0.0718                 0.0003

                     79                     80                     81
                      A                      A                      A
 Frequencies --   3122.6760              3122.7695              3143.4220
 Red. masses --      1.0845                 1.0847                 1.0935
 Frc consts  --      6.2308                 6.2324                 6.3659
 IR Inten    --     77.7515                 0.9630               133.7874

                     82                     83                     84
                      A                      A                      A
 Frequencies --   3143.8233              3383.2727              3385.5888
 Red. masses --      1.0934                 1.0597                 1.0598
 Frc consts  --      6.3670                 7.1465                 7.1570
 IR Inten    --      0.0014                 5.6467               359.8142

                     85                     86                     87
                      A                      A                      A
 Frequencies --   3395.9870              3396.3418              3612.4411
 Red. masses --      1.0598                 1.0597                 1.0867
 Frc consts  --      7.2012                 7.2022                 8.3556
 IR Inten    --      0.6925                 0.1260                27.0916

                     88                     89                     90
                      A                      A                      A
 Frequencies --   3612.8180              3612.9770              3613.3332
 Red. masses --      1.0868                 1.0873                 1.0873
 Frc consts  --      8.3575                 8.3621                 8.3641
 IR Inten    --     34.5069                 1.2808                 0.1238

 - Thermochemistry -
 -------------------
 Temperature   298.150 Kelvin.  Pressure   1.00000 Atm.
 Atom     1 has atomic number  7 and mass  14.00307

 Molecular mass:   268.09603 amu.
 Principal axes and moments of inertia in atomic units:
                           1         2         3
     Eigenvalues --  3477.638895545.597448976.70475
           X            0.92340  -0.38193   0.03811
           Y            0.38315   0.92312  -0.03236
           Z           -0.02282   0.04448   0.99875
 This molecule is an asymmetric top.
 Rotational symmetry number  1.
 Warning -- assumption of classical behavior for rotation
           may cause significant error
 Rotational temperatures (Kelvin)      0.02491     0.01562     0.00965
 Rotational constants (GHZ):           0.51896     0.32544     0.20105
 Zero-point vibrational energy     639635.8 (Joules/Mol)
                                  152.87664 (Kcal/Mol)
 Warning -- explicit consideration of  29 degrees of freedom as
           vibrations may cause significant error
 Vibrational temperatures:     51.65    73.61   135.61   169.73   175.17
          (Kelvin)            267.09   324.56   374.24   448.11   448.44
                              478.11   479.57   535.58   551.36   563.53
                              594.19   602.40   602.86   618.55   663.45
                              669.77   670.08   678.37   687.76   720.84
                              741.74   781.43   796.37   843.43   893.37
                              933.15  1038.99  1046.64  1053.58  1066.03
                             1098.88  1107.90  1115.91  1117.80  1151.54
                             1153.27  1154.19  1181.57  1248.88  1249.88
                             1251.32  1382.38  1391.70  1433.02  1543.01
                             1643.67  1648.53  1670.81  1682.51  1710.54
                             1754.59  1785.61  1808.36  1846.82  1858.53
                             1879.86  1935.62  1938.82  2006.05  2022.29
                             2029.34  2062.08  2113.70  2145.17  2185.50
                             2240.70  2272.43  2293.35  2293.75  2320.44
                             2326.60  2326.70  2362.20  4492.83  4492.97
                             4522.68  4523.26  4867.77  4871.11  4886.07
                             4886.58  5197.50  5198.04  5198.27  5198.78

 Zero-point correction=                           0.243624 (Hartree/Particle)
 Thermal correction to Energy=                    0.259754
 Thermal correction to Enthalpy=                  0.260698
 Thermal correction to Gibbs Free Energy=         0.200383
 Sum of electronic and zero-point Energies=           -910.283986
 Sum of electronic and thermal Energies=              -910.267857
 Sum of electronic and thermal Enthalpies=            -910.266913
 Sum of electronic and thermal Free Energies=         -910.327227

                     E (Thermal)             CV                S
                      KCal/Mol        Cal/Mol-Kelvin    Cal/Mol-Kelvin
 Total                  162.998             67.295            126.943
 Electronic               0.000              0.000              1.377
 Translational            0.889              2.981             42.658
 Rotational               0.889              2.981             33.515
 Vibrational            161.221             61.334             49.394
 Vibration     1          0.594              1.982              5.474
 Vibration     2          0.595              1.977              4.772
 Vibration     3          0.603              1.953              3.570
 Vibration     4          0.608              1.934              3.133
 Vibration     5          0.609              1.931              3.072
 Vibration     6          0.632              1.859              2.271
 Vibration     7          0.650              1.802              1.914
 Vibration     8          0.668              1.746              1.661
 Vibration     9          0.700              1.652              1.355
 Vibration    10          0.700              1.651              1.353
 Vibration    11          0.714              1.611              1.249
 Vibration    12          0.715              1.609              1.244
 Vibration    13          0.744              1.529              1.071
 Vibration    14          0.752              1.506              1.026
 Vibration    15          0.759              1.488              0.994
 Vibration    16          0.777              1.442              0.916
 Vibration    17          0.782              1.430              0.896
 Vibration    18          0.782              1.429              0.895
 Vibration    19          0.791              1.405              0.859
 Vibration    20          0.819              1.336              0.763
 Vibration    21          0.823              1.327              0.750
 Vibration    22          0.823              1.326              0.750
 Vibration    23          0.828              1.313              0.733
 Vibration    24          0.835              1.299              0.715
 Vibration    25          0.856              1.248              0.656
 Vibration    26          0.871              1.216              0.620
 Vibration    27          0.898              1.155              0.559
 Vibration    28          0.909              1.132              0.537
 Vibration    29          0.943              1.061              0.474

                           ! Non-Optimized Parameters !
 Normal termination of Gaussian 16 at Wed Dec 27 21:54:16 2023.
