 Gaussian 16, Revision A.03,
 Gaussian 16:  ES64L-G16RevA.03 25-Dec-2016

 ----------------------------------------------------------------------
 #P UB3LYP/6-311++G(d,p) nosym opt freq SCRF=(PCM,Solvent=n,n-DiMethylF
 ormamide)
 ----------------------------------------------------------------------

 --------
 Oxidized
 --------
 Symbolic Z-matrix:
 Charge =  0 Multiplicity = 1

 SCF Done:  E(UB3LYP) =  -839.469424334     A.U. after   14 cycles
 SCF Done:  E(UB3LYP) =  -839.469554643     A.U. after   10 cycles
 SCF Done:  E(UB3LYP) =  -839.469562691     A.U. after   11 cycles
 SCF Done:  E(UB3LYP) =  -839.469574297     A.U. after    9 cycles
 SCF Done:  E(UB3LYP) =  -839.469574734     A.U. after    9 cycles
 Optimization completed.
    -- Stationary point found.
 Normal termination of Gaussian 16 at Sat Feb 10 22:13:59 2024.

 ----------------------------------------------------------------------
 #P Geom=AllCheck Guess=TCheck SCRF=Check GenChk UB3LYP/6-311++G(d,p) F
 req
 ----------------------------------------------------------------------

 Structure from the checkpoint file:  "189.chk"
 --------
 Oxidized
 --------
 Charge =  0 Multiplicity = 1

                          Input orientation:
 ---------------------------------------------------------------------
 Center     Atomic      Atomic             Coordinates (Angstroms)
 Number     Number       Type             X           Y           Z
 ---------------------------------------------------------------------
      1          8           0       -4.930082    0.966512    0.179635
      2          6           0       -3.703659    0.387104    0.115809
      3          6           0       -3.660144   -1.010690    0.020842
      4          6           0       -2.437682   -1.656845   -0.050064
      5          6           0       -1.237098   -0.934846   -0.028570
      6          6           0        0.055984   -1.656909   -0.109077
      7          8           0        0.097428   -2.882152   -0.193622
      8          6           0        1.297199   -0.845273   -0.085952
      9          6           0        2.543378   -1.480986   -0.163273
     10          6           0        3.719263   -0.750292   -0.145823
     11          6           0        3.668580    0.647187   -0.049285
     12          8           0        4.853089    1.310998   -0.038339
     13          6           0        2.437820    1.298486    0.030105
     14          6           0        1.256292    0.557880    0.011432
     15          6           0       -0.043225    1.284673    0.095398
     16          8           0       -0.084343    2.504481    0.183009
     17          6           0       -1.290740    0.467900    0.068467
     18          6           0       -2.519470    1.123454    0.140839
     19          1           0       -4.850840    1.927287    0.236556
     20          1           0       -4.588978   -1.567742    0.003270
     21          1           0       -2.395833   -2.736001   -0.124215
     22          1           0        2.574158   -2.560502   -0.238055
     23          1           0        4.683343   -1.240428   -0.206452
     24          1           0        4.709911    2.263783    0.026658
     25          1           0        2.382959    2.378312    0.105761
     26          1           0       -2.537309    2.204607    0.214949
 ---------------------------------------------------------------------

 SCF Done:  E(UB3LYP) =  -839.469574734     A.U. after    1 cycles

 Alpha  occ. eigenvalues --  -19.17760 -19.17755 -19.13559 -19.12489 -10.28754
 Alpha  occ. eigenvalues --  -10.27920 -10.26666 -10.26664 -10.21429 -10.21428
 Alpha  occ. eigenvalues --  -10.20435 -10.20433 -10.20163 -10.20162 -10.20016
 Alpha  occ. eigenvalues --  -10.20014 -10.19801 -10.19800  -1.09026  -1.09022
 Alpha  occ. eigenvalues --   -1.06848  -1.05686  -0.89544  -0.88281  -0.81238
 Alpha  occ. eigenvalues --   -0.78297  -0.78236  -0.76813  -0.69418  -0.68409
 Alpha  occ. eigenvalues --   -0.64695  -0.64462  -0.59269  -0.58496  -0.58436
 Alpha  occ. eigenvalues --   -0.54600  -0.52753  -0.51318  -0.49673  -0.47719
 Alpha  occ. eigenvalues --   -0.46228  -0.46059  -0.45857  -0.45619  -0.45391
 Alpha  occ. eigenvalues --   -0.43916  -0.43647  -0.42717  -0.41845  -0.41186
 Alpha  occ. eigenvalues --   -0.40196  -0.40162  -0.37472  -0.37091  -0.36630
 Alpha  occ. eigenvalues --   -0.34816  -0.28972  -0.28650  -0.28489  -0.27629
 Alpha  occ. eigenvalues --   -0.26263  -0.25110
 Alpha virt. eigenvalues --   -0.11866  -0.07245  -0.03530  -0.02283  -0.00941
 Alpha virt. eigenvalues --   -0.00343   0.00454   0.01353   0.01759   0.03102
 Alpha virt. eigenvalues --    0.03424   0.03547   0.03653   0.04253   0.05096

  Beta  occ. eigenvalues --  -19.17760 -19.17755 -19.13559 -19.12489 -10.28754
  Beta  occ. eigenvalues --  -10.27920 -10.26666 -10.26664 -10.21429 -10.21428
  Beta  occ. eigenvalues --  -10.20435 -10.20433 -10.20163 -10.20162 -10.20016
  Beta  occ. eigenvalues --  -10.20014 -10.19801 -10.19800  -1.09026  -1.09022
  Beta  occ. eigenvalues --   -1.06848  -1.05686  -0.89544  -0.88281  -0.81238
  Beta  occ. eigenvalues --   -0.78297  -0.78236  -0.76813  -0.69418  -0.68409
  Beta  occ. eigenvalues --   -0.64695  -0.64462  -0.59269  -0.58496  -0.58436
  Beta  occ. eigenvalues --   -0.54600  -0.52753  -0.51318  -0.49673  -0.47719
  Beta  occ. eigenvalues --   -0.46228  -0.46059  -0.45857  -0.45619  -0.45391
  Beta  occ. eigenvalues --   -0.43916  -0.43647  -0.42717  -0.41845  -0.41186
  Beta  occ. eigenvalues --   -0.40196  -0.40162  -0.37472  -0.37091  -0.36630
  Beta  occ. eigenvalues --   -0.34816  -0.28972  -0.28650  -0.28489  -0.27629
  Beta  occ. eigenvalues --   -0.26263  -0.25110
  Beta virt. eigenvalues --   -0.11866  -0.07245  -0.03530  -0.02283  -0.00941
  Beta virt. eigenvalues --   -0.00343   0.00454   0.01353   0.01759   0.03102
  Beta virt. eigenvalues --    0.03424   0.03547   0.03653   0.04253   0.05096

 Mulliken charges and spin densities:
               1          2
     1  O   -0.250245   0.000000
     2  C   -0.588659  -0.000000
     3  C   -0.161535   0.000000
     4  C    0.202854  -0.000000
     5  C    0.101178  -0.000000
     6  C   -0.595338  -0.000000
     7  O   -0.302251   0.000000
     8  C    0.101459   0.000000
     9  C    0.203058   0.000000
    10  C   -0.161985   0.000000
    11  C   -0.589467  -0.000000
    12  O   -0.250390   0.000000
    13  C    0.278626  -0.000000
    14  C    0.452064   0.000000
    15  C   -0.711194   0.000000
    16  O   -0.271046  -0.000000
    17  C    0.452257   0.000000
    18  C    0.278588  -0.000000
    19  H    0.313071  -0.000000
    20  H    0.230488  -0.000000
    21  H    0.192710  -0.000000
    22  H    0.192477   0.000000
    23  H    0.230427  -0.000000
    24  H    0.313216  -0.000000
    25  H    0.170174   0.000000
    26  H    0.169465   0.000000
 Sum of Mulliken charges =  -0.00000  -0.00000

 Dipole moment (field-independent basis, Debye):
    X=             -0.1207    Y=              3.6439    Z=              0.2097  Tot=              3.6519
 Quadrupole moment (field-independent basis, Debye-Ang):
   XX=            -86.7438   YY=           -104.8980   ZZ=           -105.1424
   XY=              0.6623   XZ=             -0.3854   YZ=             -0.0858

  Exact polarizability: 380.118   3.296 295.284  -6.411  12.293 114.141
 Approx polarizability: 412.377   1.256 387.911  -6.827  17.248 135.436

                      1                      2                      3
                      A                      A                      A
 Frequencies --     35.0062                87.9415               103.5318
 Red. masses --     10.1954                 4.4943                 6.9729
 Frc consts  --      0.0074                 0.0205                 0.0440
 IR Inten    --      4.9605                 0.0006                 0.9814

                      4                      5                      6
                      A                      A                      A
 Frequencies --    138.5021               168.7944               172.1790
 Red. masses --      7.8664                 6.6889                 6.6135
 Frc consts  --      0.0889                 0.1123                 0.1155
 IR Inten    --      9.0352                 0.1441                 0.0111

                      7                      8                      9
                      A                      A                      A
 Frequencies --    249.8672               266.1746               312.6616
 Red. masses --      7.9408                 6.4063                 7.6337
 Frc consts  --      0.2921                 0.2674                 0.4397
 IR Inten    --      3.5288                 0.1046                 0.0224

                     10                     11                     12
                      A                      A                      A
 Frequencies --    314.9935               364.4667               393.8509
 Red. masses --      5.6758                 9.6641                 1.4214
 Frc consts  --      0.3318                 0.7564                 0.1299
 IR Inten    --      0.0057                18.7873                 3.7506

                     13                     14                     15
                      A                      A                      A
 Frequencies --    394.6090               398.5715               417.3476
 Red. masses --      1.2859                 2.4723                 3.9911
 Frc consts  --      0.1180                 0.2314                 0.4096
 IR Inten    --    282.2649                80.4757                26.3848

                     16                     17                     18
                      A                      A                      A
 Frequencies --    420.5401               443.7647               461.8291
 Red. masses --      3.6206                 3.0998                 4.8791
 Frc consts  --      0.3773                 0.3597                 0.6131
 IR Inten    --      0.6681                 0.4053                50.9924

                     19                     20                     21
                      A                      A                      A
 Frequencies --    471.6974               516.5909               583.0370
 Red. masses --     13.0937                 5.1826                 4.4058
 Frc consts  --      1.7165                 0.8149                 0.8824
 IR Inten    --      0.5105                11.6733                 0.0095

                     22                     23                     24
                      A                      A                      A
 Frequencies --    602.1794               605.0922               666.1800
 Red. masses --      6.1349                 7.3603                 7.5943
 Frc consts  --      1.3107                 1.5878                 1.9857
 IR Inten    --      4.1416                66.8826                 0.7838

                     25                     26                     27
                      A                      A                      A
 Frequencies --    667.3772               709.5296               714.7154
 Red. masses --      3.3025                 4.2956                 7.0662
 Frc consts  --      0.8666                 1.2741                 2.1267
 IR Inten    --     26.8034                 0.0151                 0.4548

                     28                     29                     30
                      A                      A                      A
 Frequencies --    736.4803               762.8013               786.0314
 Red. masses --      6.5157                 6.3566                 4.9072
 Frc consts  --      2.0822                 2.1792                 1.7863
 IR Inten    --      4.8015                66.9496                 1.2690

                     31                     32                     33
                      A                      A                      A
 Frequencies --    811.2678               853.8828               867.4310
 Red. masses --      7.8079                 1.4356                 1.6532
 Frc consts  --      3.0277                 0.6167                 0.7329
 IR Inten    --    116.3705                 0.0099                48.4677

                     34                     35                     36
                      A                      A                      A
 Frequencies --    891.9581               903.4194               938.6603
 Red. masses --      1.4288                 1.5415                 4.5433
 Frc consts  --      0.6697                 0.7413                 2.3585
 IR Inten    --      2.1902                45.1864                15.9432

                     37                     38                     39
                      A                      A                      A
 Frequencies --    939.5019               993.8446               997.3755
 Red. masses --      7.0179                 1.3156                 1.3406
 Frc consts  --      3.6497                 0.7656                 0.7857
 IR Inten    --    112.7837                 0.0155                 2.1430

                     40                     41                     42
                      A                      A                      A
 Frequencies --   1024.5621              1096.0752              1115.6328
 Red. masses --      2.2753                 2.6770                 1.6520
 Frc consts  --      1.4072                 1.8949                 1.2115
 IR Inten    --     31.1917                43.0559                34.1140

                     43                     44                     45
                      A                      A                      A
 Frequencies --   1155.2291              1185.9955              1187.8381
 Red. masses --      1.4074                 1.6304                 1.5737
 Frc consts  --      1.1066                 1.3512                 1.3083
 IR Inten    --     60.9666               196.6742               600.5788

                     46                     47                     48
                      A                      A                      A
 Frequencies --   1198.1260              1223.1203              1237.6597
 Red. masses --      1.8297                 2.5044                 1.7958
 Frc consts  --      1.5475                 2.2075                 1.6207
 IR Inten    --     42.5756                20.0563                62.7369

                     49                     50                     51
                      A                      A                      A
 Frequencies --   1261.6060              1305.2430              1316.6371
 Red. masses --      2.0426                 5.0476                 2.7042
 Frc consts  --      1.9155                 5.0666                 2.7620
 IR Inten    --    159.3947              1889.0764                13.3623

                     52                     53                     54
                      A                      A                      A
 Frequencies --   1335.3559              1377.3666              1387.5514
 Red. masses --      2.5001                 5.2101                 5.4833
 Frc consts  --      2.6266                 5.8237                 6.2200
 IR Inten    --    216.8865                29.9395                34.3368

                     55                     56                     57
                      A                      A                      A
 Frequencies --   1462.3123              1475.9866              1515.0249
 Red. masses --      3.3096                 3.8322                 3.3648
 Frc consts  --      4.1697                 4.9189                 4.5504
 IR Inten    --      6.7014               128.5657                20.1518

                     58                     59                     60
                      A                      A                      A
 Frequencies --   1523.0115              1603.0896              1612.4739
 Red. masses --      3.1209                 6.8603                 6.2799
 Frc consts  --      4.2652                10.3874                 9.6202
 IR Inten    --     31.1264               720.4170                16.6387

                     61                     62                     63
                      A                      A                      A
 Frequencies --   1620.9532              1626.0920              1681.4261
 Red. masses --      6.0722                 7.0369                11.4214
 Frc consts  --      9.4001                10.9628                19.0251
 IR Inten    --    408.1819               298.2432               139.1809

                     64                     65                     66
                      A                      A                      A
 Frequencies --   1701.4291              3184.4518              3187.4450
 Red. masses --     11.8103                 1.0913                 1.0909
 Frc consts  --     20.1436                 6.5202                 6.5301
 IR Inten    --    440.0460                15.3949                10.8758

                     67                     68                     69
                      A                      A                      A
 Frequencies --   3191.7235              3192.0887              3206.3536
 Red. masses --      1.0892                 1.0892                 1.0942
 Frc consts  --      6.5376                 6.5387                 6.6279
 IR Inten    --      3.1246                 2.2563                14.8367

                     70                     71                     72
                      A                      A                      A
 Frequencies --   3206.7880              3798.3251              3802.8218
 Red. masses --      1.0943                 1.0666                 1.0663
 Frc consts  --      6.6301                 9.0665                 9.0857
 IR Inten    --      1.5175               190.3905               200.8011

 - Thermochemistry -
 -------------------
 Temperature   298.150 Kelvin.  Pressure   1.00000 Atm.
 Atom     1 has atomic number  8 and mass  15.99491

 Molecular mass:   240.04226 amu.
 Principal axes and moments of inertia in atomic units:
                           1         2         3
     Eigenvalues --  1830.448406818.636868649.04069
           X            0.99913  -0.03362   0.02473
           Y            0.03523   0.99709  -0.06761
           Z           -0.02239   0.06842   0.99741
 This molecule is an asymmetric top.
 Rotational symmetry number  1.
 Warning -- assumption of classical behavior for rotation
           may cause significant error
 Rotational temperatures (Kelvin)      0.04732     0.01270     0.01001
 Rotational constants (GHZ):           0.98596     0.26468     0.20866
 Zero-point vibrational energy     491446.7 (Joules/Mol)
                                  117.45859 (Kcal/Mol)
 Warning -- explicit consideration of  23 degrees of freedom as
           vibrations may cause significant error
 Vibrational temperatures:     50.37   126.53   148.96   199.27   242.86
          (Kelvin)            247.73   359.50   382.97   449.85   453.21
                              524.39   566.66   567.75   573.46   600.47
                              605.06   638.48   664.47   678.67   743.26
                              838.86   866.40   870.59   958.48   960.21
                             1020.85  1028.32  1059.63  1097.50  1130.92
                             1167.23  1228.55  1248.04  1283.33  1299.82
                             1350.52  1351.73  1429.92  1435.00  1474.12
                             1577.01  1605.15  1662.12  1706.38  1709.03
                             1723.84  1759.80  1780.72  1815.17  1877.95
                             1894.35  1921.28  1981.72  1996.38  2103.94
                             2123.62  2179.78  2191.27  2306.49  2319.99
                             2332.19  2339.58  2419.20  2447.98  4581.72
                             4586.02  4592.18  4592.70  4613.23  4613.85
                             5464.94  5471.41

 Zero-point correction=                           0.187182 (Hartree/Particle)
 Thermal correction to Energy=                    0.200840
 Thermal correction to Enthalpy=                  0.201784
 Thermal correction to Gibbs Free Energy=         0.146779
 Sum of electronic and zero-point Energies=           -839.282393
 Sum of electronic and thermal Energies=              -839.268735
 Sum of electronic and thermal Enthalpies=            -839.267791
 Sum of electronic and thermal Free Energies=         -839.322796

                     E (Thermal)             CV                S
                      KCal/Mol        Cal/Mol-Kelvin    Cal/Mol-Kelvin
 Total                  126.029             55.003            115.767
 Electronic               0.000              0.000              0.000
 Translational            0.889              2.981             42.328
 Rotational               0.889              2.981             33.045
 Vibrational            124.251             49.042             40.393
 Vibration     1          0.594              1.982              5.523
 Vibration     2          0.601              1.958              3.705
 Vibration     3          0.605              1.946              3.387
 Vibration     4          0.614              1.915              2.824
 Vibration     5          0.625              1.881              2.449
 Vibration     6          0.626              1.877              2.412
 Vibration     7          0.663              1.763              1.732
 Vibration     8          0.672              1.735              1.621
 Vibration     9          0.701              1.650              1.348
 Vibration    10          0.702              1.645              1.336
 Vibration    11          0.738              1.545              1.103
 Vibration    12          0.761              1.483              0.986
 Vibration    13          0.762              1.482              0.983
 Vibration    14          0.765              1.473              0.968
 Vibration    15          0.780              1.433              0.901
 Vibration    16          0.783              1.426              0.890
 Vibration    17          0.803              1.375              0.815
 Vibration    18          0.820              1.335              0.761
 Vibration    19          0.829              1.313              0.733
 Vibration    20          0.872              1.213              0.618
 Vibration    21          0.940              1.068              0.480
 Vibration    22          0.960              1.027              0.446
 Vibration    23          0.964              1.021              0.441

                           ! Non-Optimized Parameters !
 Normal termination of Gaussian 16 at Sat Feb 10 22:45:59 2024.
