 Gaussian 16, Revision A.03,
 Gaussian 16:  ES64L-G16RevA.03 25-Dec-2016

 ----------------------------------------------------------------------
 #P UB3LYP/6-311++G(d,p) nosym opt freq SCRF=(PCM,Solvent=n,n-DiMethylF
 ormamide)
 ----------------------------------------------------------------------

 --------
 Oxidized
 --------
 Symbolic Z-matrix:
 Charge =  0 Multiplicity = 1

 SCF Done:  E(UB3LYP) =  -878.809537634     A.U. after   16 cycles
 SCF Done:  E(UB3LYP) =  -878.809629045     A.U. after   11 cycles
 SCF Done:  E(UB3LYP) =  -878.809642632     A.U. after   11 cycles
 SCF Done:  E(UB3LYP) =  -878.809647049     A.U. after   10 cycles
 SCF Done:  E(UB3LYP) =  -878.809647186     A.U. after    9 cycles
 Optimization completed.
    -- Stationary point found.
 Normal termination of Gaussian 16 at Sat Feb 10 22:18:30 2024.

 ----------------------------------------------------------------------
 #P Geom=AllCheck Guess=TCheck SCRF=Check GenChk UB3LYP/6-311++G(d,p) F
 req
 ----------------------------------------------------------------------

 Structure from the checkpoint file:  "196.chk"
 --------
 Oxidized
 --------
 Charge =  0 Multiplicity = 1

                          Input orientation:
 ---------------------------------------------------------------------
 Center     Atomic      Atomic             Coordinates (Angstroms)
 Number     Number       Type             X           Y           Z
 ---------------------------------------------------------------------
      1          6           0       -4.677543    0.292975   -0.093167
      2          6           0       -3.227268   -0.105399   -0.026520
      3          6           0       -2.850078   -1.441143   -0.013495
      4          6           0       -1.499799   -1.816023    0.046960
      5          8           0       -1.220474   -3.129933    0.055847
      6          6           0       -0.491731   -0.824286    0.096411
      7          6           0        0.913286   -1.197868    0.159886
      8          8           0        1.249142   -2.413735    0.170295
      9          6           0        1.935553   -0.153986    0.210815
     10          6           0        3.307826   -0.498289    0.271466
     11          8           0        3.734990   -1.771932    0.286443
     12          6           0        4.278842    0.513839    0.318221
     13          6           0        3.899156    1.844806    0.305662
     14          6           0        2.547609    2.202778    0.246686
     15          6           0        1.572678    1.215795    0.199608
     16          6           0        0.138328    1.619926    0.135781
     17          8           0       -0.185146    2.800785    0.126596
     18          6           0       -0.886301    0.537672    0.083593
     19          6           0       -2.225115    0.883346    0.023238
     20          1           0       -4.870647    0.894717   -0.986073
     21          1           0       -5.332156   -0.578682   -0.117509
     22          1           0       -4.949134    0.905292    0.771548
     23          1           0       -3.594214   -2.228359   -0.049595
     24          1           0       -0.239276   -3.220320    0.100690
     25          1           0        2.935661   -2.348985    0.248342
     26          1           0        5.322048    0.225781    0.363692
     27          1           0        4.658872    2.616633    0.341744
     28          1           0        2.247852    3.242048    0.236560
     29          1           0       -2.492962    1.932544    0.014768
 ---------------------------------------------------------------------

 SCF Done:  E(UB3LYP) =  -878.809647186     A.U. after    1 cycles

 Alpha  occ. eigenvalues --  -19.16691 -19.16657 -19.14997 -19.13242 -10.29693
 Alpha  occ. eigenvalues --  -10.28625 -10.27162 -10.27115 -10.21533 -10.21456
 Alpha  occ. eigenvalues --  -10.21371 -10.21358 -10.21028 -10.20508 -10.19848
 Alpha  occ. eigenvalues --  -10.19679 -10.19428 -10.19408 -10.17667  -1.10004
 Alpha  occ. eigenvalues --   -1.08699  -1.06558  -1.06107  -0.89816  -0.88319
 Alpha  occ. eigenvalues --   -0.82710  -0.78877  -0.77939  -0.77276  -0.72782
 Alpha  occ. eigenvalues --   -0.69474  -0.67276  -0.64875  -0.62465  -0.61900
 Alpha  occ. eigenvalues --   -0.56860  -0.55962  -0.54619  -0.53478  -0.50864
 Alpha  occ. eigenvalues --   -0.50207  -0.49824  -0.47320  -0.47202  -0.46606
 Alpha  occ. eigenvalues --   -0.45856  -0.44784  -0.44284  -0.43054  -0.42613
 Alpha  occ. eigenvalues --   -0.42570  -0.41636  -0.40645  -0.39814  -0.39535
 Alpha  occ. eigenvalues --   -0.38616  -0.37976  -0.37592  -0.36227  -0.35009
 Alpha  occ. eigenvalues --   -0.30358  -0.29553  -0.28123  -0.27721  -0.25850
 Alpha  occ. eigenvalues --   -0.25002
 Alpha virt. eigenvalues --   -0.12601  -0.07171  -0.04067  -0.01839  -0.00763
 Alpha virt. eigenvalues --    0.00100   0.00579   0.01557   0.02027   0.02072
 Alpha virt. eigenvalues --    0.03425   0.03498   0.03687   0.03816   0.04143

  Beta  occ. eigenvalues --  -19.16691 -19.16657 -19.14997 -19.13242 -10.29693
  Beta  occ. eigenvalues --  -10.28625 -10.27162 -10.27115 -10.21533 -10.21456
  Beta  occ. eigenvalues --  -10.21371 -10.21358 -10.21028 -10.20508 -10.19848
  Beta  occ. eigenvalues --  -10.19679 -10.19428 -10.19408 -10.17667  -1.10004
  Beta  occ. eigenvalues --   -1.08699  -1.06558  -1.06107  -0.89816  -0.88319
  Beta  occ. eigenvalues --   -0.82710  -0.78877  -0.77939  -0.77276  -0.72782
  Beta  occ. eigenvalues --   -0.69474  -0.67276  -0.64875  -0.62465  -0.61900
  Beta  occ. eigenvalues --   -0.56860  -0.55962  -0.54619  -0.53478  -0.50864
  Beta  occ. eigenvalues --   -0.50207  -0.49824  -0.47320  -0.47202  -0.46606
  Beta  occ. eigenvalues --   -0.45856  -0.44784  -0.44284  -0.43054  -0.42613
  Beta  occ. eigenvalues --   -0.42570  -0.41636  -0.40645  -0.39814  -0.39535
  Beta  occ. eigenvalues --   -0.38616  -0.37976  -0.37592  -0.36227  -0.35009
  Beta  occ. eigenvalues --   -0.30358  -0.29553  -0.28123  -0.27721  -0.25850
  Beta  occ. eigenvalues --   -0.25002
  Beta virt. eigenvalues --   -0.12601  -0.07171  -0.04067  -0.01839  -0.00763
  Beta virt. eigenvalues --    0.00100   0.00579   0.01557   0.02027   0.02072
  Beta virt. eigenvalues --    0.03425   0.03498   0.03687   0.03816   0.04143

 Mulliken charges and spin densities:
               1          2
     1  C   -0.302381  -0.000000
     2  C    0.553474  -0.000000
     3  C   -0.959235   0.000000
     4  C   -0.073419   0.000000
     5  O   -0.319576   0.000000
     6  C    0.518768  -0.000000
     7  C   -0.526545  -0.000000
     8  O   -0.388410   0.000000
     9  C    0.527673  -0.000000
    10  C   -0.043445   0.000000
    11  O   -0.321395   0.000000
    12  C   -0.190415  -0.000000
    13  C   -0.395309  -0.000000
    14  C   -0.025608   0.000000
    15  C    0.113401  -0.000000
    16  C   -0.573057  -0.000000
    17  O   -0.269434   0.000000
    18  C    0.211749   0.000000
    19  C    0.195059   0.000000
    20  H    0.184064   0.000000
    21  H    0.178151   0.000000
    22  H    0.182793   0.000000
    23  H    0.184759   0.000000
    24  H    0.376194   0.000000
    25  H    0.377584   0.000000
    26  H    0.216393   0.000000
    27  H    0.221035   0.000000
    28  H    0.177991  -0.000000
    29  H    0.169143  -0.000000
 Sum of Mulliken charges =  -0.00000  -0.00000

 Dipole moment (field-independent basis, Debye):
    X=             -1.2983    Y=              1.0626    Z=             -0.0623  Tot=              1.6789
 Quadrupole moment (field-independent basis, Debye-Ang):
   XX=            -86.9408   YY=           -122.3757   ZZ=           -111.1334
   XY=              8.8492   XZ=              0.9881   YZ=              0.4622

  Exact polarizability: 428.591  17.519 318.976  13.918   1.456 126.403
 Approx polarizability: 459.966   2.650 407.300  14.194   1.063 149.771

                      1                      2                      3
                      A                      A                      A
 Frequencies --     35.6118                54.6122                72.1156
 Red. masses --      6.0630                 1.0942                 4.8315
 Frc consts  --      0.0045                 0.0019                 0.0148
 IR Inten    --      5.8026                 0.1313                 0.5155

                      4                      5                      6
                      A                      A                      A
 Frequencies --    112.9767               140.8484               186.4666
 Red. masses --     10.6076                 5.4038                 4.6779
 Frc consts  --      0.0798                 0.0632                 0.0958
 IR Inten    --      2.1751                 0.2652                 0.1098

                      7                      8                      9
                      A                      A                      A
 Frequencies --    189.2022               226.4230               239.8377
 Red. masses --      5.0462                 4.4863                 5.0297
 Frc consts  --      0.1064                 0.1355                 0.1705
 IR Inten    --      0.1517                 0.3782                 0.1123

                     10                     11                     12
                      A                      A                      A
 Frequencies --    265.4210               291.6888               327.8145
 Red. masses --      4.6181                 5.9112                 6.1515
 Frc consts  --      0.1917                 0.2963                 0.3895
 IR Inten    --      3.9955                 0.9476                 2.4943

                     13                     14                     15
                      A                      A                      A
 Frequencies --    349.9969               376.3060               436.3748
 Red. masses --      5.3565                 7.7463                 7.3183
 Frc consts  --      0.3866                 0.6463                 0.8211
 IR Inten    --      5.4375                15.0199                39.2557

                     16                     17                     18
                      A                      A                      A
 Frequencies --    441.8515               455.0019               483.0734
 Red. masses --      5.1497                 9.3085                 9.6968
 Frc consts  --      0.5924                 1.1354                 1.3332
 IR Inten    --      2.1807                25.3290                 5.3265

                     19                     20                     21
                      A                      A                      A
 Frequencies --    496.1761               501.0719               552.8444
 Red. masses --      5.2024                 4.4538                 8.1279
 Frc consts  --      0.7546                 0.6588                 1.4636
 IR Inten    --      0.1469                10.2523                 7.3703

                     22                     23                     24
                      A                      A                      A
 Frequencies --    557.7145               571.8097               589.6215
 Red. masses --      4.5709                 7.2856                 3.9939
 Frc consts  --      0.8377                 1.4035                 0.8181
 IR Inten    --      0.0441                25.2896                 2.8141

                     25                     26                     27
                      A                      A                      A
 Frequencies --    614.5016               667.2456               678.3876
 Red. masses --      5.0199                 3.9598                 6.0039
 Frc consts  --      1.1168                 1.0387                 1.6280
 IR Inten    --     23.0673                 9.0855                21.2476

                     28                     29                     30
                      A                      A                      A
 Frequencies --    710.7696               735.5757               745.7342
 Red. masses --      3.5997                 1.0852                 6.5908
 Frc consts  --      1.0715                 0.3459                 2.1595
 IR Inten    --      2.1940               310.7848                 0.7921

                     31                     32                     33
                      A                      A                      A
 Frequencies --    748.5585               762.0786               770.1834
 Red. masses --      1.1164                 3.4320                 8.3028
 Frc consts  --      0.3686                 1.1743                 2.9018
 IR Inten    --      9.1089                57.9397                26.5532

                     34                     35                     36
                      A                      A                      A
 Frequencies --    822.0692               825.3907               879.8734
 Red. masses --      1.6547                 8.0528                 1.3898
 Frc consts  --      0.6589                 3.2323                 0.6339
 IR Inten    --     19.4268                66.2630                32.2383

                     37                     38                     39
                      A                      A                      A
 Frequencies --    916.3986               927.5680               936.6629
 Red. masses --      6.0023                 1.3808                 1.4588
 Frc consts  --      2.9699                 0.6999                 0.7541
 IR Inten    --     74.8811                 0.3689                 0.1726

                     40                     41                     42
                      A                      A                      A
 Frequencies --    973.3559              1009.0133              1009.5385
 Red. masses --      6.4887                 1.9428                 1.3223
 Frc consts  --      3.6220                 1.1654                 0.7940
 IR Inten    --      2.9572                 6.1884                 0.4578

                     43                     44                     45
                      A                      A                      A
 Frequencies --   1039.0740              1057.6127              1071.7093
 Red. masses --      2.9256                 1.5617                 2.5362
 Frc consts  --      1.8611                 1.0292                 1.7163
 IR Inten    --     89.0570                 9.6768                28.2859

                     46                     47                     48
                      A                      A                      A
 Frequencies --   1103.4053              1153.1289              1181.8526
 Red. masses --      2.4832                 2.6971                 1.2288
 Frc consts  --      1.7813                 2.1130                 1.0112
 IR Inten    --    140.5891                 7.8949                91.3645

                     49                     50                     51
                      A                      A                      A
 Frequencies --   1193.4992              1228.8770              1240.5765
 Red. masses --      1.8012                 1.9538                 2.1049
 Frc consts  --      1.5117                 1.7384                 1.9087
 IR Inten    --     83.8904               543.2648               165.3247

                     52                     53                     54
                      A                      A                      A
 Frequencies --   1283.2278              1307.2574              1333.4078
 Red. masses --      2.6076                 4.7905                 2.8110
 Frc consts  --      2.5299                 4.8234                 2.9447
 IR Inten    --    761.2995               530.2803               372.4808

                     55                     56                     57
                      A                      A                      A
 Frequencies --   1338.4836              1389.3272              1401.5097
 Red. masses --      3.0523                 4.2416                 3.9210
 Frc consts  --      3.2218                 4.8238                 4.5377
 IR Inten    --    186.3925                91.9675               319.8798

                     58                     59                     60
                      A                      A                      A
 Frequencies --   1406.7158              1409.3015              1436.9827
 Red. masses --      2.7474                 1.5376                 3.2495
 Frc consts  --      3.2032                 1.7993                 3.9534
 IR Inten    --    223.4466               150.7983                 9.1805

                     61                     62                     63
                      A                      A                      A
 Frequencies --   1471.5891              1472.7474              1482.9212
 Red. masses --      2.4022                 1.0465                 1.2913
 Frc consts  --      3.0651                 1.3373                 1.6731
 IR Inten    --    108.1192                13.9118                66.0986

                     64                     65                     66
                      A                      A                      A
 Frequencies --   1498.5402              1511.5901              1585.5716
 Red. masses --      2.8105                 3.1407                 3.2037
 Frc consts  --      3.7185                 4.2281                 4.7454
 IR Inten    --    376.6590               113.0494                76.3573

                     67                     68                     69
                      A                      A                      A
 Frequencies --   1593.9465              1618.6906              1635.1907
 Red. masses --      4.6303                 5.7846                 5.9131
 Frc consts  --      6.9312                 8.9301                 9.3154
 IR Inten    --     85.7502                49.1463               109.8745

                     70                     71                     72
                      A                      A                      A
 Frequencies --   1642.4501              1702.2169              3031.5965
 Red. masses --      5.7635                10.2357                 1.0373
 Frc consts  --      9.1605                17.4742                 5.6171
 IR Inten    --   1081.7494               145.9157                19.6366

                     73                     74                     75
                      A                      A                      A
 Frequencies --   3082.3758              3118.8067              3184.2830
 Red. masses --      1.1001                 1.1015                 1.0882
 Frc consts  --      6.1580                 6.3126                 6.5012
 IR Inten    --     14.2651                28.8693                 7.5360

                     76                     77                     78
                      A                      A                      A
 Frequencies --   3186.4235              3196.6772              3199.3728
 Red. masses --      1.0914                 1.0907                 1.0940
 Frc consts  --      6.5287                 6.5665                 6.5976
 IR Inten    --     10.0536                 3.3771                 9.9288

                     79                     80                     81
                      A                      A                      A
 Frequencies --   3212.4204              3341.3070              3371.2165
 Red. masses --      1.0935                 1.0669                 1.0685
 Frc consts  --      6.6489                 7.0178                 7.1548
 IR Inten    --      6.1130               999.3807                79.1075

 - Thermochemistry -
 -------------------
 Temperature   298.150 Kelvin.  Pressure   1.00000 Atm.
 Atom     1 has atomic number  6 and mass  12.00000

 Molecular mass:   254.05791 amu.
 Principal axes and moments of inertia in atomic units:
                           1         2         3
     Eigenvalues --  2523.159776105.503288617.51979
           X            0.98945  -0.13750  -0.04571
           Y            0.13747   0.99050  -0.00370
           Z            0.04579  -0.00262   0.99895
 This molecule is an asymmetric top.
 Rotational symmetry number  1.
 Warning -- assumption of classical behavior for rotation
           may cause significant error
 Rotational temperatures (Kelvin)      0.03433     0.01419     0.01005
 Rotational constants (GHZ):           0.71527     0.29559     0.20943
 Zero-point vibrational energy     564659.2 (Joules/Mol)
                                  134.95679 (Kcal/Mol)
 Warning -- explicit consideration of  25 degrees of freedom as
           vibrations may cause significant error
 Vibrational temperatures:     51.24    78.57   103.76   162.55   202.65
          (Kelvin)            268.28   272.22   325.77   345.07   381.88
                              419.68   471.65   503.57   541.42   627.85
                              635.73   654.65   695.03   713.89   720.93
                              795.42   802.43   822.71   848.33   884.13
                              960.02   976.05  1022.64  1058.33  1072.95
                             1077.01  1096.46  1108.12  1182.77  1187.55
                             1265.94  1318.49  1334.56  1347.65  1400.44
                             1451.75  1452.50  1495.00  1521.67  1541.95
                             1587.55  1659.10  1700.42  1717.18  1768.08
                             1784.91  1846.28  1880.85  1918.48  1925.78
                             1998.93  2016.46  2023.95  2027.67  2067.50
                             2117.29  2118.96  2133.59  2156.07  2174.84
                             2281.28  2293.33  2328.93  2352.67  2363.12
                             2449.11  4361.79  4434.85  4487.27  4581.47
                             4584.55  4599.31  4603.18  4621.96  4807.40
                             4850.43

 Zero-point correction=                           0.215067 (Hartree/Particle)
 Thermal correction to Energy=                    0.229871
 Thermal correction to Enthalpy=                  0.230815
 Thermal correction to Gibbs Free Energy=         0.172896
 Sum of electronic and zero-point Energies=           -878.594580
 Sum of electronic and thermal Energies=              -878.579776
 Sum of electronic and thermal Enthalpies=            -878.578832
 Sum of electronic and thermal Free Energies=         -878.636751

                     E (Thermal)             CV                S
                      KCal/Mol        Cal/Mol-Kelvin    Cal/Mol-Kelvin
 Total                  144.246             59.037            121.901
 Electronic               0.000              0.000              0.000
 Translational            0.889              2.981             42.497
 Rotational               0.889              2.981             33.251
 Vibrational            142.469             53.076             46.153
 Vibration     1          0.594              1.982              5.489
 Vibration     2          0.596              1.976              4.643
 Vibration     3          0.598              1.967              4.095
 Vibration     4          0.607              1.939              3.217
 Vibration     5          0.615              1.912              2.792
 Vibration     6          0.632              1.858              2.263
 Vibration     7          0.633              1.855              2.236
 Vibration     8          0.650              1.801              1.907
 Vibration     9          0.657              1.779              1.804
 Vibration    10          0.671              1.736              1.626
 Vibration    11          0.687              1.689              1.464
 Vibration    12          0.711              1.620              1.271
 Vibration    13          0.727              1.575              1.166
 Vibration    14          0.747              1.521              1.054
 Vibration    15          0.797              1.391              0.838
 Vibration    16          0.802              1.379              0.821
 Vibration    17          0.813              1.350              0.781
 Vibration    18          0.839              1.288              0.702
 Vibration    19          0.852              1.258              0.668
 Vibration    20          0.856              1.248              0.655
 Vibration    21          0.908              1.133              0.538
 Vibration    22          0.913              1.123              0.528
 Vibration    23          0.928              1.092              0.501
 Vibration    24          0.947              1.054              0.468
 Vibration    25          0.974              1.001              0.425

                           ! Non-Optimized Parameters !
 Normal termination of Gaussian 16 at Sat Feb 10 22:59:05 2024.
