 Q-Chem 5.4, Q-Chem, Inc., Pleasanton, CA (2021)
 Q-Chem 5.4.0 for Intel X86 EM64T Linux

User input:
--------------------------------------------------------------
$molecule
0 1
C                 -1.7044140000      3.0981920000      0.2159450000
C                 -2.8895730000      2.3856550000      0.0697950000
C                 -2.8551540000      1.0050700000     -0.1410130000
C                 -0.4756660000      2.4337530000      0.1405120000
C                 -0.4433050000      1.0482840000     -0.0721260000
C                 -1.6355590000      0.3376910000     -0.2087960000
C                  0.7786520000      3.2144680000      0.3308570000
C                  2.0964220000      2.5017520000      0.0896070000
C                  2.0781780000      1.1415990000     -0.0786610000
C                  0.8697430000      0.3382220000     -0.1559740000
O                  0.7394430000      4.3714200000      0.7120970000
O                  0.9184340000     -0.8769540000     -0.3256920000
N                  3.2580160000      3.2212850000      0.1937030000
C                  3.4028470000      4.5925600000     -0.3072960000
C                  4.5193360000      2.4980240000      0.2676650000
H                 -1.7104410000      4.1667450000      0.3913500000
H                 -3.8407470000      2.9028550000      0.1237750000
H                 -3.7808650000      0.4513500000     -0.2507990000
H                 -1.5825260000     -0.7324840000     -0.3670650000
H                  2.9916220000      0.5769360000     -0.2062250000
H                  2.4400170000      5.0783830000     -0.3977200000
H                  3.9045580000      4.5812100000     -1.2841860000
H                  4.0141790000      5.1713580000      0.3895350000
H                  4.4569860000      1.7010220000      1.0103580000
H                  5.2997200000      3.1959250000      0.5732050000
H                  4.8089960000      2.0574710000     -0.6972250000
$end
$rem
MAX_SCF_CYCLES=200
BASIS  =  6-311++G(d,p)
GUI  =  2
JOB_TYPE  =  SP
METHOD  =  B3LYP
SOLVENT_METHOD = COSMO
$end
$solvent
dielectric 37.219
opticaldielectric 1.43
$end

--------------------------------------------------------------

             Standard Nuclear Orientation (Angstroms)
    I     Atom           X                Y                Z
 ----------------------------------------------------------------
    1      C       1.9518358018    -1.7237601171     0.0319880254
    2      C       3.3104360257    -1.4394845940    -0.0520566814
    3      C       3.7461181482    -0.1134008506    -0.1096988223
    4      C       1.0193240929    -0.6810833534     0.0474168619
    5      C       1.4586257664     0.6490763656    -0.0115379071
    6      C       2.8230329903     0.9281248014    -0.0864752064
    7      C      -0.4283167175    -1.0106882443     0.1688972115
    8      C      -1.4245762259     0.1249862963     0.0260904823
    9      C      -0.9471516082     1.4096621173     0.0077352075
   10      C       0.4622266697     1.7636732820     0.0017336930
   11      O      -0.7884676578    -2.1475555581     0.4203792676
   12      O       0.8280132075     2.9353478264    -0.0330038229
   13      N      -2.7623433384    -0.1692084946     0.0672355183
   14      C      -3.3469971452    -1.3494419811    -0.5789842474
   15      C      -3.7093051149     0.9233060494     0.2380581130
   16      H       1.5949243162    -2.7445271177     0.0890640663
   17      H       4.0314384258    -2.2488177928    -0.0686991271
   18      H       4.8062487729     0.1055202653    -0.1713126463
   19      H       3.1358179411     1.9643512932    -0.1256713574
   20      H      -1.6149710751     2.2586781260    -0.0440894523
   21      H      -2.6011005440    -2.1177302599    -0.7358710762
   22      H      -3.7927397684    -1.0646965673    -1.5414760060
   23      H      -4.1332572445    -1.7608874432     0.0588363148
   24      H      -3.4006559700     1.5678192321     1.0626980741
   25      H      -4.6855382722     0.4995021852     0.4763411211
   26      H      -3.8116437100     1.5370907660    -0.6684724751
 ----------------------------------------------------------------

    9    -669.2703265207      8.63e-06  Convergence criterion met
 Total energy in the final basis set =     -669.2703265207
    5    -669.2869564943      5.54e-06  Convergence criterion met
 Total energy in the final basis set =     -669.2869564943

                    Orbital Energies (a.u.)
 --------------------------------------------------------------

 Alpha MOs
 -- Occupied --
-19.1400 -19.1164 -14.3627 -10.2924 -10.2689 -10.2492 -10.2051 -10.2025
-10.2019 -10.1988 -10.1951 -10.1944 -10.1925 -10.1920 -10.1808  -1.0768
 -1.0499  -0.9702  -0.8862  -0.8247  -0.7747  -0.7709  -0.7308  -0.7084
 -0.6718  -0.6409  -0.6108  -0.5848  -0.5445  -0.5334  -0.5144  -0.4929
 -0.4820  -0.4702  -0.4653  -0.4478  -0.4477  -0.4455  -0.4341  -0.4246
 -0.4174  -0.4047  -0.4034  -0.3855  -0.3787  -0.3760  -0.3652  -0.3268
 -0.2871  -0.2812  -0.2754  -0.2718  -0.2301

          Ground-State Mulliken Net Atomic Charges

     Atom                 Charge (a.u.)
  ----------------------------------------
      1 C                     0.196244
      2 C                    -0.426548
      3 C                    -0.414466
      4 C                     0.622799
      5 C                     0.396960
      6 C                     0.168885
      7 C                    -0.985423
      8 C                    -0.459970
      9 C                     0.395304
     10 C                    -0.299646
     11 O                    -0.274161
     12 O                    -0.379427
     13 N                     0.109388
     14 C                    -0.438932
     15 C                    -0.409856
     16 H                     0.200866
     17 H                     0.228049
     18 H                     0.226945
     19 H                     0.195265
     20 H                     0.238886
     21 H                     0.175649
     22 H                     0.180629
     23 H                     0.195739
     24 H                     0.176366
     25 H                     0.184522
     26 H                     0.195933
  ----------------------------------------
  Sum of atomic charges =     0.000000

                    Cartesian Multipole Moments
 -----------------------------------------------------------------
    Charge (ESU x 10^10)
                 0.0000
    Dipole Moment (Debye)
         X      -2.4897      Y      -3.0202      Z      -1.1488
       Tot       4.0792
    Quadrupole Moments (Debye-Ang)
        XX     -56.3683     XY      -9.8823     YY    -104.3692
        XZ       1.4799     YZ       3.1807     ZZ     -90.0255

 Total job time:  44.80s(wall), 338.21s(cpu)
        *  Thank you very much for using Q-Chem.  Have a nice day.  *
