 Q-Chem 5.4, Q-Chem, Inc., Pleasanton, CA (2021)
 Q-Chem 5.4.0 for Intel X86 EM64T Linux

User input:
--------------------------------------------------------------
$molecule
0 1
C                 -3.1850150000      1.4045140000      0.2465200000
C                 -2.4388040000      0.7149670000     -0.9119290000
C                 -1.1012210000      0.1558050000     -0.4914350000
C                 -0.9149170000     -1.1026640000     -0.0196900000
C                 -2.0058460000     -2.1226980000      0.1476660000
C                  0.4443660000     -1.5887480000      0.3740240000
O                  0.5936000000     -2.7346690000      0.7710680000
C                  1.5994190000     -0.6547990000      0.2727990000
C                  2.8768790000     -1.0827030000      0.6423690000
C                  3.9543630000     -0.2077150000      0.5507150000
C                  3.7616770000      1.0974080000      0.0899980000
C                  2.4917010000      1.5279680000     -0.2799630000
C                  1.4060150000      0.6533000000     -0.1897640000
C                  0.0467570000      1.1134230000     -0.5905640000
O                 -0.1324270000      2.2528660000     -0.9942060000
H                 -4.1373980000      1.8107940000     -0.1039590000
H                 -2.5958110000      2.2306630000      0.6500830000
H                 -3.3935050000      0.7044720000      1.0600600000
H                 -3.0598870000     -0.0779400000     -1.3323090000
H                 -2.2674570000      1.4481670000     -1.7017530000
H                 -1.9944540000     -2.5189080000      1.1660510000
H                 -2.9928480000     -1.7170520000     -0.0613090000
H                 -1.8279140000     -2.9798420000     -0.5087810000
H                  3.0030820000     -2.0982090000      0.9968980000
H                  4.9456870000     -0.5396500000      0.8377390000
H                  4.6037600000      1.7766010000      0.0201100000
H                  2.3202010000      2.5346490000     -0.6404400000
$end
$rem
MAX_SCF_CYCLES=200
BASIS  =  6-311++G(d,p)
GUI  =  2
JOB_TYPE  =  SP
METHOD  =  B3LYP
SOLVENT_METHOD = PCM
$end
$pcm
theory = CPCM
$end
$solvent
dielectric 37.219
opticaldielectric 1.43
$end

--------------------------------------------------------------

             Standard Nuclear Orientation (Angstroms)
    I     Atom           X                Y                Z
 ----------------------------------------------------------------
    1      C      -3.1850150000     1.4045140000     0.2465200000
    2      C      -2.4388040000     0.7149670000    -0.9119290000
    3      C      -1.1012210000     0.1558050000    -0.4914350000
    4      C      -0.9149170000    -1.1026640000    -0.0196900000
    5      C      -2.0058460000    -2.1226980000     0.1476660000
    6      C       0.4443660000    -1.5887480000     0.3740240000
    7      O       0.5936000000    -2.7346690000     0.7710680000
    8      C       1.5994190000    -0.6547990000     0.2727990000
    9      C       2.8768790000    -1.0827030000     0.6423690000
   10      C       3.9543630000    -0.2077150000     0.5507150000
   11      C       3.7616770000     1.0974080000     0.0899980000
   12      C       2.4917010000     1.5279680000    -0.2799630000
   13      C       1.4060150000     0.6533000000    -0.1897640000
   14      C       0.0467570000     1.1134230000    -0.5905640000
   15      O      -0.1324270000     2.2528660000    -0.9942060000
   16      H      -4.1373980000     1.8107940000    -0.1039590000
   17      H      -2.5958110000     2.2306630000     0.6500830000
   18      H      -3.3935050000     0.7044720000     1.0600600000
   19      H      -3.0598870000    -0.0779400000    -1.3323090000
   20      H      -2.2674570000     1.4481670000    -1.7017530000
   21      H      -1.9944540000    -2.5189080000     1.1660510000
   22      H      -2.9928480000    -1.7170520000    -0.0613090000
   23      H      -1.8279140000    -2.9798420000    -0.5087810000
   24      H       3.0030820000    -2.0982090000     0.9968980000
   25      H       4.9456870000    -0.5396500000     0.8377390000
   26      H       4.6037600000     1.7766010000     0.0201100000
   27      H       2.3202010000     2.5346490000    -0.6404400000
 ----------------------------------------------------------------

    9    -653.2531034523      1.86e-06  Convergence criterion met
 Total energy in the final basis set =     -653.2531034523

                    Orbital Energies (a.u.)
 --------------------------------------------------------------

 Alpha MOs
 -- Occupied --
-19.1327 -19.1326 -10.2807 -10.2802 -10.2121 -10.2090 -10.2049 -10.2044
-10.1956 -10.1954 -10.1951 -10.1947 -10.1758 -10.1705 -10.1622  -1.0672
 -1.0654  -0.8884  -0.8501  -0.7897  -0.7759  -0.7663  -0.7168  -0.6796
 -0.6534  -0.6247  -0.6000  -0.5813  -0.5491  -0.5173  -0.4992  -0.4753
 -0.4623  -0.4604  -0.4564  -0.4493  -0.4361  -0.4307  -0.4248  -0.4080
 -0.4065  -0.3951  -0.3860  -0.3784  -0.3739  -0.3675  -0.3578  -0.3455
 -0.2902  -0.2884  -0.2770  -0.2718  -0.2699

          Ground-State Mulliken Net Atomic Charges

     Atom                 Charge (a.u.)
  ----------------------------------------
      1 C                    -0.680050
      2 C                    -0.332870
      3 C                     0.749261
      4 C                     0.801223
      5 C                    -0.427816
      6 C                    -0.821527
      7 O                    -0.283128
      8 C                     0.695744
      9 C                     0.060194
     10 C                    -0.479686
     11 C                    -0.436217
     12 C                     0.002345
     13 C                     0.630821
     14 C                    -1.458557
     15 O                    -0.278438
     16 H                     0.153281
     17 H                     0.171100
     18 H                     0.154953
     19 H                     0.187761
     20 H                     0.194758
     21 H                     0.194140
     22 H                     0.157884
     23 H                     0.205223
     24 H                     0.196548
     25 H                     0.222994
     26 H                     0.224939
     27 H                     0.195118
  ----------------------------------------
  Sum of atomic charges =     0.000000

                    Cartesian Multipole Moments
 -----------------------------------------------------------------
    Charge (ESU x 10^10)
                 0.0000
    Dipole Moment (Debye)
         X       0.5007      Y       0.1515      Z       0.1617
       Tot       0.5476
    Quadrupole Moments (Debye-Ang)
        XX     -65.9004     XY       6.1653     YY    -102.0830
        XZ       1.9621     YZ       5.1318     ZZ     -91.0494

 Total job time:  45.68s(wall), 289.32s(cpu)
        *  Thank you very much for using Q-Chem.  Have a nice day.  *
