 Gaussian 16, Revision A.03,
 Gaussian 16:  ES64L-G16RevA.03 25-Dec-2016

 ----------------------------------------------------------------------
 #P UB3LYP/6-311++G(d,p) nosym opt freq SCRF=(PCM,Solvent=n,n-DiMethylF
 ormamide)
 ----------------------------------------------------------------------

 -------
 Radical
 -------
 Symbolic Z-matrix:
 Charge = -1 Multiplicity = 2

 SCF Done:  E(UB3LYP) =  -764.514180707     A.U. after   18 cycles
 SCF Done:  E(UB3LYP) =  -764.514627421     A.U. after   16 cycles
 SCF Done:  E(UB3LYP) =  -764.514919521     A.U. after   14 cycles
 SCF Done:  E(UB3LYP) =  -764.515009059     A.U. after   14 cycles
 SCF Done:  E(UB3LYP) =  -764.515039807     A.U. after   13 cycles
 SCF Done:  E(UB3LYP) =  -764.515060754     A.U. after   14 cycles
 SCF Done:  E(UB3LYP) =  -764.515065641     A.U. after   13 cycles
 SCF Done:  E(UB3LYP) =  -764.515067169     A.U. after   13 cycles
 SCF Done:  E(UB3LYP) =  -764.515067528     A.U. after   10 cycles
 SCF Done:  E(UB3LYP) =  -764.515067952     A.U. after   12 cycles
 SCF Done:  E(UB3LYP) =  -764.515068030     A.U. after   10 cycles
 SCF Done:  E(UB3LYP) =  -764.515068062     A.U. after   10 cycles
 Optimization completed.
    -- Stationary point found.
 Normal termination of Gaussian 16 at Sun Feb 11 02:33:24 2024.

 ----------------------------------------------------------------------
 #P Geom=AllCheck Guess=TCheck SCRF=Check GenChk UB3LYP/6-311++G(d,p) F
 req
 ----------------------------------------------------------------------

 Structure from the checkpoint file:  "260-rad.chk"
 -------
 Radical
 -------
 Charge = -1 Multiplicity = 2

                          Input orientation:
 ---------------------------------------------------------------------
 Center     Atomic      Atomic             Coordinates (Angstroms)
 Number     Number       Type             X           Y           Z
 ---------------------------------------------------------------------
      1          6           0       -2.640758   -2.389095    0.477026
      2          8           0       -2.387501   -1.289041   -0.409380
      3          6           0       -1.166621   -0.676318   -0.238333
      4          6           0       -1.127082    0.584340    0.341997
      5          8           0       -2.291664    1.113079    0.849548
      6          6           0       -2.822813    2.229539    0.119429
      7          6           0        0.100184    1.327737    0.504889
      8          8           0        0.125130    2.461334    1.066032
      9          6           0        1.318921    0.682841   -0.000967
     10          6           0        2.558191    1.345766    0.108178
     11          6           0        3.725054    0.760132   -0.350968
     12          6           0        3.685048   -0.519287   -0.935973
     13          6           0        2.478723   -1.187804   -1.050534
     14          6           0        1.278966   -0.609212   -0.589569
     15          6           0        0.014083   -1.341399   -0.736240
     16          8           0       -0.040509   -2.480937   -1.282543
     17          1           0       -1.876369   -3.160749    0.365805
     18          1           0       -2.674900   -2.042552    1.515218
     19          1           0       -3.614170   -2.793122    0.198594
     20          1           0       -2.095154    3.041340    0.069358
     21          1           0       -3.707688    2.560409    0.663244
     22          1           0       -3.112054    1.921059   -0.890715
     23          1           0        2.573606    2.329366    0.562021
     24          1           0        4.669564    1.285720   -0.260620
     25          1           0        4.598734   -0.979965   -1.295780
     26          1           0        2.431076   -2.173184   -1.498219
 ---------------------------------------------------------------------

 SCF Done:  E(UB3LYP) =  -764.515068062     A.U. after    2 cycles

 Alpha  occ. eigenvalues --  -19.13550 -19.13498 -19.07707 -19.07698 -10.22386
 Alpha  occ. eigenvalues --  -10.22378 -10.21729 -10.21655 -10.20886 -10.20852
 Alpha  occ. eigenvalues --  -10.17525 -10.17479 -10.17320 -10.17271 -10.17097
 Alpha  occ. eigenvalues --  -10.17091  -1.06004  -1.04032  -0.99644  -0.99383
 Alpha  occ. eigenvalues --   -0.85915  -0.80230  -0.75124  -0.74593  -0.70916
 Alpha  occ. eigenvalues --   -0.67956  -0.66255  -0.60828  -0.60105  -0.56377
 Alpha  occ. eigenvalues --   -0.52871  -0.51810  -0.49968  -0.46930  -0.46670
 Alpha  occ. eigenvalues --   -0.46314  -0.44570  -0.44269  -0.43525  -0.42331
 Alpha  occ. eigenvalues --   -0.42234  -0.41140  -0.40742  -0.39799  -0.37443
 Alpha  occ. eigenvalues --   -0.36455  -0.35638  -0.35054  -0.34301  -0.34039
 Alpha  occ. eigenvalues --   -0.28675  -0.28161  -0.26810  -0.25751  -0.24114
 Alpha  occ. eigenvalues --   -0.24078  -0.23766  -0.15346
 Alpha virt. eigenvalues --   -0.03424  -0.01432  -0.00350   0.00626   0.01066
 Alpha virt. eigenvalues --    0.01961   0.02562   0.02869   0.03224   0.04432
 Alpha virt. eigenvalues --    0.04447   0.04730   0.05756   0.05826   0.06095

  Beta  occ. eigenvalues --  -19.13533 -19.13482 -19.07091 -19.07084 -10.22209
  Beta  occ. eigenvalues --  -10.22204 -10.21598 -10.21524 -10.20876 -10.20842
  Beta  occ. eigenvalues --  -10.17473 -10.17427 -10.17285 -10.17237 -10.17088
  Beta  occ. eigenvalues --  -10.17084  -1.05883  -1.03898  -0.98601  -0.98338
  Beta  occ. eigenvalues --   -0.85709  -0.79787  -0.74927  -0.74438  -0.70657
  Beta  occ. eigenvalues --   -0.67808  -0.65543  -0.60718  -0.59803  -0.56113
  Beta  occ. eigenvalues --   -0.52707  -0.51627  -0.49858  -0.46526  -0.46419
  Beta  occ. eigenvalues --   -0.46179  -0.44399  -0.44179  -0.43431  -0.42284
  Beta  occ. eigenvalues --   -0.42079  -0.40468  -0.39672  -0.39411  -0.36327
  Beta  occ. eigenvalues --   -0.35380  -0.35323  -0.34564  -0.33923  -0.33301
  Beta  occ. eigenvalues --   -0.28460  -0.27954  -0.25056  -0.24712  -0.23587
  Beta  occ. eigenvalues --   -0.23537  -0.22867
  Beta virt. eigenvalues --   -0.08772  -0.02663  -0.00673  -0.00076   0.00712
  Beta virt. eigenvalues --    0.01083   0.01972   0.02601   0.02885   0.03248
  Beta virt. eigenvalues --    0.04453   0.04553   0.05328   0.05843   0.06107

 Mulliken charges and spin densities:
               1          2
     1  C   -0.278020   0.002493
     2  O   -0.182194  -0.001384
     3  C    0.153412   0.121059
     4  C    0.088436   0.120230
     5  O   -0.183162  -0.000793
     6  C   -0.274705   0.002485
     7  C   -0.728960   0.072823
     8  O   -0.481435   0.228851
     9  C    0.523448   0.022168
    10  C    0.105715   0.031828
    11  C   -0.407071   0.026145
    12  C   -0.411343   0.027030
    13  C    0.103661   0.030691
    14  C    0.510906   0.021483
    15  C   -0.701589   0.072976
    16  O   -0.482656   0.228099
    17  H    0.165489  -0.000533
    18  H    0.147728   0.000615
    19  H    0.162107   0.001425
    20  H    0.167511  -0.000395
    21  H    0.161084   0.001353
    22  H    0.145449   0.000573
    23  H    0.163494  -0.002342
    24  H    0.184783  -0.002265
    25  H    0.184773  -0.002339
    26  H    0.163140  -0.002276
 Sum of Mulliken charges =  -1.00000   1.00000

 Dipole moment (field-independent basis, Debye):
    X=              0.6983    Y=              0.1591    Z=              0.4658  Tot=              0.8543
 Quadrupole moment (field-independent basis, Debye-Ang):
   XX=            -94.5412   YY=           -118.3877   ZZ=           -107.2057
   XY=             -1.7174   XZ=             -1.5271   YZ=            -17.0707

  Exact polarizability: 311.683   9.888 289.887 -23.954  65.371 165.116
 Approx polarizability: 325.059  11.325 333.833 -22.701  82.352 191.174

                      1                      2                      3
                      A                      A                      A
 Frequencies --     58.8689                71.1761                72.9540
 Red. masses --      3.7416                 3.8177                 3.0361
 Frc consts  --      0.0076                 0.0114                 0.0095
 IR Inten    --     11.9498                17.0519                 4.7136

                      4                      5                      6
                      A                      A                      A
 Frequencies --     80.9105               133.4598               154.4291
 Red. masses --      3.9063                 4.7289                 1.3393
 Frc consts  --      0.0151                 0.0496                 0.0188
 IR Inten    --      8.4812                 0.3730                 2.5325

                      7                      8                      9
                      A                      A                      A
 Frequencies --    155.8304               162.1009               210.2973
 Red. masses --      1.0825                 2.5368                 4.7985
 Frc consts  --      0.0155                 0.0393                 0.1250
 IR Inten    --      1.0415                 6.2415                 2.1811

                     10                     11                     12
                      A                      A                      A
 Frequencies --    252.2871               265.4613               328.7513
 Red. masses --      4.0963                 5.6050                 7.8375
 Frc consts  --      0.1536                 0.2327                 0.4991
 IR Inten    --     12.0276                 1.6812                 1.5593

                     13                     14                     15
                      A                      A                      A
 Frequencies --    334.7791               371.1993               396.2622
 Red. masses --      8.8529                11.3396                 6.4896
 Frc consts  --      0.5846                 0.9206                 0.6004
 IR Inten    --      2.8787                25.5483                 0.9007

                     16                     17                     18
                      A                      A                      A
 Frequencies --    411.6923               432.0664               447.6717
 Red. masses --      8.4402                 4.2183                 6.0177
 Frc consts  --      0.8428                 0.4640                 0.7106
 IR Inten    --      1.3493                 1.6763                 0.2029

                     19                     20                     21
                      A                      A                      A
 Frequencies --    501.9266               510.4209               593.9997
 Red. masses --      4.7324                10.2004                 5.0851
 Frc consts  --      0.7024                 1.5657                 1.0571
 IR Inten    --     17.9757                 2.5446                 0.1540

                     22                     23                     24
                      A                      A                      A
 Frequencies --    609.5648               668.5920               719.4467
 Red. masses --      6.5866                 6.4486                 3.5178
 Frc consts  --      1.4420                 1.6984                 1.0728
 IR Inten    --     22.4443                16.6082                54.8351

                     25                     26                     27
                      A                      A                      A
 Frequencies --    723.5677               724.5263               785.0820
 Red. masses --      5.2605                 4.3891                 6.1487
 Frc consts  --      1.6227                 1.3575                 2.2329
 IR Inten    --     15.1833                30.8560                 1.1752

                     28                     29                     30
                      A                      A                      A
 Frequencies --    789.7644               884.5043               899.0783
 Red. masses --      1.9156                 1.4190                 7.9581
 Frc consts  --      0.7040                 0.6541                 3.7901
 IR Inten    --     36.4130                 0.0358                26.6960

                     31                     32                     33
                      A                      A                      A
 Frequencies --    913.2981               958.9837               983.3971
 Red. masses --      6.0993                 7.2249                 1.3727
 Frc consts  --      2.9975                 3.9147                 0.7822
 IR Inten    --     93.9426                84.8191                 2.9724

                     34                     35                     36
                      A                      A                      A
 Frequencies --    999.7301              1025.5123              1048.6707
 Red. masses --      1.2880                 5.9539                 2.2184
 Frc consts  --      0.7585                 3.6892                 1.4374
 IR Inten    --      0.1053               165.6416                22.8887

                     37                     38                     39
                      A                      A                      A
 Frequencies --   1097.5566              1111.5735              1152.6050
 Red. masses --      8.5737                 2.1836                 1.3444
 Frc consts  --      6.0851                 1.5897                 1.0523
 IR Inten    --    383.5638                20.6703                 4.0274

                     40                     41                     42
                      A                      A                      A
 Frequencies --   1156.0981              1157.8771              1186.6349
 Red. masses --      1.2634                 1.2607                 1.9642
 Frc consts  --      0.9949                 0.9958                 1.6296
 IR Inten    --     15.8968                 4.8410               102.0169

                     43                     44                     45
                      A                      A                      A
 Frequencies --   1193.7582              1216.3948              1219.7000
 Red. masses --      1.6550                 1.6889                 2.1908
 Frc consts  --      1.3896                 1.4723                 1.9202
 IR Inten    --      9.9418                 4.4778                71.4804

                     46                     47                     48
                      A                      A                      A
 Frequencies --   1250.1020              1274.0392              1353.3561
 Red. masses --      4.7790                 2.3707                10.1827
 Frc consts  --      4.4003                 2.2672                10.9885
 IR Inten    --    251.1179               315.8597                20.8893

                     49                     50                     51
                      A                      A                      A
 Frequencies --   1383.0298              1446.4395              1448.4383
 Red. masses --      3.1945                 1.4694                 1.8809
 Frc consts  --      3.6001                 1.8113                 2.3250
 IR Inten    --     93.4996               130.0141               581.9372

                     52                     53                     54
                      A                      A                      A
 Frequencies --   1471.1460              1475.0647              1475.5705
 Red. masses --      2.0638                 1.6309                 1.1050
 Frc consts  --      2.6316                 2.0907                 1.4176
 IR Inten    --     35.3522                65.7618                 0.2232

                     55                     56                     57
                      A                      A                      A
 Frequencies --   1478.2809              1495.5360              1496.9143
 Red. masses --      1.1494                 1.0551                 1.0565
 Frc consts  --      1.4799                 1.3903                 1.3947
 IR Inten    --     35.8618                 5.3873                 4.5266

                     58                     59                     60
                      A                      A                      A
 Frequencies --   1508.5756              1515.8578              1543.3629
 Red. masses --      4.5591                 7.0044                 5.0045
 Frc consts  --      6.1131                 9.4828                 7.0233
 IR Inten    --   1076.0542               153.1015                 0.4476

                     61                     62                     63
                      A                      A                      A
 Frequencies --   1608.9109              1628.3060              3012.8034
 Red. masses --      8.3139                 5.9152                 1.0359
 Frc consts  --     12.6800                 9.2404                 5.5400
 IR Inten    --      5.7338                 3.2762               137.7569

                     64                     65                     66
                      A                      A                      A
 Frequencies --   3013.6688              3087.5900              3089.8507
 Red. masses --      1.0353                 1.0993                 1.0974
 Frc consts  --      5.5400                 6.1743                 6.1730
 IR Inten    --     84.6834                50.7140                45.3265

                     67                     68                     69
                      A                      A                      A
 Frequencies --   3123.0732              3124.6529              3159.2070
 Red. masses --      1.1049                 1.1055                 1.0859
 Frc consts  --      6.3495                 6.3596                 6.3858
 IR Inten    --     44.8069                43.1864                 9.4465

                     70                     71                     72
                      A                      A                      A
 Frequencies --   3172.9249              3187.2349              3191.0197
 Red. masses --      1.0901                 1.0920                 1.0949
 Frc consts  --      6.4659                 6.5359                 6.5690
 IR Inten    --     19.8585                16.9826                35.7292

 - Thermochemistry -
 -------------------
 Temperature   298.150 Kelvin.  Pressure   1.00000 Atm.
 Atom     1 has atomic number  6 and mass  12.00000

 Molecular mass:   218.05791 amu.
 Principal axes and moments of inertia in atomic units:
                           1         2         3
     Eigenvalues --  2221.821603834.814825796.21718
           X            0.98913   0.01385   0.14641
           Y            0.03151   0.95248  -0.30296
           Z           -0.14365   0.30428   0.94169
 This molecule is an asymmetric top.
 Rotational symmetry number  1.
 Warning -- assumption of classical behavior for rotation
           may cause significant error
 Rotational temperatures (Kelvin)      0.03898     0.02259     0.01494
 Rotational constants (GHZ):           0.81228     0.47062     0.31137
 Zero-point vibrational energy     509533.9 (Joules/Mol)
                                  121.78153 (Kcal/Mol)
 Warning -- explicit consideration of  22 degrees of freedom as
           vibrations may cause significant error
 Vibrational temperatures:     84.70   102.41   104.96   116.41   192.02
          (Kelvin)            222.19   224.21   233.23   302.57   362.98
                              381.94   473.00   481.67   534.07   570.13
                              592.33   621.65   644.10   722.16   734.38
                              854.63   877.03   961.95  1035.12  1041.05
                             1042.43  1129.56  1136.29  1272.60  1293.57
                             1314.03  1379.76  1414.89  1438.39  1475.48
                             1508.80  1579.14  1599.31  1658.34  1663.37
                             1665.93  1707.30  1717.55  1750.12  1754.88
                             1798.62  1833.06  1947.18  1989.87  2081.10
                             2083.98  2116.65  2122.29  2123.02  2126.92
                             2151.74  2153.73  2170.50  2180.98  2220.55
                             2314.86  2342.77  4334.75  4336.00  4442.35
                             4445.61  4493.41  4495.68  4545.39  4565.13
                             4585.72  4591.17

 Zero-point correction=                           0.194071 (Hartree/Particle)
 Thermal correction to Energy=                    0.208374
 Thermal correction to Enthalpy=                  0.209318
 Thermal correction to Gibbs Free Energy=         0.151935
 Sum of electronic and zero-point Energies=           -764.320997
 Sum of electronic and thermal Energies=              -764.306694
 Sum of electronic and thermal Enthalpies=            -764.305750
 Sum of electronic and thermal Free Energies=         -764.363133

                     E (Thermal)             CV                S
                      KCal/Mol        Cal/Mol-Kelvin    Cal/Mol-Kelvin
 Total                  130.757             53.310            120.772
 Electronic               0.000              0.000              1.377
 Translational            0.889              2.981             42.042
 Rotational               0.889              2.981             32.268
 Vibrational            128.979             47.348             45.085
 Vibration     1          0.596              1.974              4.495
 Vibration     2          0.598              1.968              4.121
 Vibration     3          0.599              1.967              4.072
 Vibration     4          0.600              1.962              3.869
 Vibration     5          0.613              1.920              2.896
 Vibration     6          0.620              1.898              2.617
 Vibration     7          0.620              1.896              2.600
 Vibration     8          0.622              1.889              2.525
 Vibration     9          0.642              1.825              2.041
 Vibration    10          0.664              1.759              1.715
 Vibration    11          0.671              1.736              1.626
 Vibration    12          0.712              1.618              1.266
 Vibration    13          0.716              1.606              1.237
 Vibration    14          0.743              1.531              1.075
 Vibration    15          0.763              1.478              0.976
 Vibration    16          0.776              1.445              0.921
 Vibration    17          0.793              1.400              0.852
 Vibration    18          0.807              1.366              0.803
 Vibration    19          0.857              1.246              0.653
 Vibration    20          0.866              1.227              0.633
 Vibration    21          0.952              1.045              0.460
 Vibration    22          0.969              1.012              0.433

 Optimization completed.
    -- Stationary point found.
 Normal termination of Gaussian 16 at Sun Feb 11 03:33:34 2024.
