 Q-Chem 5.4, Q-Chem, Inc., Pleasanton, CA (2021)
 Q-Chem 5.4.0 for Intel X86 EM64T Linux

User input:
--------------------------------------------------------------
$molecule
-2 2
C                  5.0464580000     -2.9036790000     -0.3703330000
C                  5.8166600000     -2.0486710000     -1.1338110000
C                  5.2720600000     -0.8206280000     -1.5822260000
C                  3.7160220000     -2.5809570000     -0.0220130000
C                  3.1672510000     -1.3430800000     -0.4740920000
C                  3.9745430000     -0.4832970000     -1.2546990000
C                  2.9355280000     -3.5080540000      0.7842350000
C                  1.5751300000     -3.1330530000      1.1162420000
C                  1.0301670000     -1.8840040000      0.6567000000
C                  1.8077250000     -0.9634150000     -0.1449700000
C                  0.7723620000     -4.0136600000      1.9061810000
C                 -0.5483840000     -3.6517510000      2.2294850000
C                 -0.3056200000     -1.5592070000      1.0059390000
C                 -1.0620540000     -2.4376420000      1.7765120000
O                  3.4530490000     -4.6103780000      1.1752490000
O                  1.3213800000      0.1521210000     -0.5559060000
O                  1.2781340000     -5.1789640000      2.3356700000
H                  5.4366540000     -3.8499970000     -0.0132980000
H                  6.8381610000     -2.3162050000     -1.3906150000
H                  5.8762600000     -0.1460000000     -2.1832030000
H                  2.2132250000     -5.2098890000      1.9852170000
O                 -0.8682080000     -0.3897490000      0.5963990000
H                 -2.0807760000     -2.1810950000      2.0381680000
H                 -0.1471120000      0.0644630000      0.0687600000
H                  3.5319380000      0.4499650000     -1.5840990000
S                 -1.6592460000     -4.7208520000      3.2419820000
O                 -1.8016670000     -5.9875570000      2.4789460000
O                 -0.9859580000     -4.8658950000      4.5583070000
O                 -2.9272620000     -3.9364720000      3.3162450000
$end
$rem
MAX_SCF_CYCLES=200
BASIS  =  6-311++G(d,p)
GUI  =  2
JOB_TYPE  =  SP
METHOD  =  B3LYP
SOLVENT_METHOD = PCM
$end
$pcm
theory = CPCM
$end
$solvent
dielectric 37.219
opticaldielectric 1.43
$end

--------------------------------------------------------------

             Standard Nuclear Orientation (Angstroms)
    I     Atom           X                Y                Z
 ----------------------------------------------------------------
    1      C       5.0464580000    -2.9036790000    -0.3703330000
    2      C       5.8166600000    -2.0486710000    -1.1338110000
    3      C       5.2720600000    -0.8206280000    -1.5822260000
    4      C       3.7160220000    -2.5809570000    -0.0220130000
    5      C       3.1672510000    -1.3430800000    -0.4740920000
    6      C       3.9745430000    -0.4832970000    -1.2546990000
    7      C       2.9355280000    -3.5080540000     0.7842350000
    8      C       1.5751300000    -3.1330530000     1.1162420000
    9      C       1.0301670000    -1.8840040000     0.6567000000
   10      C       1.8077250000    -0.9634150000    -0.1449700000
   11      C       0.7723620000    -4.0136600000     1.9061810000
   12      C      -0.5483840000    -3.6517510000     2.2294850000
   13      C      -0.3056200000    -1.5592070000     1.0059390000
   14      C      -1.0620540000    -2.4376420000     1.7765120000
   15      O       3.4530490000    -4.6103780000     1.1752490000
   16      O       1.3213800000     0.1521210000    -0.5559060000
   17      O       1.2781340000    -5.1789640000     2.3356700000
   18      H       5.4366540000    -3.8499970000    -0.0132980000
   19      H       6.8381610000    -2.3162050000    -1.3906150000
   20      H       5.8762600000    -0.1460000000    -2.1832030000
   21      H       2.2132250000    -5.2098890000     1.9852170000
   22      O      -0.8682080000    -0.3897490000     0.5963990000
   23      H      -2.0807760000    -2.1810950000     2.0381680000
   24      H      -0.1471120000     0.0644630000     0.0687600000
   25      H       3.5319380000     0.4499650000    -1.5840990000
   26      S      -1.6592460000    -4.7208520000     3.2419820000
   27      O      -1.8016670000    -5.9875570000     2.4789460000
   28      O      -0.9859580000    -4.8658950000     4.5583070000
   29      O      -2.9272620000    -3.9364720000     3.3162450000
 ----------------------------------------------------------------

    8   -1463.0871639868      7.31e-06  Convergence criterion met
 Total energy in the final basis set =    -1463.0871639868

                    Orbital Energies (a.u.)
 --------------------------------------------------------------

 Alpha MOs
 -- Occupied --
-89.0452 -19.1358 -19.1317 -19.0938 -19.0925 -19.0897 -19.0897 -19.0878
-10.2435 -10.2396 -10.2372 -10.2337 -10.1930 -10.1839 -10.1825 -10.1805
-10.1800 -10.1765 -10.1760 -10.1741 -10.1741 -10.1723  -8.1037  -6.0664
 -6.0664  -6.0655  -1.1075  -1.0635  -1.0529  -1.0109  -1.0057  -0.9728
 -0.9697  -0.8671  -0.8509  -0.7963  -0.7575  -0.7504  -0.7391  -0.6846
 -0.6530  -0.6387  -0.6095  -0.5903  -0.5738  -0.5436  -0.5316  -0.5188
 -0.5117  -0.4878  -0.4739  -0.4635  -0.4533  -0.4523  -0.4422  -0.4385
 -0.4281  -0.4266  -0.4262  -0.4186  -0.4082  -0.4060  -0.4016  -0.3786
 -0.3745  -0.3615  -0.3592  -0.3529  -0.3404  -0.3344  -0.3325  -0.3184
 -0.3005  -0.2951  -0.2907  -0.2719  -0.2657  -0.2620  -0.2555  -0.2523
 -0.2514  -0.2182  -0.1494

 Beta MOs
 -- Occupied --
-89.0452 -19.1354 -19.1311 -19.0896 -19.0896 -19.0896 -19.0881 -19.0879
-10.2430 -10.2376 -10.2349 -10.2331 -10.1919 -10.1839 -10.1824 -10.1799
-10.1794 -10.1761 -10.1755 -10.1740 -10.1739 -10.1712  -8.1037  -6.0665
 -6.0664  -6.0655  -1.1074  -1.0620  -1.0510  -1.0037  -0.9981  -0.9726
 -0.9696  -0.8646  -0.8493  -0.7925  -0.7549  -0.7488  -0.7364  -0.6786
 -0.6508  -0.6362  -0.6083  -0.5894  -0.5722  -0.5416  -0.5304  -0.5174
 -0.5102  -0.4868  -0.4720  -0.4618  -0.4523  -0.4520  -0.4372  -0.4345
 -0.4271  -0.4249  -0.4229  -0.4167  -0.4047  -0.3996  -0.3930  -0.3774
 -0.3604  -0.3584  -0.3582  -0.3439  -0.3393  -0.3342  -0.3323  -0.3143
 -0.2949  -0.2948  -0.2898  -0.2620  -0.2572  -0.2552  -0.2549  -0.2483
 -0.2480  -0.2070

          Ground-State Mulliken Net Atomic Charges

     Atom                 Charge (a.u.)    Spin (a.u.)
  --------------------------------------------------------
      1 C                    -0.056539       0.028144
      2 C                    -0.436142       0.040035
      3 C                    -0.504265       0.029301
      4 C                     0.200039       0.034067
      5 C                     0.099725       0.011162
      6 C                    -0.032011       0.040071
      7 C                    -0.303644       0.114907
      8 C                     0.407605      -0.019441
      9 C                     0.831009      -0.006887
     10 C                    -0.302230       0.126963
     11 C                    -0.505215       0.046318
     12 C                    -0.319319       0.080057
     13 C                    -0.421306       0.048255
     14 C                    -0.216771       0.080982
     15 O                    -0.496081       0.158057
     16 O                    -0.507685       0.168662
     17 O                    -0.373771       0.015925
     18 H                     0.178389      -0.000828
     19 H                     0.206363      -0.003177
     20 H                     0.203438      -0.002600
     21 H                     0.396998      -0.003448
     22 O                    -0.416409       0.019242
     23 H                     0.246423      -0.007130
     24 H                     0.372741      -0.003778
     25 H                     0.183038      -0.001242
     26 S                     0.736117      -0.002087
     27 O                    -0.393545       0.004393
     28 O                    -0.394357       0.004321
     29 O                    -0.382593      -0.000244
  --------------------------------------------------------
  Sum of atomic charges =    -2.000000

                    Cartesian Multipole Moments
 -----------------------------------------------------------------
    Charge (ESU x 10^10)
                -9.6064
    Dipole Moment (Debye)
         X       4.2181      Y      36.8725      Z     -21.9693
       Tot      43.1280
    Quadrupole Moments (Debye-Ang)
        XX    -179.7173     XY     -23.7621     YY    -330.5354
        XZ      24.9136     YZ     108.6658     ZZ    -218.7765

 Total job time:  68.57s(wall), 509.94s(cpu)
        *  Thank you very much for using Q-Chem.  Have a nice day.  *
