 Gaussian 16, Revision A.03,
 Gaussian 16:  ES64L-G16RevA.03 25-Dec-2016

 --------------------------------------
 #P UB3LYP/6-311++G(d,p) nosym opt freq
 --------------------------------------

 -------
 Radical
 -------
 Symbolic Z-matrix:
 Charge = -2 Multiplicity = 2

 SCF Done:  E(UB3LYP) =  -1462.83805194     A.U. after   22 cycles
 SCF Done:  E(UB3LYP) =  -1462.83805194     A.U. after   10 cycles
 SCF Done:  E(UB3LYP) =  -1462.83805200     A.U. after    9 cycles
 Optimization completed.
    -- Stationary point found.
 Normal termination of Gaussian 16 at Sun Jan  7 05:26:15 2024.

 ----------------------------------------------------------------------
 #P Geom=AllCheck Guess=TCheck SCRF=Check GenChk UB3LYP/6-311++G(d,p) F
 req
 ----------------------------------------------------------------------

 Structure from the checkpoint file:  "194-rad.chk"
 -------
 Radical
 -------
 Charge = -2 Multiplicity = 2

                          Input orientation:
 ---------------------------------------------------------------------
 Center     Atomic      Atomic             Coordinates (Angstroms)
 Number     Number       Type             X           Y           Z
 ---------------------------------------------------------------------
      1          6           0        5.046458   -2.903679   -0.370333
      2          6           0        5.816660   -2.048671   -1.133811
      3          6           0        5.272060   -0.820628   -1.582226
      4          6           0        3.716022   -2.580957   -0.022013
      5          6           0        3.167251   -1.343080   -0.474092
      6          6           0        3.974543   -0.483297   -1.254699
      7          6           0        2.935528   -3.508054    0.784235
      8          6           0        1.575130   -3.133053    1.116242
      9          6           0        1.030167   -1.884004    0.656700
     10          6           0        1.807725   -0.963415   -0.144970
     11          6           0        0.772362   -4.013660    1.906181
     12          6           0       -0.548384   -3.651751    2.229485
     13          6           0       -0.305620   -1.559207    1.005939
     14          6           0       -1.062054   -2.437642    1.776512
     15          8           0        3.453049   -4.610378    1.175249
     16          8           0        1.321380    0.152121   -0.555906
     17          8           0        1.278134   -5.178964    2.335670
     18          1           0        5.436654   -3.849997   -0.013298
     19          1           0        6.838161   -2.316205   -1.390615
     20          1           0        5.876260   -0.146000   -2.183203
     21          1           0        2.213225   -5.209889    1.985217
     22          8           0       -0.868208   -0.389749    0.596399
     23          1           0       -2.080776   -2.181095    2.038168
     24          1           0       -0.147112    0.064463    0.068760
     25          1           0        3.531938    0.449965   -1.584099
     26         16           0       -1.659246   -4.720852    3.241982
     27          8           0       -1.801667   -5.987557    2.478946
     28          8           0       -0.985958   -4.865895    4.558307
     29          8           0       -2.927262   -3.936472    3.316245
 ---------------------------------------------------------------------

 SCF Done:  E(UB3LYP) =  -1462.83805200     A.U. after    2 cycles

 Alpha  occ. eigenvalues --  -88.79538 -18.91978 -18.91124 -18.88492 -18.88414
 Alpha  occ. eigenvalues --  -18.83672 -18.83569 -18.83568 -10.03188 -10.03066
 Alpha  occ. eigenvalues --  -10.02462 -10.01983  -9.99661  -9.99574  -9.98946
 Alpha  occ. eigenvalues --   -9.98899  -9.98346  -9.98303  -9.97091  -9.97051
 Alpha  occ. eigenvalues --   -9.97011  -9.95554  -7.85342  -5.81601  -5.81583
 Alpha  occ. eigenvalues --   -5.81576  -0.85442  -0.84188  -0.84000  -0.79928
 Alpha  occ. eigenvalues --   -0.79703  -0.71709  -0.71623  -0.67324  -0.64054
 Alpha  occ. eigenvalues --   -0.59194  -0.56818  -0.54720  -0.52558  -0.47531
 Alpha  occ. eigenvalues --   -0.44834  -0.43742  -0.39781  -0.37988  -0.36100
 Alpha  occ. eigenvalues --   -0.34316  -0.32616  -0.29909  -0.29553  -0.28042
 Alpha  occ. eigenvalues --   -0.26732  -0.26028  -0.24198  -0.23347  -0.22902
 Alpha  occ. eigenvalues --   -0.22087  -0.21730  -0.21468  -0.20022  -0.19944
 Alpha  occ. eigenvalues --   -0.19428  -0.19014  -0.18531  -0.17331  -0.16085
 Alpha  occ. eigenvalues --   -0.15835  -0.15709  -0.15687  -0.13663  -0.09549
 Alpha  occ. eigenvalues --   -0.07843  -0.07593  -0.07493  -0.07367  -0.06042
 Alpha  occ. eigenvalues --   -0.05629  -0.05284  -0.04228  -0.03257  -0.02928
 Alpha  occ. eigenvalues --   -0.00220   0.00239   0.05867
 Alpha virt. eigenvalues --    0.12897   0.14143   0.14868   0.17004   0.17062
 Alpha virt. eigenvalues --    0.18391   0.19580   0.20681   0.21188   0.21649
 Alpha virt. eigenvalues --    0.21906   0.22428   0.23473   0.24207   0.24299

  Beta  occ. eigenvalues --  -88.79540 -18.91890 -18.91046 -18.88044 -18.87988
  Beta  occ. eigenvalues --  -18.83676 -18.83556 -18.83555 -10.03031 -10.02870
  Beta  occ. eigenvalues --  -10.02390 -10.01882  -9.99599  -9.99489  -9.98955
  Beta  occ. eigenvalues --   -9.98929  -9.98221  -9.98172  -9.97134  -9.97093
  Beta  occ. eigenvalues --   -9.96899  -9.95494  -7.85344  -5.81602  -5.81585
  Beta  occ. eigenvalues --   -5.81581  -0.85423  -0.83941  -0.83769  -0.79242
  Beta  occ. eigenvalues --   -0.78970  -0.71682  -0.71620  -0.67084  -0.63887
  Beta  occ. eigenvalues --   -0.58783  -0.56605  -0.54563  -0.52249  -0.46886
  Beta  occ. eigenvalues --   -0.44662  -0.43518  -0.39668  -0.37823  -0.35938
  Beta  occ. eigenvalues --   -0.34157  -0.32509  -0.29749  -0.29427  -0.27857
  Beta  occ. eigenvalues --   -0.26604  -0.25888  -0.24165  -0.22760  -0.22444
  Beta  occ. eigenvalues --   -0.21853  -0.21530  -0.21171  -0.19852  -0.19716
  Beta  occ. eigenvalues --   -0.18747  -0.18450  -0.18216  -0.17210  -0.15751
  Beta  occ. eigenvalues --   -0.15551  -0.14672  -0.14640  -0.13528  -0.08820
  Beta  occ. eigenvalues --   -0.07817  -0.07565  -0.06721  -0.05923  -0.05723
  Beta  occ. eigenvalues --   -0.05269  -0.05057  -0.04153  -0.03078  -0.02542
  Beta  occ. eigenvalues --    0.00184   0.01063
  Beta virt. eigenvalues --    0.11079   0.12883   0.14859   0.14924   0.17053
  Beta virt. eigenvalues --    0.18035   0.18382   0.19578   0.21138   0.21652
  Beta virt. eigenvalues --    0.21695   0.21914   0.22442   0.23588   0.24315

 Mulliken charges and spin densities:
               1          2
     1  C   -0.051759   0.001982
     2  C   -0.421000   0.070353
     3  C   -0.471657   0.048966
     4  C    0.303407   0.091653
     5  C    0.207328   0.060942
     6  C   -0.033984   0.023679
     7  C   -0.396417   0.079965
     8  C    0.307933  -0.050180
     9  C    0.776317  -0.049370
    10  C   -0.438566   0.102450
    11  C   -0.627875   0.063195
    12  C   -0.113488   0.082114
    13  C   -0.471745   0.077783
    14  C   -0.163034   0.037738
    15  O   -0.440575   0.156131
    16  O   -0.458132   0.163957
    17  O   -0.285238   0.026525
    18  H    0.148763   0.000966
    19  H    0.109205  -0.005706
    20  H    0.105738  -0.004257
    21  H    0.371298  -0.003799
    22  O   -0.381653   0.026631
    23  H    0.239257  -0.004279
    24  H    0.346350  -0.004249
    25  H    0.151839   0.000030
    26  S    0.642452  -0.003719
    27  O   -0.317309   0.005416
    28  O   -0.317291   0.005412
    29  O   -0.320166  -0.000329
 Sum of Mulliken charges =  -2.00000   1.00000

 Dipole moment (field-independent basis, Debye):
    X=             -1.4056    Y=             33.7688    Z=            -18.0882  Tot=             38.3340
 Quadrupole moment (field-independent basis, Debye-Ang):
   XX=           -210.7913   YY=           -312.7477   ZZ=           -214.3504
   XY=            -14.8635   XZ=             31.9871   YZ=             95.3425

  Exact polarizability: 356.088  24.814 248.456-104.049 -76.230 207.105
 Approx polarizability: 550.581 -12.743 444.411-129.139-124.547 322.012

                      1                      2                      3
                      A                      A                      A
 Frequencies --     35.2199                41.9911                81.0423
 Red. masses --      8.7312                13.4649                 9.1418
 Frc consts  --      0.0064                 0.0140                 0.0354
 IR Inten    --      0.1557                 0.3924                 2.4274

                      4                      5                      6
                      A                      A                      A
 Frequencies --     93.2782               117.2497               141.8477
 Red. masses --      7.8339                10.7316                 5.6981
 Frc consts  --      0.0402                 0.0869                 0.0675
 IR Inten    --      0.6840                 0.7192                 0.0009

                      7                      8                      9
                      A                      A                      A
 Frequencies --    154.4516               179.4281               204.8707
 Red. masses --      9.7628                 9.6749                 9.5114
 Frc consts  --      0.1372                 0.1835                 0.2352
 IR Inten    --      0.7930                 0.8174                 1.7697

                     10                     11                     12
                      A                      A                      A
 Frequencies --    229.2152               242.9610               291.7738
 Red. masses --      7.8197                 8.1039                 6.5191
 Frc consts  --      0.2421                 0.2818                 0.3270
 IR Inten    --      0.6537                 1.1906                 0.0712

                     13                     14                     15
                      A                      A                      A
 Frequencies --    292.2533               337.3387               356.0064
 Red. masses --     13.1597                 6.9073                 6.5607
 Frc consts  --      0.6622                 0.4631                 0.4899
 IR Inten    --      1.5372                 1.8493                 6.2442

                     16                     17                     18
                      A                      A                      A
 Frequencies --    397.7802               404.9109               430.5424
 Red. masses --      9.8670                12.3251                 5.4389
 Frc consts  --      0.9199                 1.1906                 0.5940
 IR Inten    --      0.1726                 2.2696                 1.7720

                     19                     20                     21
                      A                      A                      A
 Frequencies --    434.2224               443.6816               454.0280
 Red. masses --      9.1376                 4.1310                12.5997
 Frc consts  --      1.0151                 0.4791                 1.5303
 IR Inten    --     23.7450                 0.7796                 2.7902

                     22                     23                     24
                      A                      A                      A
 Frequencies --    485.9850               490.6557               492.8156
 Red. masses --     10.1253                 6.9303                14.1800
 Frc consts  --      1.4090                 0.9830                 2.0291
 IR Inten    --     18.7995                 3.4191                22.1284

                     25                     26                     27
                      A                      A                      A
 Frequencies --    536.6273               538.1156               550.8150
 Red. masses --      8.4814                 7.8435                 8.7918
 Frc consts  --      1.4390                 1.3382                 1.5716
 IR Inten    --     23.1622                25.9129                 5.8072

                     28                     29                     30
                      A                      A                      A
 Frequencies --    607.9015               618.4652               655.4135
 Red. masses --     13.7989                 4.9264                 6.6755
 Frc consts  --      3.0044                 1.1102                 1.6895
 IR Inten    --    224.5807                 5.0620                10.4627

                     31                     32                     33
                      A                      A                      A
 Frequencies --    662.5543               684.7917               701.9795
 Red. masses --      5.9685                 7.2882                 5.0472
 Frc consts  --      1.5437                 2.0137                 1.4654
 IR Inten    --      0.6967                62.5855                 3.0194

                     34                     35                     36
                      A                      A                      A
 Frequencies --    721.9644               732.6933               765.9275
 Red. masses --      2.6083                 6.4996                 4.3086
 Frc consts  --      0.8010                 2.0558                 1.4892
 IR Inten    --     44.9030                 6.3150                 4.8045

                     37                     38                     39
                      A                      A                      A
 Frequencies --    772.0969               788.5731               842.5515
 Red. masses --      2.6867                 8.0382                 1.4552
 Frc consts  --      0.9437                 2.9451                 0.6086
 IR Inten    --     17.0820                18.3532                 0.0484

                     40                     41                     42
                      A                      A                      A
 Frequencies --    859.3512               896.2090               900.6924
 Red. masses --      1.0683                 1.1338                 8.5033
 Frc consts  --      0.4648                 0.5366                 4.0643
 IR Inten    --     71.1638                86.2712                22.1480

                     43                     44                     45
                      A                      A                      A
 Frequencies --    908.3081               916.5740               967.4171
 Red. masses --      1.2443                 8.3673                12.0868
 Frc consts  --      0.6048                 4.1416                 6.6648
 IR Inten    --      1.8104                25.8292               295.1796

                     46                     47                     48
                      A                      A                      A
 Frequencies --    968.0087               972.1225              1005.9023
 Red. masses --      1.2524                 1.3466                 6.8773
 Frc consts  --      0.6914                 0.7498                 4.1000
 IR Inten    --      0.2530                 2.0691               226.4732

                     49                     50                     51
                      A                      A                      A
 Frequencies --   1027.8466              1101.2660              1106.9744
 Red. masses --      2.2290                 3.7096                 2.1852
 Frc consts  --      1.3874                 2.6507                 1.5777
 IR Inten    --     23.9918                10.1591                 9.2733

                     52                     53                     54
                      A                      A                      A
 Frequencies --   1138.2738              1150.8410              1163.2153
 Red. masses --     11.6758                 1.2089                20.6163
 Frc consts  --      8.9131                 0.9434                16.4354
 IR Inten    --    175.1868                12.3260               327.1749

                     55                     56                     57
                      A                      A                      A
 Frequencies --   1185.7791              1217.3599              1258.7829
 Red. masses --      1.9268                 1.8665                 3.4094
 Frc consts  --      1.5963                 1.6297                 3.1829
 IR Inten    --     94.7490                20.2728                23.4097

                     58                     59                     60
                      A                      A                      A
 Frequencies --   1264.6304              1289.0686              1295.3120
 Red. masses --      4.0674                 6.3773                 3.6197
 Frc consts  --      3.8326                 6.2436                 3.5782
 IR Inten    --     35.2742                75.5542                75.4522

                     61                     62                     63
                      A                      A                      A
 Frequencies --   1327.3875              1356.4451              1373.3556
 Red. masses --      4.1066                10.7242                 7.4218
 Frc consts  --      4.2631                11.6257                 8.2476
 IR Inten    --    181.8356                36.6551                21.0117

                     64                     65                     66
                      A                      A                      A
 Frequencies --   1399.7106              1438.4182              1460.8867
 Red. masses --      3.0762                 6.6379                 3.9970
 Frc consts  --      3.5509                 8.0919                 5.0260
 IR Inten    --    144.3644               288.9692               397.4490

                     67                     68                     69
                      A                      A                      A
 Frequencies --   1478.0977              1490.0334              1512.7338
 Red. masses --      2.5111                 2.7153                 5.3804
 Frc consts  --      3.2324                 3.5519                 7.2542
 IR Inten    --     21.5774               131.0598               460.0324

                     70                     71                     72
                      A                      A                      A
 Frequencies --   1552.6572              1594.4204              1606.2612
 Red. masses --      5.4425                 1.9722                 5.5966
 Frc consts  --      7.7304                 2.9539                 8.5075
 IR Inten    --    118.5815                70.1718                 6.0045

                     73                     74                     75
                      A                      A                      A
 Frequencies --   1628.2884              1644.5068              3034.3822
 Red. masses --      3.4402                 2.1754                 1.0726
 Frc consts  --      5.3740                 3.4663                 5.8190
 IR Inten    --     19.0768                 1.6856               204.5915

                     76                     77                     78
                      A                      A                      A
 Frequencies --   3082.9458              3121.5664              3142.4557
 Red. masses --      1.0728                 1.0840                 1.0911
 Frc consts  --      6.0074                 6.2233                 6.3481
 IR Inten    --    208.5231                25.9546                72.2055

                     79                     80                     81
                      A                      A                      A
 Frequencies --   3179.0907              3181.6724              3199.8503
 Red. masses --      1.0911                 1.0922                 1.0892
 Frc consts  --      6.4970                 6.5142                 6.5708
 IR Inten    --     15.0618                35.3388                 9.7881

 - Thermochemistry -
 -------------------
 Temperature   298.150 Kelvin.  Pressure   1.00000 Atm.
 Atom     1 has atomic number  6 and mass  12.00000

 Molecular mass:   318.99125 amu.
 Principal axes and moments of inertia in atomic units:
                           1         2         3
     Eigenvalues --  3047.13207********************
           X            0.75578  -0.56755   0.32662
           Y            0.40460   0.79693   0.44856
           Z           -0.51487  -0.20686   0.83194
 This molecule is an asymmetric top.
 Rotational symmetry number  1.
 Warning -- assumption of classical behavior for rotation
           may cause significant error
 Rotational temperatures (Kelvin)      0.02842     0.00780     0.00628
 Rotational constants (GHZ):           0.59228     0.16259     0.13087
 Zero-point vibrational energy     492939.9 (Joules/Mol)
                                  117.81547 (Kcal/Mol)
 Warning -- explicit consideration of  29 degrees of freedom as
           vibrations may cause significant error
 Vibrational temperatures:     50.67    60.42   116.60   134.21   168.70
          (Kelvin)            204.09   222.22   258.16   294.76   329.79
                              349.57   419.80   420.49   485.36   512.21
                              572.32   582.58   619.45   624.75   638.36
                              653.25   699.22   705.94   709.05   772.09
                              774.23   792.50   874.63   889.83   942.99
                              953.27   985.26  1009.99  1038.75  1054.18
                             1102.00  1110.88  1134.58  1212.24  1236.41
                             1289.44  1295.90  1306.85  1318.75  1391.90
                             1392.75  1398.67  1447.27  1478.84  1584.48
                             1592.69  1637.72  1655.80  1673.61  1706.07
                             1751.51  1811.11  1819.52  1854.68  1863.67
                             1909.81  1951.62  1975.95  2013.87  2069.56
                             2101.89  2126.65  2143.83  2176.49  2233.93
                             2294.02  2311.05  2342.74  2366.08  4365.80
                             4435.67  4491.24  4521.29  4574.00  4577.72
                             4603.87

 Zero-point correction=                           0.187751 (Hartree/Particle)
 Thermal correction to Energy=                    0.204615
 Thermal correction to Enthalpy=                  0.205559
 Thermal correction to Gibbs Free Energy=         0.142113
 Sum of electronic and zero-point Energies=          -1462.650301
 Sum of electronic and thermal Energies=             -1462.633437
 Sum of electronic and thermal Enthalpies=           -1462.632493
 Sum of electronic and thermal Free Energies=        -1462.695939

                     E (Thermal)             CV                S
                      KCal/Mol        Cal/Mol-Kelvin    Cal/Mol-Kelvin
 Total                  128.398             66.826            133.534
 Electronic               0.000              0.000              1.377
 Translational            0.889              2.981             43.176
 Rotational               0.889              2.981             34.499
 Vibrational            126.621             60.865             54.482
 Vibration     1          0.594              1.982              5.511
 Vibration     2          0.595              1.980              5.163
 Vibration     3          0.600              1.962              3.865
 Vibration     4          0.602              1.954              3.590
 Vibration     5          0.608              1.935              3.145
 Vibration     6          0.615              1.911              2.779
 Vibration     7          0.620              1.898              2.617
 Vibration     8          0.629              1.868              2.334
 Vibration     9          0.640              1.833              2.089
 Vibration    10          0.652              1.796              1.885
 Vibration    11          0.659              1.774              1.781
 Vibration    12          0.687              1.689              1.464
 Vibration    13          0.688              1.688              1.461
 Vibration    14          0.718              1.601              1.225
 Vibration    15          0.732              1.563              1.139
 Vibration    16          0.764              1.475              0.971
 Vibration    17          0.770              1.460              0.945
 Vibration    18          0.792              1.404              0.857
 Vibration    19          0.795              1.396              0.845
 Vibration    20          0.803              1.375              0.815
 Vibration    21          0.812              1.352              0.784
 Vibration    22          0.842              1.281              0.694
 Vibration    23          0.846              1.271              0.682
 Vibration    24          0.849              1.266              0.676
 Vibration    25          0.892              1.169              0.573
 Vibration    26          0.893              1.166              0.569
 Vibration    27          0.906              1.138              0.542
 Vibration    28          0.967              1.015              0.436
 Vibration    29          0.978              0.993              0.419

 Optimization completed.
    -- Stationary point found.
 Normal termination of Gaussian 16 at Sun Jan  7 07:12:14 2024.
