 Q-Chem 5.4, Q-Chem, Inc., Pleasanton, CA (2021)
 Q-Chem 5.4.0 for Intel X86 EM64T Linux

User input:
--------------------------------------------------------------
$molecule
-2 1
C                 -0.7279710000      3.1231580000      0.0026690000
C                 -1.8873510000      2.3264420000      0.2866540000
C                 -1.8991070000      0.9305480000      0.2689360000
C                  0.5493080000      2.3725510000     -0.3131740000
C                  0.4855940000      0.9285540000     -0.3099070000
C                 -0.7005400000      0.2481530000     -0.0252670000
O                  1.6283980000      2.9869750000     -0.5584840000
O                 -0.7537870000      4.3871130000      0.0152700000
C                  1.7534840000      0.1722040000     -0.6202860000
C                  2.7733220000      0.1209090000      0.5383310000
C                  4.0660100000     -0.6196020000      0.1781110000
C                  5.0810300000     -0.7018230000      1.3242380000
C                 -3.1633130000      0.1538280000      0.5595440000
C                 -4.2275040000      0.1624490000     -0.5643190000
C                 -5.4616090000     -0.6860780000     -0.2384990000
C                 -6.5495540000     -0.6638550000     -1.3175080000
H                 -2.7985210000      2.8790700000      0.5164590000
H                 -0.7021350000     -0.8427220000     -0.0302380000
H                  2.2520570000      0.6515690000     -1.4736480000
H                  1.5046610000     -0.8584370000     -0.9159620000
H                  2.3045390000     -0.3632150000      1.4057310000
H                  3.0006060000      1.1521080000      0.8267970000
H                  4.5328410000     -0.1225320000     -0.6822050000
H                  3.8220990000     -1.6377870000     -0.1584910000
H                  5.3800430000      0.2977260000      1.6581570000
H                  5.9923250000     -1.2406980000      1.0321330000
H                  4.6578050000     -1.2228400000      2.1907830000
H                 -3.6433060000      0.5460530000      1.4707380000
H                 -2.9013730000     -0.8919010000      0.7734490000
H                 -3.7643410000     -0.1982790000     -1.4904420000
H                 -4.5296800000      1.1987340000     -0.7567850000
H                 -5.8916350000     -0.3458260000      0.7131870000
H                 -5.1487230000     -1.7258980000     -0.0674950000
H                 -6.9221680000      0.3527930000     -1.4860880000
H                 -7.4118430000     -1.2873900000     -1.0468290000
H                 -6.1681600000     -1.0368880000     -2.2746470000
$end
$rem
MAX_SCF_CYCLES=200
BASIS  =  6-311++G(d,p)
GUI  =  2
JOB_TYPE  =  SP
METHOD  =  B3LYP
SOLVENT_METHOD = PCM
$end
$pcm
theory = CPCM
$end
$solvent
dielectric 37.219
opticaldielectric 1.43
$end

--------------------------------------------------------------

             Standard Nuclear Orientation (Angstroms)
    I     Atom           X                Y                Z
 ----------------------------------------------------------------
    1      C      -0.7279710000     3.1231580000     0.0026690000
    2      C      -1.8873510000     2.3264420000     0.2866540000
    3      C      -1.8991070000     0.9305480000     0.2689360000
    4      C       0.5493080000     2.3725510000    -0.3131740000
    5      C       0.4855940000     0.9285540000    -0.3099070000
    6      C      -0.7005400000     0.2481530000    -0.0252670000
    7      O       1.6283980000     2.9869750000    -0.5584840000
    8      O      -0.7537870000     4.3871130000     0.0152700000
    9      C       1.7534840000     0.1722040000    -0.6202860000
   10      C       2.7733220000     0.1209090000     0.5383310000
   11      C       4.0660100000    -0.6196020000     0.1781110000
   12      C       5.0810300000    -0.7018230000     1.3242380000
   13      C      -3.1633130000     0.1538280000     0.5595440000
   14      C      -4.2275040000     0.1624490000    -0.5643190000
   15      C      -5.4616090000    -0.6860780000    -0.2384990000
   16      C      -6.5495540000    -0.6638550000    -1.3175080000
   17      H      -2.7985210000     2.8790700000     0.5164590000
   18      H      -0.7021350000    -0.8427220000    -0.0302380000
   19      H       2.2520570000     0.6515690000    -1.4736480000
   20      H       1.5046610000    -0.8584370000    -0.9159620000
   21      H       2.3045390000    -0.3632150000     1.4057310000
   22      H       3.0006060000     1.1521080000     0.8267970000
   23      H       4.5328410000    -0.1225320000    -0.6822050000
   24      H       3.8220990000    -1.6377870000    -0.1584910000
   25      H       5.3800430000     0.2977260000     1.6581570000
   26      H       5.9923250000    -1.2406980000     1.0321330000
   27      H       4.6578050000    -1.2228400000     2.1907830000
   28      H      -3.6433060000     0.5460530000     1.4707380000
   29      H      -2.9013730000    -0.8919010000     0.7734490000
   30      H      -3.7643410000    -0.1982790000    -1.4904420000
   31      H      -4.5296800000     1.1987340000    -0.7567850000
   32      H      -5.8916350000    -0.3458260000     0.7131870000
   33      H      -5.1487230000    -1.7258980000    -0.0674950000
   34      H      -6.9221680000     0.3527930000    -1.4860880000
   35      H      -7.4118430000    -1.2873900000    -1.0468290000
   36      H      -6.1681600000    -1.0368880000    -2.2746470000
 ----------------------------------------------------------------

    9    -696.4265646692      5.25e-06  Convergence criterion met
 Total energy in the final basis set =     -696.4265646692

                    Orbital Energies (a.u.)
 --------------------------------------------------------------

 Alpha MOs
 -- Occupied --
-19.0157 -19.0126 -10.1595 -10.1548 -10.1527 -10.1500 -10.1485 -10.1470
-10.1463 -10.1437 -10.1406 -10.1361 -10.1212 -10.1117 -10.1105 -10.1037
 -0.9495  -0.9229  -0.7959  -0.7815  -0.7670  -0.7302  -0.7025  -0.6657
 -0.6450  -0.6117  -0.5918  -0.5646  -0.5618  -0.5149  -0.5075  -0.4609
 -0.4527  -0.4302  -0.4270  -0.4150  -0.4129  -0.3981  -0.3945  -0.3833
 -0.3789  -0.3657  -0.3621  -0.3524  -0.3436  -0.3406  -0.3378  -0.3281
 -0.3259  -0.3201  -0.3161  -0.3111  -0.3089  -0.3053  -0.2872  -0.2796
 -0.2565  -0.2070  -0.1741  -0.1709  -0.1107

          Ground-State Mulliken Net Atomic Charges

     Atom                 Charge (a.u.)
  ----------------------------------------
      1 C                    -0.524127
      2 C                    -0.031764
      3 C                     0.611754
      4 C                    -0.287223
      5 C                     1.052260
      6 C                    -1.018326
      7 O                    -0.711703
      8 O                    -0.725269
      9 C                    -0.317277
     10 C                    -0.396008
     11 C                    -0.163969
     12 C                    -0.674072
     13 C                    -0.330145
     14 C                    -0.311052
     15 C                    -0.201634
     16 C                    -0.662482
     17 H                     0.122368
     18 H                     0.150327
     19 H                     0.137700
     20 H                     0.130211
     21 H                     0.119365
     22 H                     0.157529
     23 H                     0.125884
     24 H                     0.122051
     25 H                     0.142903
     26 H                     0.142170
     27 H                     0.142236
     28 H                     0.130563
     29 H                     0.132081
     30 H                     0.128424
     31 H                     0.122249
     32 H                     0.129328
     33 H                     0.126018
     34 H                     0.145174
     35 H                     0.141467
     36 H                     0.142990
  ----------------------------------------
  Sum of atomic charges =    -2.000001

                    Cartesian Multipole Moments
 -----------------------------------------------------------------
    Charge (ESU x 10^10)
                -9.6064
    Dipole Moment (Debye)
         X      -0.7021      Y     -29.0999      Z       1.7967
       Tot      29.1638
    Quadrupole Moments (Debye-Ang)
        XX    -131.3339     XY      -2.5137     YY    -218.1467
        XZ       2.2694     YZ       5.7441     ZZ    -113.4237

 Total job time:  63.42s(wall), 421.87s(cpu)
        *  Thank you very much for using Q-Chem.  Have a nice day.  *
