 Gaussian 16, Revision A.03,
 Gaussian 16:  ES64L-G16RevA.03 25-Dec-2016

 ----------------------------------------------------------------------
 #P UB3LYP/6-311++G(d,p) nosym opt freq SCRF=(PCM,Solvent=n,n-DiMethylF
 ormamide)
 ----------------------------------------------------------------------

 -------
 Reduced
 -------
 Symbolic Z-matrix:
 Charge = -2 Multiplicity = 1

 SCF Done:  E(UB3LYP) =  -1240.25211916     A.U. after   20 cycles
 SCF Done:  E(UB3LYP) =  -1240.25211933     A.U. after   12 cycles
 SCF Done:  E(UB3LYP) =  -1240.25211975     A.U. after   12 cycles
 SCF Done:  E(UB3LYP) =  -1240.25212041     A.U. after   12 cycles
 SCF Done:  E(UB3LYP) =  -1240.25207145     A.U. after   17 cycles
 SCF Done:  E(UB3LYP) =  -1240.25212126     A.U. after   17 cycles
 SCF Done:  E(UB3LYP) =  -1240.25211004     A.U. after   14 cycles
 SCF Done:  E(UB3LYP) =  -1240.25212307     A.U. after   13 cycles
 SCF Done:  E(UB3LYP) =  -1240.25212323     A.U. after   10 cycles
 SCF Done:  E(UB3LYP) =  -1240.25212775     A.U. after   14 cycles
 SCF Done:  E(UB3LYP) =  -1240.25213299     A.U. after   16 cycles
 SCF Done:  E(UB3LYP) =  -1240.25213369     A.U. after   13 cycles
 SCF Done:  E(UB3LYP) =  -1240.25213543     A.U. after   13 cycles
 SCF Done:  E(UB3LYP) =  -1240.25213581     A.U. after   11 cycles
 SCF Done:  E(UB3LYP) =  -1240.25213764     A.U. after   12 cycles
 SCF Done:  E(UB3LYP) =  -1240.25213763     A.U. after   13 cycles
 SCF Done:  E(UB3LYP) =  -1240.25213773     A.U. after   13 cycles
 SCF Done:  E(UB3LYP) =  -1240.25213803     A.U. after   12 cycles
 SCF Done:  E(UB3LYP) =  -1240.25213805     A.U. after   11 cycles
 Optimization completed.
    -- Stationary point found.
 Normal termination of Gaussian 16 at Thu Feb 15 05:44:39 2024.

 ----------------------------------------------------------------------
 #P Geom=AllCheck Guess=TCheck SCRF=Check GenChk UB3LYP/6-311++G(d,p) F
 req
 ----------------------------------------------------------------------

 Structure from the checkpoint file:  "070-an.chk"
 -------
 Reduced
 -------
 Charge = -2 Multiplicity = 1

                          Input orientation:
 ---------------------------------------------------------------------
 Center     Atomic      Atomic             Coordinates (Angstroms)
 Number     Number       Type             X           Y           Z
 ---------------------------------------------------------------------
      1          6           0        1.067228    1.735970   -0.638672
      2          6           0       -0.118516    1.226351    0.019368
      3          6           0       -0.401503   -0.136704    0.110526
      4          6           0        0.476517   -1.157065   -0.432284
      5          6           0        1.633807   -0.673215   -1.066278
      6          6           0        1.907062    0.712560   -1.173099
      7          8           0        1.338657    2.997817   -0.715481
      8          8           0        0.201985   -2.437073   -0.336034
      9         16           0        3.396500    1.186438   -1.995679
     10          6           0        4.451565    2.039479   -0.794274
     11          6           0        4.390305    3.426356   -0.668029
     12          6           0        5.320718    1.280393   -0.008862
     13          6           0        6.140678    1.923331    0.916609
     14          6           0        5.219905    4.060206    0.257084
     15          6           0        6.092063    3.312642    1.049134
     16          8           0        3.160980    2.140154   -3.111406
     17          8           0        4.141238   -0.049218   -2.366467
     18          1           0        3.696634    3.985341   -1.278926
     19          1           0        5.360707    0.205284   -0.130080
     20          1           0        5.183228    5.139032    0.358885
     21          1           0        2.330674   -1.383403   -1.495235
     22          1           0        6.821228    1.340751    1.527061
     23          6           0       -1.663714   -0.593912    0.804606
     24          6           0       -1.062753    2.241340    0.623194
     25          1           0        6.733261    3.810539    1.767790
     26          1           0       -1.666208   -0.325810    1.868835
     27          1           0       -1.752886   -1.677010    0.725585
     28          1           0       -2.559120   -0.134570    0.369497
     29          1           0       -0.641691    3.240911    0.517962
     30          1           0       -1.244564    2.051378    1.687657
     31          1           0       -2.045638    2.232399    0.134772
 ---------------------------------------------------------------------

 SCF Done:  E(UB3LYP) =  -1240.25213805     A.U. after    2 cycles

 Alpha  occ. eigenvalues --  -89.02869 -19.09542 -19.09469 -19.02322 -19.01195
 Alpha  occ. eigenvalues --  -10.20078 -10.18683 -10.18532 -10.18186 -10.18165
 Alpha  occ. eigenvalues --  -10.18058 -10.17983 -10.17083 -10.15671 -10.14155
 Alpha  occ. eigenvalues --  -10.13894 -10.13840 -10.13806 -10.12704  -8.09237
 Alpha  occ. eigenvalues --   -6.05551  -6.05425  -6.05283  -1.08284  -0.97677
 Alpha  occ. eigenvalues --   -0.94056  -0.91955  -0.86727  -0.79998  -0.77355
 Alpha  occ. eigenvalues --   -0.75550  -0.75284  -0.70184  -0.68471  -0.64056
 Alpha  occ. eigenvalues --   -0.63121  -0.61402  -0.58811  -0.54515  -0.53331
 Alpha  occ. eigenvalues --   -0.51532  -0.47544  -0.46873  -0.45977  -0.45676
 Alpha  occ. eigenvalues --   -0.44704  -0.43065  -0.42993  -0.41481  -0.41223
 Alpha  occ. eigenvalues --   -0.38211  -0.37742  -0.37556  -0.37261  -0.36846
 Alpha  occ. eigenvalues --   -0.36480  -0.35768  -0.35239  -0.34856  -0.33006
 Alpha  occ. eigenvalues --   -0.31900  -0.31356  -0.31051  -0.30349  -0.28620
 Alpha  occ. eigenvalues --   -0.28173  -0.26674  -0.26292  -0.23113  -0.20991
 Alpha  occ. eigenvalues --   -0.20186  -0.19269  -0.12627
 Alpha virt. eigenvalues --   -0.03530  -0.01827  -0.00238   0.00416   0.00651
 Alpha virt. eigenvalues --    0.01380   0.01959   0.02487   0.03350   0.03548
 Alpha virt. eigenvalues --    0.03941   0.04108   0.04623   0.04963   0.05960

  Beta  occ. eigenvalues --  -89.02869 -19.09542 -19.09469 -19.02322 -19.01195
  Beta  occ. eigenvalues --  -10.20078 -10.18683 -10.18532 -10.18186 -10.18165
  Beta  occ. eigenvalues --  -10.18058 -10.17983 -10.17083 -10.15671 -10.14155
  Beta  occ. eigenvalues --  -10.13894 -10.13840 -10.13806 -10.12704  -8.09237
  Beta  occ. eigenvalues --   -6.05551  -6.05425  -6.05283  -1.08284  -0.97677
  Beta  occ. eigenvalues --   -0.94056  -0.91955  -0.86727  -0.79998  -0.77355
  Beta  occ. eigenvalues --   -0.75550  -0.75284  -0.70184  -0.68471  -0.64056
  Beta  occ. eigenvalues --   -0.63121  -0.61402  -0.58811  -0.54515  -0.53331
  Beta  occ. eigenvalues --   -0.51532  -0.47544  -0.46873  -0.45977  -0.45676
  Beta  occ. eigenvalues --   -0.44704  -0.43065  -0.42993  -0.41481  -0.41223
  Beta  occ. eigenvalues --   -0.38211  -0.37742  -0.37556  -0.37261  -0.36846
  Beta  occ. eigenvalues --   -0.36480  -0.35768  -0.35239  -0.34856  -0.33006
  Beta  occ. eigenvalues --   -0.31900  -0.31356  -0.31051  -0.30349  -0.28620
  Beta  occ. eigenvalues --   -0.28173  -0.26674  -0.26292  -0.23113  -0.20991
  Beta  occ. eigenvalues --   -0.20186  -0.19269  -0.12627
  Beta virt. eigenvalues --   -0.03530  -0.01827  -0.00238   0.00416   0.00651
  Beta virt. eigenvalues --    0.01380   0.01959   0.02487   0.03350   0.03548
  Beta virt. eigenvalues --    0.03941   0.04108   0.04623   0.04963   0.05960

 Mulliken charges and spin densities:
               1          2
     1  C   -1.010823   0.000000
     2  C    0.133173   0.000000
     3  C    0.928688  -0.000000
     4  C   -1.068006  -0.000000
     5  C    0.403334   0.000000
     6  C   -0.042788  -0.000000
     7  O   -0.578756   0.000000
     8  O   -0.723550   0.000000
     9  S    0.320510   0.000000
    10  C    0.399358  -0.000000
    11  C   -0.267361   0.000000
    12  C    0.019870  -0.000000
    13  C   -0.482414  -0.000000
    14  C   -0.392789  -0.000000
    15  C   -0.355296   0.000000
    16  O   -0.277155   0.000000
    17  O   -0.306193   0.000000
    18  H    0.266022   0.000000
    19  H    0.237432  -0.000000
    20  H    0.204837  -0.000000
    21  H    0.203061   0.000000
    22  H    0.202219   0.000000
    23  C   -0.446688   0.000000
    24  C   -0.456327  -0.000000
    25  H    0.184080   0.000000
    26  H    0.141770  -0.000000
    27  H    0.176544   0.000000
    28  H    0.137225  -0.000000
    29  H    0.178241   0.000000
    30  H    0.131979  -0.000000
    31  H    0.139804   0.000000
 Sum of Mulliken charges =  -2.00000  -0.00000

 Dipole moment (field-independent basis, Debye):
    X=            -13.2573    Y=             -1.1864    Z=             13.2745  Tot=             18.7983
 Quadrupole moment (field-independent basis, Debye-Ang):
   XX=           -159.0791   YY=           -178.2890   ZZ=           -157.7747
   XY=            -11.0366   XZ=             42.0365   YZ=             15.0947

  Exact polarizability: 372.836  37.879 363.052 -12.711  11.618 248.393
 Approx polarizability: 381.688  18.468 422.669 -11.171   7.929 280.295

                      1                      2                      3
                      A                      A                      A
 Frequencies --     30.0659                30.7370                51.3743
 Red. masses --      3.8886                 6.7697                 4.6388
 Frc consts  --      0.0021                 0.0038                 0.0072
 IR Inten    --      0.8298                 3.9932                 5.2917

                      4                      5                      6
                      A                      A                      A
 Frequencies --     89.5622                93.1717               139.5664
 Red. masses --      1.1150                 3.7753                 2.1543
 Frc consts  --      0.0053                 0.0193                 0.0247
 IR Inten    --      1.6362                10.8637                 0.8882

                      7                      8                      9
                      A                      A                      A
 Frequencies --    144.3021               156.2374               158.5886
 Red. masses --      1.8450                 3.8231                 5.6836
 Frc consts  --      0.0226                 0.0550                 0.0842
 IR Inten    --      5.3870                17.5113                 2.8442

                     10                     11                     12
                      A                      A                      A
 Frequencies --    180.3298               217.9624               252.4017
 Red. masses --      6.5447                 5.1811                 5.7166
 Frc consts  --      0.1254                 0.1450                 0.2146
 IR Inten    --      1.6568                 4.6045                 2.2187

                     13                     14                     15
                      A                      A                      A
 Frequencies --    280.8972               291.4932               304.3049
 Red. masses --      6.6787                 6.3603                 7.1236
 Frc consts  --      0.3105                 0.3184                 0.3887
 IR Inten    --      3.1955                 6.8028                 5.0249

                     16                     17                     18
                      A                      A                      A
 Frequencies --    321.0688               328.1450               370.5939
 Red. masses --      3.4450                 2.7526                 8.3273
 Frc consts  --      0.2092                 0.1746                 0.6738
 IR Inten    --     11.9700                 6.2015                11.7546

                     19                     20                     21
                      A                      A                      A
 Frequencies --    379.8751               410.7205               417.1271
 Red. masses --      8.5925                 2.8468                 8.5286
 Frc consts  --      0.7306                 0.2829                 0.8743
 IR Inten    --     12.7657                 0.0491                 3.6992

                     22                     23                     24
                      A                      A                      A
 Frequencies --    456.3070               481.5668               491.5319
 Red. masses --      5.0290                 8.1772                 4.7364
 Frc consts  --      0.6169                 1.1173                 0.6742
 IR Inten    --     11.3628                22.8353                16.4036

                     25                     26                     27
                      A                      A                      A
 Frequencies --    507.9416               540.9554               585.6308
 Red. masses --      5.4046                 7.3119                 7.9841
 Frc consts  --      0.8216                 1.2607                 1.6133
 IR Inten    --     20.3358               105.1809               389.6122

                     28                     29                     30
                      A                      A                      A
 Frequencies --    626.4131               656.5105               666.4349
 Red. masses --      6.4393                 4.0252                 2.9191
 Frc consts  --      1.4887                 1.0222                 0.7639
 IR Inten    --      0.2842                14.0808                 3.6406

                     31                     32                     33
                      A                      A                      A
 Frequencies --    688.5073               696.8989               710.1811
 Red. masses --      5.4571                 1.8741                 6.9504
 Frc consts  --      1.5242                 0.5363                 2.0654
 IR Inten    --     70.9838                91.1970                63.0008

                     34                     35                     36
                      A                      A                      A
 Frequencies --    746.2046               761.2715               810.4607
 Red. masses --      5.0336                 1.8088                 1.8167
 Frc consts  --      1.6514                 0.6176                 0.7031
 IR Inten    --     40.4370                10.4344                46.7196

                     37                     38                     39
                      A                      A                      A
 Frequencies --    823.3222               844.5787               883.9925
 Red. masses --      7.4807                 1.2605                 2.5525
 Frc consts  --      2.9877                 0.5298                 1.1752
 IR Inten    --    113.1116                 1.6973                28.6746

                     40                     41                     42
                      A                      A                      A
 Frequencies --    928.9990               954.3432               985.6882
 Red. masses --      1.3782                 1.6157                 1.3824
 Frc consts  --      0.7008                 0.8670                 0.7913
 IR Inten    --      4.0034                 9.3204                 0.4799

                     43                     44                     45
                      A                      A                      A
 Frequencies --   1006.0094              1008.0596              1019.1359
 Red. masses --      1.3688                 5.9764                 8.2823
 Frc consts  --      0.8162                 3.5782                 5.0683
 IR Inten    --      5.9002               187.0315               254.3172

                     46                     47                     48
                      A                      A                      A
 Frequencies --   1025.2207              1043.4784              1054.7930
 Red. masses --      1.4229                 2.7253                 1.5425
 Frc consts  --      0.8812                 1.7484                 1.0111
 IR Inten    --      0.7327                55.5302                 1.3860

                     49                     50                     51
                      A                      A                      A
 Frequencies --   1077.6564              1092.6113              1092.8062
 Red. masses --      3.6081                 2.1080                 2.2817
 Frc consts  --      2.4688                 1.4827                 1.6054
 IR Inten    --    258.0548               121.5823                82.6709

                     52                     53                     54
                      A                      A                      A
 Frequencies --   1094.4918              1153.4404              1171.0275
 Red. masses --      2.3833                10.6152                 2.3481
 Frc consts  --      1.6821                 8.3209                 1.8971
 IR Inten    --     67.8748               295.0797                50.0827

                     55                     56                     57
                      A                      A                      A
 Frequencies --   1175.6789              1191.4513              1213.9547
 Red. masses --      1.1111                 1.1537                 7.3480
 Frc consts  --      0.9049                 0.9649                 6.3801
 IR Inten    --      2.3572                 1.2777               204.7140

                     58                     59                     60
                      A                      A                      A
 Frequencies --   1279.9660              1311.4574              1326.7403
 Red. masses --      3.2337                 6.4985                 3.0760
 Frc consts  --      3.1214                 6.5852                 3.1902
 IR Inten    --    273.2119               422.4142                 3.1075

                     61                     62                     63
                      A                      A                      A
 Frequencies --   1340.1301              1367.3635              1378.7689
 Red. masses --      1.7992                 1.3856                 1.3341
 Frc consts  --      1.9038                 1.5264                 1.4942
 IR Inten    --     16.3974                47.7396                80.6245

                     64                     65                     66
                      A                      A                      A
 Frequencies --   1402.9681              1440.3959              1454.0874
 Red. masses --      3.8436                 5.0068                 1.5724
 Frc consts  --      4.4574                 6.1203                 1.9588
 IR Inten    --   1100.0299               141.0087               345.0328

                     67                     68                     69
                      A                      A                      A
 Frequencies --   1469.6920              1470.6199              1485.1503
 Red. masses --      2.0938                 1.1261                 1.0524
 Frc consts  --      2.6646                 1.4349                 1.3676
 IR Inten    --     28.2717                11.0271                 0.2109

                     70                     71                     72
                      A                      A                      A
 Frequencies --   1491.0388              1498.6058              1502.4720
 Red. masses --      2.2840                 1.0587                 2.0244
 Frc consts  --      2.9917                 1.4009                 2.6925
 IR Inten    --     45.6795                19.4026                17.7682

                     73                     74                     75
                      A                      A                      A
 Frequencies --   1591.6531              1615.2595              1616.1470
 Red. masses --      7.9412                 5.4241                 5.7650
 Frc consts  --     11.8532                 8.3380                 8.8717
 IR Inten    --     35.5173                11.1689                 2.7893

                     76                     77                     78
                      A                      A                      A
 Frequencies --   2992.4464              2994.2828              3025.3384
 Red. masses --      1.0432                 1.0431                 1.0973
 Frc consts  --      5.5041                 5.5101                 5.9172
 IR Inten    --    162.5264               103.9987               107.8406

                     79                     80                     81
                      A                      A                      A
 Frequencies --   3030.3814              3112.6979              3113.6268
 Red. masses --      1.0973                 1.0935                 1.0944
 Frc consts  --      5.9370                 6.2426                 6.2512
 IR Inten    --     17.0627                 8.9600                25.3596

                     82                     83                     84
                      A                      A                      A
 Frequencies --   3166.0270              3175.7501              3178.8435
 Red. masses --      1.0862                 1.0901                 1.0872
 Frc consts  --      6.4148                 6.4776                 6.4730
 IR Inten    --      0.6380                24.5166                32.5076

                     85                     86                     87
                      A                      A                      A
 Frequencies --   3187.1322              3200.7777              3230.1729
 Red. masses --      1.0951                 1.0936                 1.0919
 Frc consts  --      6.5542                 6.6014                 6.7125
 IR Inten    --     28.5312                 9.7901                 3.0028

 - Thermochemistry -
 -------------------
 Temperature   298.150 Kelvin.  Pressure   1.00000 Atm.
 Atom     1 has atomic number  6 and mass  12.00000

 Molecular mass:   276.04563 amu.
 Principal axes and moments of inertia in atomic units:
                           1         2         3
     Eigenvalues --  3039.696457747.047788547.17842
           X            0.88717  -0.37083   0.27461
           Y            0.45819   0.77843  -0.42909
           Z           -0.05465   0.50650   0.86051
 This molecule is an asymmetric top.
 Rotational symmetry number  1.
 Warning -- assumption of classical behavior for rotation
           may cause significant error
 Rotational temperatures (Kelvin)      0.02849     0.01118     0.01013
 Rotational constants (GHZ):           0.59372     0.23296     0.21115
 Zero-point vibrational energy     594341.1 (Joules/Mol)
                                  142.05093 (Kcal/Mol)
 Warning -- explicit consideration of  27 degrees of freedom as
           vibrations may cause significant error
 Vibrational temperatures:     43.26    44.22    73.92   128.86   134.05
          (Kelvin)            200.80   207.62   224.79   228.17   259.45
                              313.60   363.15   404.15   419.39   437.83
                              461.95   472.13   533.20   546.56   590.94
                              600.15   656.52   692.87   707.20   730.81
                              778.31   842.59   901.27   944.57   958.85
                              990.61  1002.68  1021.79  1073.62  1095.30
                             1166.07  1184.58  1215.16  1271.87  1336.62
                             1373.09  1418.19  1447.42  1450.37  1466.31
                             1475.06  1501.33  1517.61  1550.51  1572.02
                             1572.30  1574.73  1659.54  1684.85  1691.54
                             1714.23  1746.61  1841.59  1886.89  1908.88
                             1928.15  1967.33  1983.74  2018.56  2072.41
                             2092.11  2114.56  2115.89  2136.80  2145.27
                             2156.16  2161.72  2290.03  2324.00  2325.28
                             4305.46  4308.11  4352.79  4360.04  4478.48
                             4479.81  4555.21  4569.20  4573.65  4585.57
                             4605.21  4647.50

 Zero-point correction=                           0.226373 (Hartree/Particle)
 Thermal correction to Energy=                    0.243964
 Thermal correction to Enthalpy=                  0.244909
 Thermal correction to Gibbs Free Energy=         0.180110
 Sum of electronic and zero-point Energies=          -1240.025765
 Sum of electronic and thermal Energies=             -1240.008174
 Sum of electronic and thermal Enthalpies=           -1240.007229
 Sum of electronic and thermal Free Energies=        -1240.072028

                     E (Thermal)             CV                S
                      KCal/Mol        Cal/Mol-Kelvin    Cal/Mol-Kelvin
 Total                  153.090             66.901            136.379
 Electronic               0.000              0.000              0.000
 Translational            0.889              2.981             42.745
 Rotational               0.889              2.981             33.664
 Vibrational            151.313             60.940             59.970
 Vibration     1          0.594              1.984              5.825
 Vibration     2          0.594              1.984              5.781
 Vibration     3          0.596              1.977              4.764
 Vibration     4          0.602              1.957              3.670
 Vibration     5          0.602              1.954              3.592
 Vibration     6          0.615              1.914              2.810
 Vibration     7          0.616              1.909              2.746
 Vibration     8          0.620              1.896              2.595
 Vibration     9          0.621              1.893              2.567
 Vibration    10          0.629              1.866              2.325
 Vibration    11          0.646              1.814              1.976
 Vibration    12          0.664              1.759              1.714
 Vibration    13          0.681              1.709              1.528
 Vibration    14          0.687              1.690              1.465
 Vibration    15          0.695              1.666              1.393
 Vibration    16          0.707              1.633              1.305
 Vibration    17          0.711              1.619              1.269
 Vibration    18          0.743              1.533              1.077
 Vibration    19          0.750              1.513              1.040
 Vibration    20          0.775              1.447              0.924
 Vibration    21          0.780              1.433              0.902
 Vibration    22          0.815              1.347              0.777
 Vibration    23          0.838              1.291              0.706
 Vibration    24          0.847              1.269              0.680
 Vibration    25          0.863              1.232              0.639
 Vibration    26          0.896              1.160              0.563
 Vibration    27          0.943              1.062              0.475

                           ! Non-Optimized Parameters !
 Normal termination of Gaussian 16 at Thu Feb 15 07:30:16 2024.
