 Q-Chem 5.4, Q-Chem, Inc., Pleasanton, CA (2021)
 Q-Chem 5.4.0 for Intel X86 EM64T Linux

User input:
--------------------------------------------------------------
$molecule
-2 1
C                  4.9615910000     -3.5701580000     -3.0941430000
O                  4.1232950000     -2.6989240000     -2.3841640000
C                  4.5938230000     -2.1192800000     -1.2278190000
C                  5.8599980000     -2.3900960000     -0.7512440000
C                  6.3281450000     -1.7856330000      0.4498560000
C                  5.5144060000     -0.9284590000      1.1393000000
C                  4.2045570000     -0.6221920000      0.6832650000
C                  3.4160970000      0.2843950000      1.4605980000
O                  3.8798330000      0.8185160000      2.5615560000
C                  2.0968740000      0.5828920000      0.9936540000
C                  1.2715040000      1.4756020000      1.7610430000
O                  1.7686020000      2.0262210000      2.9089120000
C                 -0.0026020000      1.7714100000      1.3342070000
C                 -0.9192850000      2.6622940000      2.1339700000
C                 -1.4660820000      3.7472310000      1.2117700000
O                 -2.3768340000      4.6488730000      1.9158420000
C                 -2.2458930000      3.1296900000      0.0396460000
C                 -1.8887910000      1.6703880000     -0.3159700000
O                 -2.9720950000      0.8402000000      0.2857200000
C                 -2.9933560000     -0.4506780000     -0.2289370000
C                 -2.5925120000     -1.5025200000      0.8015520000
C                 -2.6897340000     -2.9157670000      0.1885500000
N                 -1.6552010000     -3.1996920000     -0.8247380000
C                 -4.0940790000     -3.1064050000     -0.4323880000
O                 -5.1055000000     -3.1703370000      0.5867300000
C                 -4.3971490000     -1.9569870000     -1.4071220000
C                 -5.7587110000     -2.0539380000     -2.0810780000
O                 -4.3505670000     -0.7225060000     -0.6810970000
C                 -0.5188620000      1.2328490000      0.1130170000
C                  0.2173170000      0.3156480000     -0.6530540000
O                 -0.2832280000     -0.2734970000     -1.7205250000
C                  1.5814680000     -0.0040620000     -0.2109570000
C                  2.3867320000     -0.8939780000     -0.9736380000
O                  1.8851590000     -1.4162460000     -2.1274600000
C                  3.6947230000     -1.2189150000     -0.5393450000
C                 -0.3279430000      4.6844850000      0.7294310000
O                 -0.2959570000      5.1622830000     -0.3899920000
C                  0.7348590000      5.1363720000      1.7292820000
O                  1.4858610000      6.2151790000      1.1992920000
H                  4.3863900000     -3.8944340000     -3.9638660000
H                  5.2439960000     -4.4528410000     -2.5009180000
H                  5.8824760000     -3.0746400000     -3.4361460000
H                  6.5130440000     -3.0682310000     -1.2852050000
H                  7.3295860000     -2.0140490000      0.8049700000
H                  5.8324290000     -0.4481030000      2.0568710000
H                  2.7288490000      1.6233650000      2.9634200000
H                 -0.3786000000      3.0894610000      2.9835380000
H                 -1.7777260000      2.1012560000      2.5297070000
H                 -2.0900070000      4.6750860000      2.8349850000
H                 -2.1039750000      3.7563100000     -0.8425740000
H                 -3.3042560000      3.1614090000      0.3040960000
H                 -1.9781720000      1.5340320000     -1.3961300000
H                 -2.3347760000     -0.5065820000     -1.1019500000
H                 -1.5711020000     -1.2992320000      1.1309610000
H                 -3.2493450000     -1.4008780000      1.6743090000
H                 -2.5990770000     -3.6644990000      0.9820630000
H                 -1.2995540000     -2.3428460000     -1.2547180000
H                 -0.8453740000     -3.6170220000     -0.3794640000
H                 -4.1207240000     -4.0657880000     -0.9547240000
H                 -5.2408530000     -2.2595840000      0.8806390000
H                 -3.6132370000     -1.9546060000     -2.1774010000
H                 -5.8207890000     -2.9684260000     -2.6795690000
H                 -5.9090150000     -1.1934190000     -2.7376720000
H                 -6.5605100000     -2.0728380000     -1.3396350000
H                  0.9440520000     -1.0366550000     -2.1777190000
H                  0.2521400000      5.4606860000      2.6594550000
H                  1.3789170000      4.2828310000      1.9780940000
H                  1.2347540000      6.2459930000      0.2610610000
$end

$rem
BASIS  =  6-311++G(d,p)
GUI  =  2
JOB_TYPE  =  SP
METHOD  =  B3LYP
SCF_CONVERGENCE  = 8
SOLVENT_METHOD = sm12
$end

$smx
solvent dimethylformamide
charges CM5
$end

--------------------------------------------------------------

             Standard Nuclear Orientation (Angstroms)
    I     Atom           X                Y                Z
 ----------------------------------------------------------------
    1      C       4.9615910000    -3.5701580000    -3.0941430000
    2      O       4.1232950000    -2.6989240000    -2.3841640000
    3      C       4.5938230000    -2.1192800000    -1.2278190000
    4      C       5.8599980000    -2.3900960000    -0.7512440000
    5      C       6.3281450000    -1.7856330000     0.4498560000
    6      C       5.5144060000    -0.9284590000     1.1393000000
    7      C       4.2045570000    -0.6221920000     0.6832650000
    8      C       3.4160970000     0.2843950000     1.4605980000
    9      O       3.8798330000     0.8185160000     2.5615560000
   10      C       2.0968740000     0.5828920000     0.9936540000
   11      C       1.2715040000     1.4756020000     1.7610430000
   12      O       1.7686020000     2.0262210000     2.9089120000
   13      C      -0.0026020000     1.7714100000     1.3342070000
   14      C      -0.9192850000     2.6622940000     2.1339700000
   15      C      -1.4660820000     3.7472310000     1.2117700000
   16      O      -2.3768340000     4.6488730000     1.9158420000
   17      C      -2.2458930000     3.1296900000     0.0396460000
   18      C      -1.8887910000     1.6703880000    -0.3159700000
   19      O      -2.9720950000     0.8402000000     0.2857200000
   20      C      -2.9933560000    -0.4506780000    -0.2289370000
   21      C      -2.5925120000    -1.5025200000     0.8015520000
   22      C      -2.6897340000    -2.9157670000     0.1885500000
   23      N      -1.6552010000    -3.1996920000    -0.8247380000
   24      C      -4.0940790000    -3.1064050000    -0.4323880000
   25      O      -5.1055000000    -3.1703370000     0.5867300000
   26      C      -4.3971490000    -1.9569870000    -1.4071220000
   27      C      -5.7587110000    -2.0539380000    -2.0810780000
   28      O      -4.3505670000    -0.7225060000    -0.6810970000
   29      C      -0.5188620000     1.2328490000     0.1130170000
   30      C       0.2173170000     0.3156480000    -0.6530540000
   31      O      -0.2832280000    -0.2734970000    -1.7205250000
   32      C       1.5814680000    -0.0040620000    -0.2109570000
   33      C       2.3867320000    -0.8939780000    -0.9736380000
   34      O       1.8851590000    -1.4162460000    -2.1274600000
   35      C       3.6947230000    -1.2189150000    -0.5393450000
   36      C      -0.3279430000     4.6844850000     0.7294310000
   37      O      -0.2959570000     5.1622830000    -0.3899920000
   38      C       0.7348590000     5.1363720000     1.7292820000
   39      O       1.4858610000     6.2151790000     1.1992920000
   40      H       4.3863900000    -3.8944340000    -3.9638660000
   41      H       5.2439960000    -4.4528410000    -2.5009180000
   42      H       5.8824760000    -3.0746400000    -3.4361460000
   43      H       6.5130440000    -3.0682310000    -1.2852050000
   44      H       7.3295860000    -2.0140490000     0.8049700000
   45      H       5.8324290000    -0.4481030000     2.0568710000
   46      H       2.7288490000     1.6233650000     2.9634200000
   47      H      -0.3786000000     3.0894610000     2.9835380000
   48      H      -1.7777260000     2.1012560000     2.5297070000
   49      H      -2.0900070000     4.6750860000     2.8349850000
   50      H      -2.1039750000     3.7563100000    -0.8425740000
   51      H      -3.3042560000     3.1614090000     0.3040960000
   52      H      -1.9781720000     1.5340320000    -1.3961300000
   53      H      -2.3347760000    -0.5065820000    -1.1019500000
   54      H      -1.5711020000    -1.2992320000     1.1309610000
   55      H      -3.2493450000    -1.4008780000     1.6743090000
   56      H      -2.5990770000    -3.6644990000     0.9820630000
   57      H      -1.2995540000    -2.3428460000    -1.2547180000
   58      H      -0.8453740000    -3.6170220000    -0.3794640000
   59      H      -4.1207240000    -4.0657880000    -0.9547240000
   60      H      -5.2408530000    -2.2595840000     0.8806390000
   61      H      -3.6132370000    -1.9546060000    -2.1774010000
   62      H      -5.8207890000    -2.9684260000    -2.6795690000
   63      H      -5.9090150000    -1.1934190000    -2.7376720000
   64      H      -6.5605100000    -2.0728380000    -1.3396350000
   65      H       0.9440520000    -1.0366550000    -2.1777190000
   66      H       0.2521400000     5.4606860000     2.6594550000
   67      H       1.3789170000     4.2828310000     1.9780940000
   68      H       1.2347540000     6.2459930000     0.2610610000
 ----------------------------------------------------------------

   17   -1929.1322878245      4.38e-09  Convergence criterion met
 Total energy in the final basis set =    -1929.3706493842

                    Orbital Energies (a.u.)
 --------------------------------------------------------------

 Alpha MOs
 -- Occupied --
-19.1431 -19.1356 -19.1341 -19.1230 -19.1196 -19.1190 -19.1114 -19.0927
-19.0892 -19.0480 -19.0442 -14.2860 -10.2706 -10.2474 -10.2409 -10.2324
-10.2249 -10.2179 -10.2159 -10.2143 -10.2140 -10.2044 -10.1985 -10.1976
-10.1966 -10.1957 -10.1712 -10.1676 -10.1673 -10.1629 -10.1627 -10.1600
-10.1589 -10.1578 -10.1557 -10.1556 -10.1523 -10.1492 -10.1358  -1.0740
 -1.0616  -1.0538  -1.0314  -1.0222  -1.0191  -1.0127  -1.0117  -0.9939
 -0.9567  -0.9506  -0.8823  -0.8460  -0.8353  -0.8052  -0.7744  -0.7655
 -0.7584  -0.7519  -0.7446  -0.7302  -0.7149  -0.7010  -0.6917  -0.6861
 -0.6555  -0.6531  -0.6272  -0.6209  -0.6102  -0.6023  -0.5863  -0.5639
 -0.5628  -0.5563  -0.5487  -0.5335  -0.5256  -0.5150  -0.5111  -0.5042
 -0.4984  -0.4929  -0.4907  -0.4850  -0.4802  -0.4736  -0.4704  -0.4640
 -0.4622  -0.4610  -0.4590  -0.4485  -0.4443  -0.4397  -0.4364  -0.4270
 -0.4259  -0.4162  -0.4088  -0.4078  -0.4017  -0.3998  -0.3968  -0.3940
 -0.3910  -0.3885  -0.3851  -0.3828  -0.3812  -0.3769  -0.3710  -0.3698
 -0.3641  -0.3602  -0.3580  -0.3565  -0.3539  -0.3506  -0.3491  -0.3434
 -0.3370  -0.3343  -0.3284  -0.3240  -0.3225  -0.3197  -0.3129  -0.3092
 -0.3052  -0.3004  -0.2891  -0.2822  -0.2691  -0.2652  -0.2609  -0.2484
 -0.2449  -0.2372  -0.2286  -0.2274  -0.2205  -0.2112  -0.1764  -0.1246

          Ground-State Mulliken Net Atomic Charges

     Atom                 Charge (a.u.)
  ----------------------------------------
      1 C                     0.302176
      2 O                    -0.069183
      3 C                     0.238486
      4 C                     2.247613
      5 C                     0.147525
      6 C                    -0.246894
      7 C                    -1.440284
      8 C                    -1.872435
      9 O                    -0.409381
     10 C                    -1.051465
     11 C                    -0.831300
     12 O                    -0.248692
     13 C                    -1.125300
     14 C                     1.545218
     15 C                     1.564881
     16 O                    -0.081853
     17 C                     0.034632
     18 C                    -0.052326
     19 O                     0.082086
     20 C                     0.034349
     21 C                    -0.846556
     22 C                    -0.457331
     23 N                    -0.509367
     24 C                     0.846336
     25 O                    -0.113465
     26 C                    -0.623235
     27 C                     0.820253
     28 O                    -0.009214
     29 C                    -1.063536
     30 C                    -1.202282
     31 O                    -0.283470
     32 C                    -0.528322
     33 C                    -1.198489
     34 O                    -0.278273
     35 C                    -0.480720
     36 C                    -0.114407
     37 O                    -0.305320
     38 C                    -0.121679
     39 O                    -0.241557
     40 H                     0.307339
     41 H                     0.218167
     42 H                     0.219956
     43 H                     0.374857
     44 H                     0.321136
     45 H                     0.104086
     46 H                     0.384390
     47 H                     0.233999
     48 H                     0.193543
     49 H                     0.359903
     50 H                     0.162520
     51 H                     0.209315
     52 H                    -0.012456
     53 H                     0.193954
     54 H                    -0.239125
     55 H                     0.177523
     56 H                     0.244833
     57 H                     0.097832
     58 H                     0.238278
     59 H                     0.209338
     60 H                     0.264313
     61 H                    -0.038865
     62 H                     0.232059
     63 H                     0.186665
     64 H                     0.175246
     65 H                     0.480974
     66 H                     0.257415
     67 H                     0.121727
     68 H                     0.263851
  ----------------------------------------
  Sum of atomic charges =    -2.000000

                    Cartesian Multipole Moments
 -----------------------------------------------------------------
    Charge (ESU x 10^10)
                -9.6064
    Dipole Moment (Debye)
         X     -11.0677      Y      -5.4328      Z      -3.2997
       Tot      12.7631
    Quadrupole Moments (Debye-Ang)
        XX    -357.2880     XY     -15.2638     YY    -312.4143
        XZ     -26.0068     YZ      -9.7666     ZZ    -267.2992

 Total job time:  10026.80s(wall), 40751.33s(cpu)
        *  Thank you very much for using Q-Chem.  Have a nice day.  *
