 Gaussian 16, Revision A.03,
 Gaussian 16:  ES64L-G16RevA.03 25-Dec-2016

 ----------------------------------------------------------------------
 #P UB3LYP/6-311++G(d,p) nosym opt freq SCRF=(PCM,Solvent=n,n-DiMethylF
 ormamide)
 ----------------------------------------------------------------------

 -------
 Reduced
 -------
 Symbolic Z-matrix:
 Charge = -2 Multiplicity = 1

 SCF Done:  E(UB3LYP) =  -2020.00077756     A.U. after   24 cycles
 SCF Done:  E(UB3LYP) =  -2019.99806139     A.U. after   18 cycles
 SCF Done:  E(UB3LYP) =  -2020.00284879     A.U. after   17 cycles
 SCF Done:  E(UB3LYP) =  -2020.00402292     A.U. after   17 cycles
 SCF Done:  E(UB3LYP) =  -2020.00423022     A.U. after   19 cycles
 SCF Done:  E(UB3LYP) =  -2020.00508252     A.U. after   17 cycles
 SCF Done:  E(UB3LYP) =  -2020.00553198     A.U. after   17 cycles
 SCF Done:  E(UB3LYP) =  -2020.00535915     A.U. after   18 cycles
 SCF Done:  E(UB3LYP) =  -2020.00597682     A.U. after   18 cycles
 SCF Done:  E(UB3LYP) =  -2020.00606673     A.U. after   16 cycles
 SCF Done:  E(UB3LYP) =  -2020.00609225     A.U. after   12 cycles
 SCF Done:  E(UB3LYP) =  -2020.00609345     A.U. after   13 cycles
 SCF Done:  E(UB3LYP) =  -2020.00609399     A.U. after   11 cycles
 SCF Done:  E(UB3LYP) =  -2020.00609416     A.U. after   11 cycles
 SCF Done:  E(UB3LYP) =  -2020.00609420     A.U. after   10 cycles
 SCF Done:  E(UB3LYP) =  -2020.00609428     A.U. after   12 cycles
 SCF Done:  E(UB3LYP) =  -2020.00609432     A.U. after   11 cycles
 SCF Done:  E(UB3LYP) =  -2020.00609436     A.U. after   11 cycles
 SCF Done:  E(UB3LYP) =  -2020.00609438     A.U. after   11 cycles
 Optimization completed.
    -- Stationary point found.
 Normal termination of Gaussian 16 at Sun Feb 11 01:26:27 2024.

 ----------------------------------------------------------------------
 #P Geom=AllCheck Guess=TCheck SCRF=Check GenChk UB3LYP/6-311++G(d,p) F
 req
 ----------------------------------------------------------------------

 Structure from the checkpoint file:  "074-an.chk"
 -------
 Reduced
 -------
 Charge = -2 Multiplicity = 1

                          Input orientation:
 ---------------------------------------------------------------------
 Center     Atomic      Atomic             Coordinates (Angstroms)
 Number     Number       Type             X           Y           Z
 ---------------------------------------------------------------------
      1          6           0        0.605040    1.300929   -0.924065
      2          6           0       -0.705905    0.818526   -0.591910
      3          6           0       -0.987347   -0.506927   -0.196813
      4          6           0        0.089488   -1.435906    0.003875
      5          6           0        1.420960   -0.999843   -0.312268
      6          6           0        1.646760    0.336333   -0.707329
      7          8           0        0.823673    2.481302   -1.367128
      8          8           0       -0.138887   -2.647836    0.429627
      9         16           0        3.284082    0.971654   -1.043272
     10          6           0        3.443135    2.560712   -0.180810
     11          6           0        3.882290    3.676748   -0.884247
     12          6           0        3.269023    2.595994    1.200695
     13          6           0        3.520169    3.783399    1.885771
     14          6           0        4.142957    4.857169   -0.188899
     15          6           0        3.959753    4.912696    1.193091
     16          8           0        3.497804    1.224760   -2.491372
     17          8           0        4.308491    0.106430   -0.400753
     18          1           0        4.006171    3.620444   -1.957958
     19          1           0        2.935676    1.714729    1.735849
     20          1           0        4.483926    5.733411   -0.728524
     21          1           0        3.378204    3.823686    2.959640
     22          1           0        4.158948    5.833336    1.729691
     23         16           0       -1.985792    2.052993   -0.779641
     24          6           0       -1.425510    3.561634    0.059936
     25          6           0       -1.472503    4.774226   -0.618919
     26          6           0       -1.111130    3.500471    1.415340
     27          6           0       -0.817833    4.679989    2.097297
     28          6           0       -1.189379    5.950652    0.074353
     29          6           0       -0.859977    5.904889    1.429305
     30          8           0       -2.226351    2.398775   -2.204258
     31          8           0       -3.197596    1.645634   -0.020385
     32          1           0       -1.718357    4.790856   -1.672761
     33          1           0       -1.088523    2.548551    1.932593
     34          1           0       -0.563237    4.641847    3.150239
     35          1           0       -1.222519    6.901117   -0.446018
     36          1           0       -0.637059    6.821034    1.964229
     37          6           0       -2.375436   -1.068731   -0.008816
     38          6           0        2.489912   -2.062318   -0.234847
     39          1           0       -2.771016   -0.866810    0.993366
     40          1           0       -2.311806   -2.152045   -0.117209
     41          1           0       -3.094344   -0.660776   -0.717260
     42          1           0        1.997347   -3.033008   -0.300844
     43          1           0        3.028301   -2.035981    0.719683
     44          1           0        3.238740   -1.965496   -1.019155
 ---------------------------------------------------------------------

 SCF Done:  E(UB3LYP) =  -2020.00609438     A.U. after    2 cycles

 Alpha  occ. eigenvalues --  -89.03590 -89.03582 -19.10170 -19.10165 -19.09836
 Alpha  occ. eigenvalues --  -19.09820 -19.03941 -19.01891 -10.21018 -10.20604
 Alpha  occ. eigenvalues --  -10.20600 -10.18744 -10.18739 -10.18524 -10.18518
 Alpha  occ. eigenvalues --  -10.18345 -10.18342 -10.18298 -10.18296 -10.18251
 Alpha  occ. eigenvalues --  -10.18248 -10.18185 -10.17276 -10.17269 -10.16462
 Alpha  occ. eigenvalues --  -10.16457 -10.14036 -10.14024  -8.09964  -8.09956
 Alpha  occ. eigenvalues --   -6.06252  -6.06244  -6.06145  -6.06138  -6.06038
 Alpha  occ. eigenvalues --   -6.06031  -1.08947  -1.08913  -0.98269  -0.98223
 Alpha  occ. eigenvalues --   -0.96614  -0.93451  -0.87051  -0.87039  -0.81659
 Alpha  occ. eigenvalues --   -0.78398  -0.77192  -0.76451  -0.75871  -0.75834
 Alpha  occ. eigenvalues --   -0.71733  -0.71087  -0.67642  -0.63945  -0.63762
 Alpha  occ. eigenvalues --   -0.61771  -0.61740  -0.59862  -0.59082  -0.55475
 Alpha  occ. eigenvalues --   -0.55370  -0.52531  -0.52077  -0.49056  -0.48527
 Alpha  occ. eigenvalues --   -0.47424  -0.47122  -0.47037  -0.46471  -0.45113
 Alpha  occ. eigenvalues --   -0.45014  -0.44304  -0.43935  -0.43508  -0.43309
 Alpha  occ. eigenvalues --   -0.43254  -0.41748  -0.40866  -0.39234  -0.38986
 Alpha  occ. eigenvalues --   -0.38744  -0.38267  -0.37334  -0.37281  -0.37127
 Alpha  occ. eigenvalues --   -0.36706  -0.36216  -0.35711  -0.35688  -0.34107
 Alpha  occ. eigenvalues --   -0.34053  -0.32481  -0.32462  -0.31743  -0.31358
 Alpha  occ. eigenvalues --   -0.30952  -0.29831  -0.29312  -0.28585  -0.28001
 Alpha  occ. eigenvalues --   -0.26793  -0.26408  -0.26299  -0.26232  -0.24134
 Alpha  occ. eigenvalues --   -0.23324  -0.21563  -0.20080  -0.13859
 Alpha virt. eigenvalues --   -0.03750  -0.03364  -0.02449  -0.02002  -0.01516
 Alpha virt. eigenvalues --   -0.00564   0.00394   0.00835   0.01192   0.01841
 Alpha virt. eigenvalues --    0.02099   0.02667   0.02893   0.03516   0.03632

  Beta  occ. eigenvalues --  -89.03590 -89.03582 -19.10170 -19.10165 -19.09836
  Beta  occ. eigenvalues --  -19.09820 -19.03941 -19.01891 -10.21018 -10.20604
  Beta  occ. eigenvalues --  -10.20600 -10.18744 -10.18739 -10.18524 -10.18518
  Beta  occ. eigenvalues --  -10.18345 -10.18342 -10.18298 -10.18296 -10.18251
  Beta  occ. eigenvalues --  -10.18248 -10.18185 -10.17276 -10.17269 -10.16462
  Beta  occ. eigenvalues --  -10.16457 -10.14036 -10.14024  -8.09964  -8.09956
  Beta  occ. eigenvalues --   -6.06252  -6.06244  -6.06145  -6.06138  -6.06038
  Beta  occ. eigenvalues --   -6.06031  -1.08947  -1.08913  -0.98269  -0.98223
  Beta  occ. eigenvalues --   -0.96614  -0.93451  -0.87051  -0.87039  -0.81659
  Beta  occ. eigenvalues --   -0.78398  -0.77192  -0.76451  -0.75871  -0.75834
  Beta  occ. eigenvalues --   -0.71733  -0.71087  -0.67642  -0.63945  -0.63762
  Beta  occ. eigenvalues --   -0.61771  -0.61740  -0.59862  -0.59082  -0.55475
  Beta  occ. eigenvalues --   -0.55370  -0.52531  -0.52077  -0.49056  -0.48527
  Beta  occ. eigenvalues --   -0.47424  -0.47122  -0.47037  -0.46471  -0.45113
  Beta  occ. eigenvalues --   -0.45014  -0.44304  -0.43935  -0.43508  -0.43309
  Beta  occ. eigenvalues --   -0.43254  -0.41748  -0.40866  -0.39234  -0.38986
  Beta  occ. eigenvalues --   -0.38744  -0.38267  -0.37334  -0.37281  -0.37127
  Beta  occ. eigenvalues --   -0.36706  -0.36216  -0.35711  -0.35688  -0.34107
  Beta  occ. eigenvalues --   -0.34053  -0.32481  -0.32462  -0.31743  -0.31358
  Beta  occ. eigenvalues --   -0.30952  -0.29831  -0.29312  -0.28585  -0.28001
  Beta  occ. eigenvalues --   -0.26793  -0.26408  -0.26299  -0.26232  -0.24134
  Beta  occ. eigenvalues --   -0.23324  -0.21563  -0.20080  -0.13859
  Beta virt. eigenvalues --   -0.03750  -0.03364  -0.02449  -0.02002  -0.01516
  Beta virt. eigenvalues --   -0.00564   0.00394   0.00835   0.01192   0.01841
  Beta virt. eigenvalues --    0.02099   0.02667   0.02893   0.03516   0.03632

 Mulliken charges and spin densities:
               1          2
     1  C   -0.324044   0.000000
     2  C   -0.147760  -0.000000
     3  C    0.468501  -0.000000
     4  C   -1.177599   0.000000
     5  C    0.461142   0.000000
     6  C   -0.141424  -0.000000
     7  O   -0.294019   0.000000
     8  O   -0.652471   0.000000
     9  S    0.648003   0.000000
    10  C   -0.034145   0.000000
    11  C    0.027299  -0.000000
    12  C   -0.151034   0.000000
    13  C   -0.349017  -0.000000
    14  C   -0.406927   0.000000
    15  C   -0.424462  -0.000000
    16  O   -0.267772   0.000000
    17  O   -0.224044   0.000000
    18  H    0.239706   0.000000
    19  H    0.227804   0.000000
    20  H    0.213194   0.000000
    21  H    0.219160   0.000000
    22  H    0.193533  -0.000000
    23  S    0.653992   0.000000
    24  C   -0.055427   0.000000
    25  C    0.038750  -0.000000
    26  C   -0.151474  -0.000000
    27  C   -0.344099  -0.000000
    28  C   -0.400754  -0.000000
    29  C   -0.428622   0.000000
    30  O   -0.266320   0.000000
    31  O   -0.224800   0.000000
    32  H    0.239797  -0.000000
    33  H    0.226824  -0.000000
    34  H    0.218916   0.000000
    35  H    0.213164   0.000000
    36  H    0.193590   0.000000
    37  C   -0.524048   0.000000
    38  C   -0.525125  -0.000000
    39  H    0.182095  -0.000000
    40  H    0.156162   0.000000
    41  H    0.178147   0.000000
    42  H    0.156955   0.000000
    43  H    0.181223  -0.000000
    44  H    0.177429   0.000000
 Sum of Mulliken charges =  -2.00000   0.00000

 Dipole moment (field-independent basis, Debye):
    X=             -2.7675    Y=              1.7090    Z=             11.1534  Tot=             11.6180
 Quadrupole moment (field-independent basis, Debye-Ang):
   XX=           -258.3285   YY=           -204.1249   ZZ=           -202.6432
   XY=             13.6975   XZ=             13.6020   YZ=             30.8235

  Exact polarizability: 444.099  19.520 539.682  -4.079  -7.834 381.651
 Approx polarizability: 482.650  19.424 585.411  -7.262 -35.419 467.663

                      1                      2                      3
                      A                      A                      A
 Frequencies --     22.9244                27.6691                36.7269
 Red. masses --      5.7941                 6.9060                 5.3080
 Frc consts  --      0.0018                 0.0031                 0.0042
 IR Inten    --      0.2383                 0.9525                 3.0140

                      4                      5                      6
                      A                      A                      A
 Frequencies --     39.4595                46.8072                49.8593
 Red. masses --      4.3047                 3.8369                 3.7758
 Frc consts  --      0.0039                 0.0050                 0.0055
 IR Inten    --      3.6760                 1.0166                 0.6935

                      7                      8                      9
                      A                      A                      A
 Frequencies --     63.5439                81.0466               102.6746
 Red. masses --      4.3355                 9.7667                 3.5719
 Frc consts  --      0.0103                 0.0378                 0.0222
 IR Inten    --      2.0152                 0.3473                19.0828

                     10                     11                     12
                      A                      A                      A
 Frequencies --    119.3374               126.1618               147.7240
 Red. masses --      1.7804                 1.2592                 2.0873
 Frc consts  --      0.0149                 0.0118                 0.0268
 IR Inten    --      0.9582                 1.3362                 4.9807

                     13                     14                     15
                      A                      A                      A
 Frequencies --    153.2903               173.1895               194.6183
 Red. masses --      6.2350                 7.1452                 6.9943
 Frc consts  --      0.0863                 0.1263                 0.1561
 IR Inten    --      1.4837                 4.9778                17.4923

                     16                     17                     18
                      A                      A                      A
 Frequencies --    212.5105               214.6219               224.1770
 Red. masses --      6.6116                 5.6422                 7.5219
 Frc consts  --      0.1759                 0.1531                 0.2227
 IR Inten    --     20.7151                 1.3929                 1.4186

                     19                     20                     21
                      A                      A                      A
 Frequencies --    239.5329               257.2236               271.7040
 Red. masses --      5.7794                12.2058                11.2680
 Frc consts  --      0.1954                 0.4758                 0.4901
 IR Inten    --      3.7309                 2.3232                19.6800

                     22                     23                     24
                      A                      A                      A
 Frequencies --    281.2842               306.4555               307.8103
 Red. masses --      7.1834                 7.4295                 7.8366
 Frc consts  --      0.3349                 0.4111                 0.4375
 IR Inten    --      0.1609                 8.0413                 3.3586

                     25                     26                     27
                      A                      A                      A
 Frequencies --    331.9708               351.4609               364.1200
 Red. masses --      6.2173                 6.1346                 3.3167
 Frc consts  --      0.4037                 0.4465                 0.2591
 IR Inten    --      0.2319                 0.4150                15.7104

                     28                     29                     30
                      A                      A                      A
 Frequencies --    366.5821               398.7537               399.2839
 Red. masses --      4.8621                 8.2742                 4.4790
 Frc consts  --      0.3850                 0.7752                 0.4207
 IR Inten    --      3.9702                 2.5833                 2.2169

                     31                     32                     33
                      A                      A                      A
 Frequencies --    409.1560               411.0547               419.8084
 Red. masses --      2.9256                 2.9196                 5.7433
 Frc consts  --      0.2886                 0.2907                 0.5964
 IR Inten    --      4.8511                 3.7226                36.0523

                     34                     35                     36
                      A                      A                      A
 Frequencies --    475.2869               476.4275               491.9855
 Red. masses --      6.0729                 7.0780                 6.1878
 Frc consts  --      0.8083                 0.9466                 0.8825
 IR Inten    --     59.5034                16.8209                17.3186

                     37                     38                     39
                      A                      A                      A
 Frequencies --    502.0886               527.5544               537.9831
 Red. masses --      6.2055                11.6548                 6.2804
 Frc consts  --      0.9217                 1.9111                 1.0710
 IR Inten    --     13.5295               166.7355               353.8734

                     40                     41                     42
                      A                      A                      A
 Frequencies --    569.9585               571.5983               593.2586
 Red. masses --      9.3056                 6.0855                 7.9549
 Frc consts  --      1.7811                 1.1715                 1.6496
 IR Inten    --     31.8476                40.3784               400.2326

                     43                     44                     45
                      A                      A                      A
 Frequencies --    626.9526               627.2388               688.5847
 Red. masses --      6.4523                 6.4704                 6.7981
 Frc consts  --      1.4943                 1.4998                 1.8991
 IR Inten    --      0.0774                 2.9047                48.7575

                     46                     47                     48
                      A                      A                      A
 Frequencies --    699.0112               699.4461               702.1174
 Red. masses --      3.2156                 3.1575                 2.2811
 Frc consts  --      0.9257                 0.9101                 0.6625
 IR Inten    --    147.2042               102.2426                91.9760

                     49                     50                     51
                      A                      A                      A
 Frequencies --    706.5124               717.5422               730.1912
 Red. masses --      5.2655                 6.2317                 5.6097
 Frc consts  --      1.5486                 1.8904                 1.7622
 IR Inten    --     33.0407               108.1819                59.8379

                     52                     53                     54
                      A                      A                      A
 Frequencies --    742.9114               759.2808               760.6255
 Red. masses --      7.7041                 1.6339                 1.6959
 Frc consts  --      2.5052                 0.5550                 0.5781
 IR Inten    --     26.0124                11.9784                49.6337

                     55                     56                     57
                      A                      A                      A
 Frequencies --    852.6695               853.6143               870.8517
 Red. masses --      1.2514                 1.2508                 4.1982
 Frc consts  --      0.5361                 0.5370                 1.8758
 IR Inten    --      0.1772                 0.5315                36.2824

                     58                     59                     60
                      A                      A                      A
 Frequencies --    934.7185               935.2476               977.9825
 Red. masses --      1.3523                 1.3507                 2.4286
 Frc consts  --      0.6961                 0.6961                 1.3686
 IR Inten    --      2.3969                 0.2819                44.0364

                     61                     62                     63
                      A                      A                      A
 Frequencies --    986.3668               992.2990               993.2368
 Red. masses --      6.4381                 1.3794                 1.3758
 Frc consts  --      3.6905                 0.8002                 0.7997
 IR Inten    --     60.7550                 0.0449                 0.2988

                     64                     65                     66
                      A                      A                      A
 Frequencies --   1009.7121              1010.2138              1011.0838
 Red. masses --      1.3558                 1.3484                 4.9652
 Frc consts  --      0.8144                 0.8107                 2.9906
 IR Inten    --     14.8437                 3.5241               280.3503

                     67                     68                     69
                      A                      A                      A
 Frequencies --   1011.8338              1017.5979              1028.1998
 Red. masses --      5.0816                 4.1799                 5.0929
 Frc consts  --      3.0652                 2.5502                 3.1723
 IR Inten    --     26.9330               550.3176               123.6187

                     70                     71                     72
                      A                      A                      A
 Frequencies --   1036.4729              1037.9082              1044.9572
 Red. masses --      2.6149                 1.6911                 2.5809
 Frc consts  --      1.6551                 1.0733                 1.6604
 IR Inten    --      6.2467                11.8651                22.4479

                     73                     74                     75
                      A                      A                      A
 Frequencies --   1045.0382              1047.6788              1091.2982
 Red. masses --      1.7824                 2.1852                 3.3338
 Frc consts  --      1.1469                 1.4132                 2.3393
 IR Inten    --     75.4120                73.3523               147.0410

                     76                     77                     78
                      A                      A                      A
 Frequencies --   1093.6325              1094.6274              1098.8068
 Red. masses --      1.8221                 1.6743                 2.8834
 Frc consts  --      1.2840                 1.1820                 2.0512
 IR Inten    --     32.5783                 8.3281                45.7948

                     79                     80                     81
                      A                      A                      A
 Frequencies --   1099.7528              1158.8096              1159.2010
 Red. masses --      3.3250                16.3605                16.0788
 Frc consts  --      2.3694                12.9440                12.7298
 IR Inten    --    101.4926               547.9358               161.3797

                     82                     83                     84
                      A                      A                      A
 Frequencies --   1175.2108              1176.0352              1186.1763
 Red. masses --      1.1149                 1.1138                 5.3621
 Frc consts  --      0.9073                 0.9076                 4.4451
 IR Inten    --      0.9778                 0.8382               253.1994

                     85                     86                     87
                      A                      A                      A
 Frequencies --   1189.9883              1190.3964              1248.0590
 Red. masses --      1.1774                 1.1661                 4.9985
 Frc consts  --      0.9824                 0.9736                 4.5873
 IR Inten    --      2.7069                 2.1629                18.6633

                     88                     89                     90
                      A                      A                      A
 Frequencies --   1324.4968              1324.9471              1340.3101
 Red. masses --      3.0814                 3.1032                 1.7742
 Frc consts  --      3.1850                 3.2097                 1.8779
 IR Inten    --      6.5297                 4.3586                 2.0418

                     91                     92                     93
                      A                      A                      A
 Frequencies --   1340.4777              1351.0428              1356.8996
 Red. masses --      1.7871                 5.0574                 6.0694
 Frc consts  --      1.8920                 5.4390                 6.5840
 IR Inten    --     18.5150              1022.1822               350.0463

                     94                     95                     96
                      A                      A                      A
 Frequencies --   1393.7809              1399.7087              1430.9292
 Red. masses --      1.2569                 1.6564                 3.5762
 Frc consts  --      1.4386                 1.9120                 4.3143
 IR Inten    --     18.2699                 9.4757               852.4113

                     97                     98                     99
                      A                      A                      A
 Frequencies --   1439.9806              1449.9930              1471.3057
 Red. masses --      1.4679                 1.0685                 2.2584
 Frc consts  --      1.7933                 1.3236                 2.8804
 IR Inten    --      0.9688                19.4517                 1.7861

                    100                    101                    102
                      A                      A                      A
 Frequencies --   1472.0429              1472.8951              1481.5426
 Red. masses --      2.1308                 2.5694                 1.2125
 Frc consts  --      2.7205                 3.2841                 1.5681
 IR Inten    --     38.4699                30.1832               265.0435

                    103                    104                    105
                      A                      A                      A
 Frequencies --   1486.7220              1505.4870              1505.7987
 Red. masses --      1.0888                 2.0520                 2.0538
 Frc consts  --      1.4179                 2.7401                 2.7437
 IR Inten    --     34.4138                10.5203                12.4951

                    106                    107                    108
                      A                      A                      A
 Frequencies --   1566.3848              1618.5365              1618.7636
 Red. masses --      6.5441                 5.4646                 5.4641
 Frc consts  --      9.4601                 8.4344                 8.4360
 IR Inten    --     93.0071                 2.8200                 3.1561

                    109                    110                    111
                      A                      A                      A
 Frequencies --   1622.8695              1623.2897              3013.9993
 Red. masses --      5.9349                 5.9344                 1.0516
 Frc consts  --      9.2094                 9.2134                 5.6286
 IR Inten    --      1.3095                 0.8677               128.6768

                    112                    113                    114
                      A                      A                      A
 Frequencies --   3015.3006              3078.5279              3080.3533
 Red. masses --      1.0510                 1.0823                 1.0807
 Frc consts  --      5.6301                 6.0433                 6.0416
 IR Inten    --     55.9626                51.6710                43.8594

                    115                    116                    117
                      A                      A                      A
 Frequencies --   3126.2502              3128.1532              3167.8788
 Red. masses --      1.1017                 1.1017                 1.0860
 Frc consts  --      6.3442                 6.3516                 6.4210
 IR Inten    --     17.2945                19.0317                 0.2643

                    118                    119                    120
                      A                      A                      A
 Frequencies --   3167.9667              3176.3792              3176.5001
 Red. masses --      1.0860                 1.0889                 1.0888
 Frc consts  --      6.4213                 6.4727                 6.4731
 IR Inten    --      0.4610                 4.3603                20.9137

                    121                    122                    123
                      A                      A                      A
 Frequencies --   3185.1478              3185.3626              3193.0049
 Red. masses --      1.0927                 1.0927                 1.0968
 Frc consts  --      6.5317                 6.5323                 6.5882
 IR Inten    --     12.0734                27.1999                10.3710

                    124                    125                    126
                      A                      A                      A
 Frequencies --   3193.2347              3205.1574              3205.2602
 Red. masses --      1.0967                 1.0933                 1.0932
 Frc consts  --      6.5887                 6.6174                 6.6175
 IR Inten    --     27.1541                 7.4852                11.0160

 - Thermochemistry -
 -------------------
 Temperature   298.150 Kelvin.  Pressure   1.00000 Atm.
 Atom     1 has atomic number  6 and mass  12.00000

 Molecular mass:   416.03883 amu.
 Principal axes and moments of inertia in atomic units:
                           1         2         3
     Eigenvalues --  9677.15792********************
           X            0.97516   0.22104   0.01441
           Y           -0.21566   0.96226  -0.16597
           Z           -0.05055   0.15874   0.98603
 This molecule is an asymmetric top.
 Rotational symmetry number  1.
 Warning -- assumption of classical behavior for rotation
           may cause significant error
 Rotational temperatures (Kelvin)      0.00895     0.00841     0.00518
 Rotational constants (GHZ):           0.18649     0.17521     0.10788
 Zero-point vibrational energy     830899.0 (Joules/Mol)
                                  198.58962 (Kcal/Mol)
 Warning -- explicit consideration of  42 degrees of freedom as
           vibrations may cause significant error
 Vibrational temperatures:     32.98    39.81    52.84    56.77    67.35
          (Kelvin)             71.74    91.43   116.61   147.73   171.70
                              181.52   212.54   220.55   249.18   280.01
                              305.76   308.79   322.54   344.63   370.09
                              390.92   404.71   440.92   442.87   477.63
                              505.67   523.89   527.43   573.72   574.48
                              588.68   591.42   604.01   683.83   685.47
                              707.86   722.39   759.03   774.04   820.04
                              822.40   853.57   902.04   902.46   990.72
                             1005.72  1006.35  1010.19  1016.51  1032.38
                             1050.58  1068.88  1092.44  1094.37  1226.80
                             1228.16  1252.96  1344.85  1345.61  1407.10
                             1419.16  1427.70  1429.05  1452.75  1453.47
                             1454.72  1455.80  1464.10  1479.35  1491.25
                             1493.32  1503.46  1503.58  1507.38  1570.13
                             1573.49  1574.92  1580.94  1582.30  1667.27
                             1667.83  1690.87  1692.05  1706.64  1712.13
                             1712.71  1795.68  1905.66  1906.30  1928.41
                             1928.65  1943.85  1952.28  2005.34  2013.87
                             2058.79  2071.81  2086.22  2116.88  2117.94
                             2119.17  2131.61  2139.06  2166.06  2166.51
                             2253.68  2328.71  2329.04  2334.95  2335.55
                             4336.47  4338.34  4429.31  4431.94  4497.98
                             4500.71  4557.87  4558.00  4570.10  4570.28
                             4582.72  4583.03  4594.02  4594.35  4611.51
                             4611.65

 Zero-point correction=                           0.316473 (Hartree/Particle)
 Thermal correction to Energy=                    0.342288
 Thermal correction to Enthalpy=                  0.343232
 Thermal correction to Gibbs Free Energy=         0.259169
 Sum of electronic and zero-point Energies=          -2019.689622
 Sum of electronic and thermal Energies=             -2019.663806
 Sum of electronic and thermal Enthalpies=           -2019.662862
 Sum of electronic and thermal Free Energies=        -2019.746925

                     E (Thermal)             CV                S
                      KCal/Mol        Cal/Mol-Kelvin    Cal/Mol-Kelvin
 Total                  214.789             98.158            176.927
 Electronic               0.000              0.000              0.000
 Translational            0.889              2.981             43.967
 Rotational               0.889              2.981             35.765
 Vibrational            213.012             92.197             97.194
 Vibration     1          0.593              1.985              6.363
 Vibration     2          0.593              1.984              5.990
 Vibration     3          0.594              1.982              5.428
 Vibration     4          0.594              1.981              5.286
 Vibration     5          0.595              1.979              4.948
 Vibration     6          0.595              1.978              4.823
 Vibration     7          0.597              1.972              4.344
 Vibration     8          0.600              1.962              3.865
 Vibration     9          0.605              1.947              3.403
 Vibration    10          0.609              1.933              3.111
 Vibration    11          0.611              1.927              3.004
 Vibration    12          0.617              1.905              2.701
 Vibration    13          0.619              1.899              2.631
 Vibration    14          0.627              1.875              2.401
 Vibration    15          0.635              1.847              2.183
 Vibration    16          0.644              1.822              2.022
 Vibration    17          0.645              1.819              2.004
 Vibration    18          0.649              1.804              1.925
 Vibration    19          0.657              1.780              1.806
 Vibration    20          0.667              1.751              1.681
 Vibration    21          0.675              1.725              1.585
 Vibration    22          0.681              1.708              1.526
 Vibration    23          0.697              1.661              1.381
 Vibration    24          0.698              1.659              1.374
 Vibration    25          0.714              1.612              1.250
 Vibration    26          0.728              1.572              1.160
 Vibration    27          0.738              1.546              1.104
 Vibration    28          0.739              1.541              1.094
 Vibration    29          0.765              1.473              0.967
 Vibration    30          0.765              1.472              0.965
 Vibration    31          0.774              1.450              0.930
 Vibration    32          0.775              1.446              0.923
 Vibration    33          0.782              1.427              0.893
 Vibration    34          0.832              1.305              0.723
 Vibration    35          0.833              1.302              0.720
 Vibration    36          0.848              1.268              0.678
 Vibration    37          0.857              1.245              0.653
 Vibration    38          0.883              1.189              0.593
 Vibration    39          0.893              1.166              0.570
 Vibration    40          0.926              1.096              0.504
 Vibration    41          0.928              1.093              0.501
 Vibration    42          0.951              1.046              0.461

                           ! Non-Optimized Parameters !
 Normal termination of Gaussian 16 at Sun Feb 11 12:24:45 2024.
