 Gaussian 16, Revision A.03,
 Gaussian 16:  ES64L-G16RevA.03 25-Dec-2016

 ----------------------------------------------------------------------
 #P UB3LYP/6-311++G(d,p) nosym opt freq SCRF=(PCM,Solvent=n,n-DiMethylF
 ormamide)
 ----------------------------------------------------------------------

 -------
 Reduced
 -------
 Symbolic Z-matrix:
 Charge = -2 Multiplicity = 1

 SCF Done:  E(UB3LYP) =  -954.270315057     A.U. after   15 cycles
 SCF Done:  E(UB3LYP) =  -954.270968896     A.U. after   12 cycles
 SCF Done:  E(UB3LYP) =  -954.270685039     A.U. after   12 cycles
 SCF Done:  E(UB3LYP) =  -954.271133521     A.U. after   12 cycles
 SCF Done:  E(UB3LYP) =  -954.271144560     A.U. after   12 cycles
 SCF Done:  E(UB3LYP) =  -954.271215828     A.U. after   11 cycles
 SCF Done:  E(UB3LYP) =  -954.271240832     A.U. after   10 cycles
 SCF Done:  E(UB3LYP) =  -954.271239149     A.U. after   10 cycles
 SCF Done:  E(UB3LYP) =  -954.271239507     A.U. after    9 cycles
 SCF Done:  E(UB3LYP) =  -954.271240570     A.U. after   10 cycles
 SCF Done:  E(UB3LYP) =  -954.271241993     A.U. after    9 cycles
 SCF Done:  E(UB3LYP) =  -954.271242206     A.U. after    8 cycles
 Optimization completed.
    -- Stationary point found.
 Normal termination of Gaussian 16 at Sat Feb 10 23:28:03 2024.

 ----------------------------------------------------------------------
 #P Geom=AllCheck Guess=TCheck SCRF=Check GenChk UB3LYP/6-311++G(d,p) F
 req
 ----------------------------------------------------------------------

 Structure from the checkpoint file:  "191-an.chk"
 -------
 Reduced
 -------
 Charge = -2 Multiplicity = 1

                          Input orientation:
 ---------------------------------------------------------------------
 Center     Atomic      Atomic             Coordinates (Angstroms)
 Number     Number       Type             X           Y           Z
 ---------------------------------------------------------------------
      1          6           0        4.883351   -2.932974   -0.298279
      2          6           0        5.639092   -2.079856   -1.052057
      3          6           0        5.087202   -0.854053   -1.512972
      4          6           0        3.534490   -2.620320    0.050676
      5          6           0        2.941378   -1.364556   -0.393959
      6          6           0        3.787135   -0.506972   -1.200390
      7          6           0        2.807786   -3.561165    0.833474
      8          6           0        1.463952   -3.243141    1.182685
      9          6           0        0.869501   -2.004212    0.760156
     10          6           0        1.594100   -1.044733   -0.026543
     11          6           0        0.685458   -4.166278    1.969798
     12          6           0       -0.612094   -3.865903    2.312959
     13          6           0       -0.495500   -1.730212    1.145347
     14          6           0       -1.205029   -2.640936    1.898338
     15          8           0        3.355008   -4.706160    1.232642
     16          8           0        0.984077    0.080836   -0.367551
     17          8           0        1.264145   -5.341031    2.365198
     18          1           0        5.285710   -3.872848    0.057853
     19          1           0        6.663992   -2.326941   -1.310580
     20          1           0        5.701027   -0.199491   -2.114909
     21          8           0        3.239725    0.666313   -1.647635
     22          1           0        2.222041   -5.274001    1.964320
     23          8           0       -1.068755   -0.558366    0.750342
     24          1           0       -2.229436   -2.411176    2.173719
     25          1           0       -1.182142   -4.574146    2.905972
     26          1           0       -0.279646   -0.100847    0.210714
     27          6           0        4.036900    1.534324   -2.443357
     28          1           0        3.401458    2.387986   -2.676267
     29          1           0        4.352204    1.053603   -3.375775
     30          1           0        4.923131    1.881090   -1.900937
 ---------------------------------------------------------------------

 SCF Done:  E(UB3LYP) =  -954.271242206     A.U. after    1 cycles

 Alpha  occ. eigenvalues --  -19.13832 -19.09262 -19.08760 -19.04176 -19.04119
 Alpha  occ. eigenvalues --  -10.22100 -10.21078 -10.19768 -10.19715 -10.19314
 Alpha  occ. eigenvalues --  -10.18438 -10.15403 -10.15304 -10.14741 -10.14708
 Alpha  occ. eigenvalues --  -10.14689 -10.14679 -10.14377 -10.13904 -10.13719
 Alpha  occ. eigenvalues --   -1.05313  -1.01038  -1.00773  -0.94604  -0.94243
 Alpha  occ. eigenvalues --   -0.83287  -0.81345  -0.76087  -0.74178  -0.71622
 Alpha  occ. eigenvalues --   -0.70242  -0.68310  -0.64840  -0.60981  -0.60612
 Alpha  occ. eigenvalues --   -0.55876  -0.54850  -0.52385  -0.50513  -0.48403
 Alpha  occ. eigenvalues --   -0.47493  -0.46710  -0.46045  -0.45843  -0.44333
 Alpha  occ. eigenvalues --   -0.42654  -0.41783  -0.40319  -0.39606  -0.38794
 Alpha  occ. eigenvalues --   -0.38054  -0.37351  -0.36978  -0.36869  -0.36379
 Alpha  occ. eigenvalues --   -0.35259  -0.33909  -0.33401  -0.32807  -0.32092
 Alpha  occ. eigenvalues --   -0.31885  -0.30929  -0.29816  -0.27301  -0.23540
 Alpha  occ. eigenvalues --   -0.22282  -0.22257  -0.21326  -0.21047  -0.18290
 Alpha  occ. eigenvalues --   -0.11711
 Alpha virt. eigenvalues --   -0.01747  -0.00294  -0.00011   0.00844   0.01205
 Alpha virt. eigenvalues --    0.02160   0.02397   0.03619   0.03813   0.03835
 Alpha virt. eigenvalues --    0.04262   0.04556   0.05828   0.05854   0.06525

  Beta  occ. eigenvalues --  -19.13832 -19.09262 -19.08760 -19.04176 -19.04119
  Beta  occ. eigenvalues --  -10.22100 -10.21078 -10.19768 -10.19715 -10.19314
  Beta  occ. eigenvalues --  -10.18438 -10.15403 -10.15304 -10.14741 -10.14708
  Beta  occ. eigenvalues --  -10.14689 -10.14679 -10.14377 -10.13904 -10.13719
  Beta  occ. eigenvalues --   -1.05313  -1.01038  -1.00773  -0.94604  -0.94243
  Beta  occ. eigenvalues --   -0.83287  -0.81345  -0.76087  -0.74178  -0.71622
  Beta  occ. eigenvalues --   -0.70242  -0.68310  -0.64840  -0.60981  -0.60612
  Beta  occ. eigenvalues --   -0.55876  -0.54850  -0.52385  -0.50513  -0.48403
  Beta  occ. eigenvalues --   -0.47493  -0.46710  -0.46045  -0.45843  -0.44333
  Beta  occ. eigenvalues --   -0.42654  -0.41783  -0.40319  -0.39606  -0.38794
  Beta  occ. eigenvalues --   -0.38054  -0.37351  -0.36978  -0.36869  -0.36379
  Beta  occ. eigenvalues --   -0.35259  -0.33909  -0.33401  -0.32807  -0.32092
  Beta  occ. eigenvalues --   -0.31885  -0.30929  -0.29816  -0.27301  -0.23540
  Beta  occ. eigenvalues --   -0.22282  -0.22257  -0.21326  -0.21047  -0.18290
  Beta  occ. eigenvalues --   -0.11711
  Beta virt. eigenvalues --   -0.01747  -0.00294  -0.00011   0.00844   0.01205
  Beta virt. eigenvalues --    0.02160   0.02397   0.03619   0.03813   0.03835
  Beta virt. eigenvalues --    0.04262   0.04556   0.05828   0.05854   0.06525

 Mulliken charges and spin densities:
               1          2
     1  C   -0.334287   0.000000
     2  C   -0.464380   0.000000
     3  C   -0.033881  -0.000000
     4  C    0.185942  -0.000000
     5  C    0.019058   0.000000
     6  C    0.021355   0.000000
     7  C   -0.287490   0.000000
     8  C    0.313479  -0.000000
     9  C    0.595761  -0.000000
    10  C   -0.311482   0.000000
    11  C   -0.280567  -0.000000
    12  C   -0.147421   0.000000
    13  C   -0.330168  -0.000000
    14  C   -0.222920   0.000000
    15  O   -0.677901  -0.000000
    16  O   -0.687897  -0.000000
    17  O   -0.509146   0.000000
    18  H    0.148843   0.000000
    19  H    0.172280  -0.000000
    20  H    0.163239  -0.000000
    21  O   -0.176482   0.000000
    22  H    0.387343   0.000000
    23  O   -0.542695  -0.000000
    24  H    0.159437   0.000000
    25  H    0.161528  -0.000000
    26  H    0.451522   0.000000
    27  C   -0.269343   0.000000
    28  H    0.191451   0.000000
    29  H    0.151629  -0.000000
    30  H    0.153194  -0.000000
 Sum of Mulliken charges =  -2.00000  -0.00000

 Dipole moment (field-independent basis, Debye):
    X=            -13.8434    Y=             25.2080    Z=             -8.3871  Tot=             29.9571
 Quadrupole moment (field-independent basis, Debye-Ang):
   XX=           -173.1312   YY=           -232.3893   ZZ=           -139.9226
   XY=             58.4661   XZ=            -13.9641   YZ=             33.5886

  Exact polarizability: 484.954  10.643 358.298-129.803-107.009 273.201
 Approx polarizability: 546.209 -10.055 424.143-134.938-123.436 303.141

                      1                      2                      3
                      A                      A                      A
 Frequencies --     48.9434                62.9598                92.1127
 Red. masses --      4.4619                 5.9134                 6.7816
 Frc consts  --      0.0063                 0.0138                 0.0339
 IR Inten    --      2.3590                10.0376                 0.5627

                      4                      5                      6
                      A                      A                      A
 Frequencies --    130.8405               135.3728               161.6780
 Red. masses --      5.8189                 8.0254                 4.8298
 Frc consts  --      0.0587                 0.0867                 0.0744
 IR Inten    --      0.5198                 0.6014                 4.9274

                      7                      8                      9
                      A                      A                      A
 Frequencies --    167.5813               207.6425               264.4894
 Red. masses --      5.6770                 3.2127                 5.0363
 Frc consts  --      0.0939                 0.0816                 0.2076
 IR Inten    --      3.6156                 0.1445                 1.2048

                     10                     11                     12
                      A                      A                      A
 Frequencies --    269.3183               301.3750               316.4497
 Red. masses --      1.7086                 2.6304                 4.3173
 Frc consts  --      0.0730                 0.1408                 0.2547
 IR Inten    --      0.3218                 0.1843                35.7569

                     13                     14                     15
                      A                      A                      A
 Frequencies --    343.5958               372.5355               386.6399
 Red. masses --      4.9427                 7.3608                 7.5037
 Frc consts  --      0.3438                 0.6019                 0.6609
 IR Inten    --     41.6722                 0.0679                 3.7897

                     16                     17                     18
                      A                      A                      A
 Frequencies --    389.3465               420.6924               440.0430
 Red. masses --      8.0416                 6.6618                 8.1043
 Frc consts  --      0.7182                 0.6947                 0.9246
 IR Inten    --     32.5242               144.9274                54.9838

                     19                     20                     21
                      A                      A                      A
 Frequencies --    452.1779               481.1725               488.8246
 Red. masses --     11.4123                10.6244                 4.1970
 Frc consts  --      1.3748                 1.4493                 0.5909
 IR Inten    --     96.8592                 4.7172                 0.2892

                     22                     23                     24
                      A                      A                      A
 Frequencies --    525.8095               528.4403               542.2856
 Red. masses --      8.4392                 6.1048                 4.5781
 Frc consts  --      1.3747                 1.0044                 0.7932
 IR Inten    --     47.4658                21.0214                10.3274

                     25                     26                     27
                      A                      A                      A
 Frequencies --    596.0178               611.4451               625.2008
 Red. masses --      6.2417                 3.7764                 4.5629
 Frc consts  --      1.3064                 0.8319                 1.0508
 IR Inten    --     28.7926                20.3708                 9.8315

                     28                     29                     30
                      A                      A                      A
 Frequencies --    640.2544               701.7997               710.4301
 Red. masses --      4.3388                 6.4991                 2.4742
 Frc consts  --      1.0479                 1.8859                 0.7358
 IR Inten    --      4.5325               107.3745                21.8778

                     31                     32                     33
                      A                      A                      A
 Frequencies --    734.3295               748.5823               751.5080
 Red. masses --      5.7729                 7.0922                 1.9720
 Frc consts  --      1.8341                 2.3416                 0.6562
 IR Inten    --      0.3480               111.7100                98.2671

                     34                     35                     36
                      A                      A                      A
 Frequencies --    794.0356               799.6579               807.9678
 Red. masses --      1.7745                 5.9692                 7.9593
 Frc consts  --      0.6592                 2.2489                 3.0613
 IR Inten    --     82.4914                28.1814               107.4679

                     37                     38                     39
                      A                      A                      A
 Frequencies --    833.3319               850.1551               880.2658
 Red. masses --      1.5258                 1.3650                 7.5028
 Frc consts  --      0.6243                 0.5813                 3.4253
 IR Inten    --      0.3683                 0.1176                64.3622

                     40                     41                     42
                      A                      A                      A
 Frequencies --    934.9191               963.4951               968.3922
 Red. masses --      7.4531                 1.2643                 6.1252
 Frc consts  --      3.8383                 0.6915                 3.3843
 IR Inten    --    431.2339                 2.5586               265.8114

                     43                     44                     45
                      A                      A                      A
 Frequencies --   1022.0495              1036.9538              1067.2412
 Red. masses --      1.0484                 3.3725                 5.6210
 Frc consts  --      0.6452                 2.1366                 3.7722
 IR Inten    --    125.7767                51.4241               513.1026

                     46                     47                     48
                      A                      A                      A
 Frequencies --   1087.1233              1088.6766              1115.9310
 Red. masses --      1.0491                 1.9371                 1.9315
 Frc consts  --      0.7305                 1.3527                 1.4172
 IR Inten    --    124.9138               301.7185               442.5210

                     49                     50                     51
                      A                      A                      A
 Frequencies --   1157.5161              1161.8644              1174.7312
 Red. masses --      1.3795                 1.2795                 4.7417
 Frc consts  --      1.0890                 1.0177                 3.8553
 IR Inten    --     52.9365                 1.4480                 8.4709

                     52                     53                     54
                      A                      A                      A
 Frequencies --   1198.2381              1221.5739              1234.2852
 Red. masses --      1.6847                 4.0693                 2.4251
 Frc consts  --      1.4252                 3.5777                 2.1768
 IR Inten    --     75.6758               276.4115                96.1968

                     55                     56                     57
                      A                      A                      A
 Frequencies --   1242.0735              1253.0476              1270.8430
 Red. masses --      2.8921                 3.8086                 4.4614
 Frc consts  --      2.6288                 3.5233                 4.2453
 IR Inten    --    150.5923               100.3409               231.2861

                     58                     59                     60
                      A                      A                      A
 Frequencies --   1304.8630              1333.3707              1356.8234
 Red. masses --      2.9552                 2.9103                 7.5676
 Frc consts  --      2.9646                 3.0485                 8.2083
 IR Inten    --   1138.0667               225.3918               157.8275

                     61                     62                     63
                      A                      A                      A
 Frequencies --   1367.4230              1412.3025              1437.6464
 Red. masses --      3.6190                 5.9718                 4.1215
 Frc consts  --      3.9870                 7.0180                 5.0189
 IR Inten    --    836.5759                27.1313               640.2339

                     64                     65                     66
                      A                      A                      A
 Frequencies --   1455.8372              1472.5904              1480.7759
 Red. masses --      2.2511                 1.4004                 1.0462
 Frc consts  --      2.8110                 1.7892                 1.3516
 IR Inten    --    291.1123                86.1541                10.7052

                     67                     68                     69
                      A                      A                      A
 Frequencies --   1496.7080              1507.9723              1540.5517
 Red. masses --      1.1111                 3.6459                 3.7905
 Frc consts  --      1.4665                 4.8847                 5.3003
 IR Inten    --     31.9753               164.8565               346.3059

                     70                     71                     72
                      A                      A                      A
 Frequencies --   1561.1510              1588.0457              1616.8933
 Red. masses --      2.7963                 3.0385                 5.2642
 Frc consts  --      4.0153                 4.5148                 8.1086
 IR Inten    --     97.0790               559.6489                25.2569

                     73                     74                     75
                      A                      A                      A
 Frequencies --   1625.7423              1659.9155              2151.5802
 Red. masses --      2.4231                 2.0977                 1.0896
 Frc consts  --      3.7734                 3.4054                 2.9719
 IR Inten    --    593.7117               124.1076              1204.2592

                     76                     77                     78
                      A                      A                      A
 Frequencies --   2376.5750              3000.2373              3056.6580
 Red. masses --      1.0872                 1.0340                 1.1057
 Frc consts  --      3.6178                 5.4841                 6.0867
 IR Inten    --   1680.3106               118.0072                68.9919

                     79                     80                     81
                      A                      A                      A
 Frequencies --   3122.9995              3148.7895              3151.6044
 Red. masses --      1.0992                 1.0864                 1.0876
 Frc consts  --      6.3162                 6.3462                 6.3645
 IR Inten    --     39.4981                62.7605                36.7935

                     82                     83                     84
                      A                      A                      A
 Frequencies --   3165.4385              3190.4522              3210.4767
 Red. masses --      1.0930                 1.0918                 1.0900
 Frc consts  --      6.4529                 6.5477                 6.6194
 IR Inten    --     56.1599                36.6104                23.8938

 - Thermochemistry -
 -------------------
 Temperature   298.150 Kelvin.  Pressure   1.00000 Atm.
 Atom     1 has atomic number  6 and mass  12.00000

 Molecular mass:   270.05282 amu.
 Principal axes and moments of inertia in atomic units:
                           1         2         3
     Eigenvalues --  3149.017026283.347619420.16325
           X            0.64443  -0.69158   0.32622
           Y            0.53901   0.71345   0.44772
           Z           -0.54237  -0.11269   0.83254
 This molecule is an asymmetric top.
 Rotational symmetry number  1.
 Warning -- assumption of classical behavior for rotation
           may cause significant error
 Rotational temperatures (Kelvin)      0.02751     0.01378     0.00919
 Rotational constants (GHZ):           0.57311     0.28723     0.19158
 Zero-point vibrational energy     559898.3 (Joules/Mol)
                                  133.81891 (Kcal/Mol)
 Warning -- explicit consideration of  26 degrees of freedom as
           vibrations may cause significant error
 Vibrational temperatures:     70.42    90.59   132.53   188.25   194.77
          (Kelvin)            232.62   241.11   298.75   380.54   387.49
                              433.61   455.30   494.36   536.00   556.29
                              560.18   605.28   633.12   650.58   692.30
                              703.31   756.52   760.31   780.23   857.54
                              879.73   899.52   921.18  1009.73  1022.15
                             1056.54  1077.04  1081.25  1142.44  1150.53
                             1162.49  1198.98  1223.18  1266.51  1345.14
                             1386.25  1393.30  1470.50  1491.95  1535.52
                             1564.13  1566.36  1605.58  1665.41  1671.66
                             1690.18  1724.00  1757.57  1775.86  1787.07
                             1802.86  1828.46  1877.41  1918.42  1952.17
                             1967.42  2031.99  2068.45  2094.63  2118.73
                             2130.51  2153.43  2169.64  2216.51  2246.15
                             2284.84  2326.35  2339.08  2388.25  3095.64
                             3419.36  4316.67  4397.85  4493.30  4530.41
                             4534.46  4554.36  4590.35  4619.16

 Zero-point correction=                           0.213254 (Hartree/Particle)
 Thermal correction to Energy=                    0.228687
 Thermal correction to Enthalpy=                  0.229631
 Thermal correction to Gibbs Free Energy=         0.171004
 Sum of electronic and zero-point Energies=           -954.057988
 Sum of electronic and thermal Energies=              -954.042555
 Sum of electronic and thermal Enthalpies=            -954.041611
 Sum of electronic and thermal Free Energies=         -954.100238

                     E (Thermal)             CV                S
                      KCal/Mol        Cal/Mol-Kelvin    Cal/Mol-Kelvin
 Total                  143.503             62.318            123.391
 Electronic               0.000              0.000              0.000
 Translational            0.889              2.981             42.679
 Rotational               0.889              2.981             33.588
 Vibrational            141.726             56.357             47.124
 Vibration     1          0.595              1.978              4.860
 Vibration     2          0.597              1.972              4.362
 Vibration     3          0.602              1.955              3.615
 Vibration     4          0.612              1.922              2.934
 Vibration     5          0.613              1.918              2.868
 Vibration     6          0.622              1.889              2.530
 Vibration     7          0.624              1.882              2.462
 Vibration     8          0.641              1.829              2.064
 Vibration     9          0.671              1.738              1.632
 Vibration    10          0.674              1.730              1.601
 Vibration    11          0.693              1.671              1.409
 Vibration    12          0.703              1.642              1.328
 Vibration    13          0.722              1.588              1.195
 Vibration    14          0.744              1.529              1.069
 Vibration    15          0.755              1.499              1.013
 Vibration    16          0.757              1.493              1.003
 Vibration    17          0.783              1.425              0.890
 Vibration    18          0.800              1.383              0.826
 Vibration    19          0.811              1.356              0.789
 Vibration    20          0.837              1.292              0.707
 Vibration    21          0.845              1.275              0.687
 Vibration    22          0.881              1.193              0.597
 Vibration    23          0.883              1.187              0.591
 Vibration    24          0.897              1.157              0.560
 Vibration    25          0.954              1.040              0.457
 Vibration    26          0.971              1.008              0.430

                           ! Non-Optimized Parameters !
 Normal termination of Gaussian 16 at Sun Feb 11 01:11:01 2024.
