 Q-Chem 5.4, Q-Chem, Inc., Pleasanton, CA (2021)
 Q-Chem 5.4.0 for Intel X86 EM64T Linux

User input:
--------------------------------------------------------------
$molecule
-1 2
C                 -0.3225490000      3.7978000000     -0.1835920000
C                 -1.5265490000      3.2080280000     -0.5210210000
C                 -1.5567810000      1.8715090000     -0.9682200000
C                  0.8879710000      3.0776750000     -0.2800400000
C                  0.8595280000      1.7270270000     -0.7321680000
C                 -0.3777430000      1.1508550000     -1.0690650000
C                  2.1481370000      3.6959520000      0.0734830000
C                  3.3324460000      2.8790640000     -0.0588730000
C                  3.3400660000      1.5678950000     -0.4857540000
C                  2.0963630000      0.9261410000     -0.8539860000
O                  2.2879590000      4.8935630000      0.4880940000
O                  2.0585020000     -0.2650070000     -1.2597010000
H                 -0.2736540000      4.8239880000      0.1629470000
H                 -2.4502780000      3.7741040000     -0.4419770000
H                 -2.5029640000      1.4089600000     -1.2330530000
H                 -0.3711800000      0.1219310000     -1.4107340000
O                  4.4816460000      3.5285480000      0.2886140000
C                  4.6207190000      0.7818840000     -0.5986800000
C                  5.2339710000      0.8185090000     -2.0119150000
C                  6.5163480000     -0.0118430000     -2.1331680000
C                  7.1373490000      0.0142990000     -3.5346230000
C                  8.4192470000     -0.8173580000     -3.6603110000
H                  4.1421940000      4.4137910000      0.5482230000
H                  4.4049670000     -0.2606860000     -0.3434930000
H                  5.3520370000      1.1675220000      0.1190970000
H                  5.4447950000      1.8599070000     -2.2834400000
H                  4.4878030000      0.4475600000     -2.7226110000
H                  6.2987720000     -1.0516330000     -1.8546400000
H                  7.2548600000      0.3510520000     -1.4049560000
H                  7.3527340000      1.0540660000     -3.8144540000
H                  6.3988340000     -0.3480640000     -4.2615830000
H                  8.2037250000     -1.8569510000     -3.3799430000
H                  9.1580580000     -0.4548670000     -2.9331010000
C                  9.0382960000     -0.7919870000     -5.0626750000
H                  9.2543320000      0.2474000000     -5.3431670000
H                  8.2992910000     -1.1537520000     -5.7896440000
C                 10.3189640000     -1.6247810000     -5.1890300000
H                 10.1036240000     -2.6646780000     -4.9093420000
H                 11.0590600000     -1.2636640000     -4.4624420000
C                 10.9379350000     -1.5996570000     -6.5912940000
C                 12.2167170000     -2.4350950000     -6.7072160000
H                 11.1542480000     -0.5611840000     -6.8709880000
H                 10.1993390000     -1.9609640000     -7.3174590000
H                 12.9870840000     -2.0758390000     -6.0170030000
H                 12.6326780000     -2.3960730000     -7.7185760000
H                 12.0249390000     -3.4860380000     -6.4671600000
$end
$rem
MAX_SCF_CYCLES=200
BASIS  =  6-311++G(d,p)
GUI  =  2
JOB_TYPE  =  SP
SCF_CONVERGENCE = 6
METHOD  =  B3LYP
SOLVENT_METHOD = COSMO
$end
$solvent
dielectric 37.219
opticaldielectric 1.43
$end

--------------------------------------------------------------

             Standard Nuclear Orientation (Angstroms)
    I     Atom           X                Y                Z
 ----------------------------------------------------------------
    1      C       5.7713268710    -0.0860187927    -0.9156252378
    2      C       6.4027741666     1.1420863466    -0.9814843414
    3      C       5.7480439246     2.2983165278    -0.5106934801
    4      C       4.4703175102    -0.2027940714    -0.3799209537
    5      C       3.8068404511     0.9645931220     0.0959824875
    6      C       4.4708764446     2.2012094847     0.0175639925
    7      C       3.8099273286    -1.4890455388    -0.3113259192
    8      C       2.4797784719    -1.5073049586     0.2523961181
    9      C       1.8118894031    -0.3988837088     0.7286062860
   10      C       2.4437938836     0.9014743294     0.6653144646
   11      O       4.3097417958    -2.5933619024    -0.7067945622
   12      O       1.8661635147     1.9412073794     1.0778311503
   13      H       6.2542480095    -0.9893355783    -1.2710795526
   14      H       7.4039339232     1.2171188153    -1.3962306826
   15      H       6.2447640429     3.2626342489    -0.5627590319
   16      H       3.9433741871     3.0737594122     0.3861604775
   17      O       1.9195452974    -2.7516982783     0.2817453539
   18      C       0.4219969679    -0.5005389683     1.3017580170
   19      C      -0.6844816356    -0.2176165709     0.2671988895
   20      C      -2.0955132709    -0.2853824334     0.8614000475
   21      C      -3.2070629558    -0.0047582835    -0.1564944204
   22      C      -4.6201016411    -0.0693224704     0.4350006861
   23      H       2.6335547479    -3.3033903189    -0.1082624142
   24      H       0.3322281314     0.2311025155     2.1112416984
   25      H       0.2713389413    -1.4998606036     1.7229526682
   26      H      -0.5981795501    -0.9382705135    -0.5549277578
   27      H      -0.5131739084     0.7763465753    -0.1595909603
   28      H      -2.1726225931     0.4346563908     1.6870383767
   29      H      -2.2558207992    -1.2775026967     1.3056796346
   30      H      -3.1287227534    -0.7229826825    -0.9834333701
   31      H      -3.0460155281     0.9864195587    -0.6001298582
   32      H      -4.6980323157     0.6486101670     1.2622304557
   33      H      -4.7812378593    -1.0608666262     0.8787924270
   34      C      -5.7307176996     0.2133284389    -0.5833953932
   35      H      -5.6533393272    -0.5046856887    -1.4105235279
   36      H      -5.5690532486     1.2043609695    -1.0274734954
   37      C      -7.1434454600     0.1505401336     0.0081110416
   38      H      -7.2219321124     0.8688961049     0.8350251892
   39      H      -7.3064099368    -0.8404640692     0.4524430662
   40      C      -8.2540434389     0.4333610878    -1.0100662893
   41      C      -9.6616412909     0.3686948300    -0.4090966333
   42      H      -8.1768782752    -0.2845298819    -1.8359744637
   43      H      -8.0922002568     1.4234812965    -1.4537454116
   44      H      -9.8660420617    -0.6210211560     0.0123375437
   45      H     -10.4299487836     0.5747757313    -1.1605150110
   46      H      -9.7807857196     1.0999394170     0.3971122929
 ----------------------------------------------------------------

   14    -964.5182732012      4.95e-07  Convergence criterion met
 Total energy in the final basis set =     -964.5182732012
    6    -964.5990685888      9.94e-07  Convergence criterion met
 Total energy in the final basis set =     -964.5990685888

                    Orbital Energies (a.u.)
 --------------------------------------------------------------

 Alpha MOs
 -- Occupied --
-19.1445 -19.0889 -19.0770 -10.2254 -10.2234 -10.2225 -10.1755 -10.1733
-10.1720 -10.1711 -10.1708 -10.1693 -10.1634 -10.1575 -10.1567 -10.1551
-10.1549 -10.1547 -10.1544 -10.1543 -10.1539 -10.1511  -1.0646  -1.0026
 -0.9989  -0.8591  -0.8140  -0.8038  -0.7858  -0.7636  -0.7513  -0.7396
 -0.7102  -0.6803  -0.6593  -0.6276  -0.6151  -0.5936  -0.5753  -0.5709
 -0.5688  -0.5659  -0.5373  -0.5052  -0.4852  -0.4785  -0.4653  -0.4560
 -0.4522  -0.4389  -0.4335  -0.4281  -0.4262  -0.4206  -0.4176  -0.4089
 -0.4002  -0.3951  -0.3942  -0.3892  -0.3797  -0.3730  -0.3666  -0.3627
 -0.3520  -0.3453  -0.3448  -0.3406  -0.3365  -0.3331  -0.3246  -0.3213
 -0.3178  -0.3151  -0.3143  -0.2989  -0.2688  -0.2630  -0.2586  -0.2422
 -0.2284  -0.1533

 Beta MOs
 -- Occupied --
-19.1440 -19.0828 -19.0718 -10.2240 -10.2216 -10.2203 -10.1754 -10.1722
-10.1720 -10.1703 -10.1702 -10.1695 -10.1626 -10.1575 -10.1567 -10.1551
-10.1549 -10.1547 -10.1543 -10.1542 -10.1539 -10.1511  -1.0624  -0.9934
 -0.9885  -0.8567  -0.8120  -0.8028  -0.7848  -0.7623  -0.7491  -0.7388
 -0.7091  -0.6755  -0.6549  -0.6266  -0.6132  -0.5920  -0.5746  -0.5705
 -0.5676  -0.5649  -0.5355  -0.5029  -0.4830  -0.4778  -0.4642  -0.4553
 -0.4512  -0.4339  -0.4298  -0.4266  -0.4237  -0.4178  -0.4135  -0.4072
 -0.3970  -0.3944  -0.3927  -0.3794  -0.3778  -0.3685  -0.3647  -0.3576
 -0.3485  -0.3424  -0.3397  -0.3363  -0.3320  -0.3297  -0.3243  -0.3208
 -0.3177  -0.3150  -0.3141  -0.2982  -0.2577  -0.2517  -0.2494  -0.2373
 -0.2199

          Ground-State Mulliken Net Atomic Charges

     Atom                 Charge (a.u.)    Spin (a.u.)
  --------------------------------------------------------
      1 C                     0.019837       0.076184
      2 C                    -0.366447      -0.000736
      3 C                    -0.480330       0.072191
      4 C                     0.555646      -0.003549
      5 C                    -0.127335       0.056929
      6 C                     0.066284       0.004212
      7 C                    -0.903742       0.175309
      8 C                    -0.616395       0.056839
      9 C                     2.000155       0.053879
     10 C                    -0.718448       0.082649
     11 O                    -0.555056       0.222165
     12 O                    -0.482888       0.193051
     13 H                     0.180030      -0.004122
     14 H                     0.206543      -0.000598
     15 H                     0.199258      -0.005123
     16 H                     0.181654      -0.000305
     17 O                    -0.302375       0.016204
     18 C                    -0.399017       0.011067
     19 C                    -0.805036      -0.000370
     20 C                    -0.237480       0.000554
     21 C                     0.047821      -0.004561
     22 C                     0.017752      -0.001086
     23 H                     0.308059      -0.003440
     24 H                     0.203042       0.002486
     25 H                     0.220110      -0.000498
     26 H                     0.172192       0.002001
     27 H                     0.182376      -0.001616
     28 H                     0.121375       0.000438
     29 H                     0.119749      -0.000399
     30 H                     0.129786      -0.000043
     31 H                     0.128726      -0.000042
     32 H                     0.135709      -0.000001
     33 H                     0.135371      -0.000007
     34 C                    -0.174731      -0.000058
     35 H                     0.132409      -0.000004
     36 H                     0.132347       0.000003
     37 C                    -0.404587       0.000366
     38 H                     0.128899       0.000004
     39 H                     0.128757      -0.000012
     40 C                    -0.276778       0.000005
     41 C                    -0.721581       0.000028
     42 H                     0.136295       0.000000
     43 H                     0.136388      -0.000000
     44 H                     0.146041       0.000001
     45 H                     0.153498       0.000008
     46 H                     0.146102      -0.000003
  --------------------------------------------------------
  Sum of atomic charges =    -1.000020

                    Cartesian Multipole Moments
 -----------------------------------------------------------------
    Charge (ESU x 10^10)
                -4.8033
    Dipole Moment (Debye)
         X     -13.6968      Y       1.7178      Z      -1.4586
       Tot      13.8810
    Quadrupole Moments (Debye-Ang)
        XX    -186.7954     XY      16.6714     YY    -161.2980
        XZ       0.1278     YZ      -7.4784     ZZ    -145.5203

 Total job time:  251.87s(wall), 1910.26s(cpu)
        *  Thank you very much for using Q-Chem.  Have a nice day.  *
