 Q-Chem 5.4, Q-Chem, Inc., Pleasanton, CA (2021)
 Q-Chem 5.4.0 for Intel X86 EM64T Linux

User input:
--------------------------------------------------------------
$molecule
-1 2
C                 16.1749680000      2.8925640000      0.7186210000
C                 15.5501730000      1.8118970000      1.4447750000
C                 15.9595940000      1.4028840000      2.6867300000
C                 17.0812690000      2.0549730000      3.3489950000
C                 17.7239260000      3.1496700000      2.6297380000
C                 17.2969090000      3.5509170000      1.3801430000
O                 15.7637640000      3.2418110000     -0.4284850000
O                 17.4742210000      1.6804670000      4.4954760000
C                 17.9669080000      4.6840420000      0.6432950000
C                 18.8841430000      3.8302250000      3.3150820000
H                 14.7178940000      1.3242210000      0.9452240000
H                 17.9133590000      5.6245930000      1.2067820000
H                 17.4752780000      4.8258130000     -0.3199440000
H                 19.0318650000      4.4834240000      0.4689400000
H                 19.0491100000      3.3698870000      4.2896750000
H                 18.6985830000      4.9024240000      3.4582640000
H                 19.8076020000      3.7479350000      2.7273960000
C                 15.3072240000      0.2485980000      3.4301880000
C                 13.8592510000      0.0363260000      3.0997830000
C                 13.2545650000     -1.0349390000      2.5660550000
C                 11.7613850000     -1.0145580000      2.3042990000
C                 11.3865590000     -0.9339410000      0.8017740000
C                  9.9002270000     -0.9442580000      0.5815100000
C                  9.1187880000      0.0141540000      0.0626280000
C                  7.6215860000     -0.2006440000     -0.0414310000
C                  6.7873340000      0.6829430000      0.9199200000
C                  5.3081190000      0.4825880000      0.7444230000
C                  4.4116940000      0.0110190000      1.6229020000
C                  2.9525180000     -0.1083900000      1.2315220000
C                 13.9649400000     -2.3095400000      2.1776020000
C                  9.6227830000      1.3393060000     -0.4555440000
C                  4.7466790000     -0.4312540000      3.0272030000
C                  2.0121880000      0.8661820000      1.9846960000
C                  0.5713950000      0.6817490000      1.5973660000
C                 -0.2544680000      1.5436030000      0.9868140000
C                 -1.6803580000      1.1370670000      0.6720850000
C                 -1.9720010000      0.9608300000     -0.8396350000
C                 -3.4111400000      0.6160270000     -1.1049230000
C                 -3.9259510000     -0.5030130000     -1.6343280000
C                 -5.4261710000     -0.6458900000     -1.7966530000
C                 -6.0693490000     -1.6987630000     -0.8589950000
C                 -7.5480420000     -1.8400980000     -1.0916030000
C                 -8.5616290000     -1.5693680000     -0.2568260000
C                 -9.9938440000     -1.7720570000     -0.7096130000
C                -10.7933790000     -0.4577270000     -0.8961710000
C                -12.2221080000     -0.7117130000     -1.2898550000
C                -12.8528630000     -0.3863550000     -2.4272950000
C                  0.1249030000      2.9465740000      0.5788820000
C                 -3.1066980000     -1.6766470000     -2.1136480000
C                 -8.3933700000     -1.0713050000      1.1580970000
C                -12.2158210000      0.3600610000     -3.5741630000
C                -14.3092980000     -0.7582870000     -2.6215420000
C                -14.5480120000     -1.8569130000     -3.6880880000
C                -16.0096390000     -2.1494810000     -3.8855400000
C                -16.6822630000     -3.2831020000     -3.6407160000
C                -16.0550070000     -4.5529020000     -3.1187110000
C                -18.1739190000     -3.3528450000     -3.9001720000
C                -19.0380970000     -3.4525100000     -2.6179830000
C                -20.5043350000     -3.5754840000     -2.9275180000
C                -21.4975720000     -2.7273430000     -2.6289930000
C                -21.3281600000     -1.4301440000     -1.8785220000
C                -22.9197830000     -3.0273490000     -3.0372640000
H                 15.4127130000      0.4650840000      4.4998490000
H                 15.8939010000     -0.6631420000      3.2701080000
H                 13.2261350000      0.8956530000      3.3222160000
H                 11.3136370000     -0.1577660000      2.8167380000
H                 11.2951610000     -1.9150240000      2.7310470000
H                 11.8238140000     -1.7939200000      0.2794900000
H                 11.8536700000     -0.0446030000      0.3750000000
H                  9.4031470000     -1.8578260000      0.9121080000
H                  7.3860720000     -1.2500070000      0.1605330000
H                  7.2934340000      0.0022140000     -1.0706190000
H                  7.0204000000      1.7370850000      0.7269340000
H                  7.1042340000      0.4833200000      1.9458540000
H                  4.9343440000      0.7504100000     -0.2446440000
H                  2.6079810000     -1.1351850000      1.4179730000
H                  2.8457470000      0.0669060000      0.1569720000
H                 15.0337300000     -2.2692460000      2.3851520000
H                 13.8454180000     -2.5256270000      1.1095400000
H                 13.5467760000     -3.1676730000      2.7205800000
H                 10.7064740000      1.4323200000     -0.4058870000
H                  9.1968950000      2.1765980000      0.1082650000
H                  9.3211970000      1.4804710000     -1.5007340000
H                  5.8189660000     -0.4561820000      3.2176660000
H                  4.3484700000     -1.4352400000      3.2159790000
H                  4.2948230000      0.2304710000      3.7747780000
H                  2.3515670000      1.8887130000      1.8051960000
H                  2.1089990000      0.6921640000      3.0633170000
H                  0.1640800000     -0.2994000000      1.8441380000
H                 -2.3707810000      1.8921340000      1.0727340000
H                 -1.9150940000      0.1980390000      1.1817920000
H                 -1.2941390000      0.2043700000     -1.2409330000
H                 -1.7356090000      1.8965980000     -1.3605410000
H                 -4.1186340000      1.3910000000     -0.8079480000
H                 -5.6550290000     -0.9205060000     -2.8355520000
H                 -5.9079800000      0.3193650000     -1.6158610000
H                 -5.8471120000     -1.4283390000      0.1755910000
H                 -5.5937660000     -2.6713920000     -1.0342840000
H                 -7.8118580000     -2.2032420000     -2.0854460000
H                -10.5214100000     -2.3981760000      0.0229560000
H                -10.0052960000     -2.3217040000     -1.6552470000
H                -10.2767130000      0.1651160000     -1.6296600000
H                -10.7854960000      0.1024230000      0.0467620000
H                -12.8052930000     -1.2445980000     -0.5381410000
H                  1.1415470000      3.2125640000      0.8657290000
H                 -0.5553380000      3.6743070000      1.0374830000
H                  0.0424520000      3.0821410000     -0.5049000000
H                 -2.0336650000     -1.5131910000     -2.0209260000
H                 -3.3245750000     -1.8887650000     -3.1671830000
H                 -3.3509370000     -2.5866900000     -1.5552170000
H                 -7.3496020000     -0.9780700000      1.4558330000
H                 -8.8844570000     -1.7528920000      1.8628410000
H                 -8.8636400000     -0.0914070000      1.2929310000
H                -11.1816110000      0.6408830000     -3.3781770000
H                -12.7776940000      1.2763010000     -3.7912980000
H                -12.2271580000     -0.2374030000     -4.4919930000
H                -14.8770450000      0.1363550000     -2.9117110000
H                -14.7303970000     -1.1002670000     -1.6716980000
H                -13.9920580000     -2.7516340000     -3.3994100000
H                -14.1260300000     -1.5246900000     -4.6444080000
H                -16.5861290000     -1.3078800000     -4.2708490000
H                -14.9768170000     -4.4723100000     -2.9848640000
H                -16.2470510000     -5.3837610000     -3.8079710000
H                -16.4866300000     -4.8417180000     -2.1544490000
H                -18.3919980000     -4.2231020000     -4.5341990000
H                -18.4901470000     -2.4701180000     -4.4633790000
H                -18.8309680000     -2.5855680000     -1.9865810000
H                -18.7270650000     -4.3340230000     -2.0441770000
H                -20.7727960000     -4.4762100000     -3.4800050000
H                -20.2938130000     -1.2183470000     -1.6096950000
H                -21.9210880000     -1.4396990000     -0.9561070000
H                -21.6996920000     -0.5902380000     -2.4773500000
H                -22.9964640000     -3.9738590000     -3.5762470000
H                -23.3194360000     -2.2342370000     -3.6806580000
H                -23.5773830000     -3.0792680000     -2.1610690000
$end
$rem
MAX_SCF_CYCLES=200
BASIS  =  6-311++G(d,p)
GUI  =  2
JOB_TYPE  =  SP
METHOD  =  B3LYP
THRESH = 14
SOLVENT_METHOD = COSMO
SCF_GUESS = SADMO
SCF_ALGORITHM = DIIS_GDM
$end

$solvent
dielectric 37.219
opticaldielectric 1.43
$end

--------------------------------------------------------------

             Standard Nuclear Orientation (Angstroms)
    I     Atom           X                Y                Z
 ----------------------------------------------------------------
    1      C      16.5488891664    -1.5488047826     1.2039919403
    2      C      15.9140935164    -0.3565170262     0.6931162439
    3      C      16.4479192392     0.4111249142    -0.3084452172
    4      C      17.7213214918     0.0523809011    -0.9181330358
    5      C      18.3762926369    -1.1501287749    -0.4144630530
    6      C      17.8231726897    -1.9137352118     0.5934029455
    7      O      16.0200411051    -2.2328874978     2.1309573867
    8      O      18.2292113572     0.7591596678    -1.8409528239
    9      C      18.5069388420    -3.1559763623     1.1082977635
   10      C      19.6942000990    -1.5269121216    -1.0470049288
   11      H      14.9676145679    -0.0889383634     1.1542525314
   12      H      18.6446461861    -3.9033339409     0.3161395626
   13      H      17.9014671647    -3.5959004170     1.9017076944
   14      H      19.5051120759    -2.9356264791     1.5081437137
   15      H      19.9433148695    -0.8023427835    -1.8228256596
   16      H      19.6568963935    -2.5271002631    -1.4973119456
   17      H      20.5074980979    -1.5453771828    -0.3100324668
   18      C      15.7799744864     1.6767459759    -0.8210324974
   19      C      14.2847585687     1.6833365035    -0.6979934829
   20      C      13.4892969392     2.5166521125    -0.0117389175
   21      C      11.9865434365     2.3163405914    -0.0229329224
   22      C      11.4110646655     1.7929848926     1.3185207679
   23      C       9.9174565911     1.6341373280     1.2771945572
   24      C       9.1859673770     0.5152280774     1.3839869767
   25      C       7.6746901400     0.5838189280     1.2844043822
   26      C       7.0958826750    -0.0543674013    -0.0034613945
   27      C       5.5936654979    -0.0182350085    -0.0359628136
   28      C       4.7845581828     0.6136649469    -0.8983596219
   29      C       3.2803239610     0.5135138900    -0.7438261807
   30      C      13.9835310785     3.6801284903     0.8142098805
   31      C       9.7603848869    -0.8618842283     1.6123446495
   32      C       5.2647632664     1.4530667910    -2.0579670025
   33      C       2.5778346236    -0.2775232949    -1.8761031209
   34      C       1.0847038347    -0.3129511171    -1.7051357384
   35      C       0.2851448250    -1.3681732717    -1.4934110324
   36      C      -1.2086542559    -1.1695900826    -1.3302633149
   37      C      -1.7335174768    -1.4435441783     0.1018261484
   38      C      -3.2260497398    -1.2912418830     0.1994957336
   39      C      -3.9381089715    -0.4044838970     0.9095538061
   40      C      -5.4524007247    -0.4212342440     0.8458105476
   41      C      -6.0715640043     0.8021062485     0.1236631310
   42      C      -7.5746475014     0.7658290635     0.1299096373
   43      C      -8.4190501906     0.6662606814    -0.9067080430
   44      C      -9.9153003705     0.6306758925    -0.6673175121
   45      C     -10.5753904782    -0.7376691284    -0.9729912040
   46      C     -12.0656523000    -0.7073948984    -0.7755938655
   47      C     -12.8116412133    -1.3817534412     0.1110969198
   48      C       0.7620030230    -2.7980510280    -1.4114698329
   49      C      -3.3382511739     0.6448206009     1.8136946135
   50      C      -7.9920407908     0.5961300327    -2.3527819012
   51      C     -12.2642132343    -2.3704305528     1.1116496376
   52      C     -14.3140838189    -1.1849055030     0.1455254680
   53      C     -14.8298320746    -0.4475915921     1.4072131335
   54      C     -16.3286289653    -0.3280109230     1.4228706593
   55      C     -17.0859212843     0.7772748742     1.3748075961
   56      C     -16.5416389964     2.1841091567     1.3209054404
   57      C     -18.5973042293     0.6640171358     1.3854566587
   58      C     -19.2733982940     1.0547189306     0.0471763133
   59      C     -20.7731944083     0.9803010610     0.1237399439
   60      C     -21.6078533635     0.1796986927    -0.5525442760
   61      C     -21.1827061724    -0.8409332338    -1.5783087371
   62      C     -23.0991517602     0.2504431372    -0.3280509500
   63      H      16.0628775320     1.7754165775    -1.8757356553
   64      H      16.2276574024     2.5475201137    -0.3286731326
   65      H      13.7943395195     0.8767928278    -1.2436414070
   66      H      11.7197814717     1.6064966364    -0.8116813900
   67      H      11.4853559595     3.2640014182    -0.2700518432
   68      H      11.6657264851     2.5023772024     2.1156696252
   69      H      11.9118287282     0.8560369503     1.5687500997
   70      H       9.3705723745     2.5652980299     1.1195638005
   71      H       7.3505654367     1.6280168559     1.3292694158
   72      H       7.2274618392     0.0788034797     2.1521654591
   73      H       7.4194497322    -1.1008141336    -0.0585277976
   74      H       7.5319597838     0.4458303790    -0.8709027240
   75      H       5.1149209852    -0.5775618435     0.7688024243
   76      H       2.8494420000     1.5239041132    -0.7087544786
   77      H       3.0409213101     0.0382188242     0.2119810215
   78      H      15.0684513730     3.7765842973     0.7885797232
   79      H      13.6871139402     3.5805088692     1.8648993432
   80      H      13.5512325620     4.6231407838     0.4537597563
   81      H      10.8433182917    -0.8588784720     1.7252597121
   82      H       9.5202438894    -1.5371484682     0.7836893665
   83      H       9.3297993039    -1.3103686397     2.5160932855
   84      H       6.3430896304     1.6074651451    -2.0495782654
   85      H       4.7841176171     2.4383895297    -2.0402600992
   86      H       5.0052049930     0.9953081275    -3.0192207202
   87      H       3.0041542722    -1.2822638073    -1.9175284940
   88      H       2.8081840372     0.1969645470    -2.8378090694
   89      H       0.6061153441     0.6660226300    -1.7500662219
   90      H      -1.7418133756    -1.8307215875    -2.0273832478
   91      H      -1.4748720520    -0.1451530483    -1.6065469521
   92      H      -1.2129576957    -0.7821664671     0.7977900446
   93      H      -1.4676640834    -2.4678636696     0.3898843740
   94      H      -3.7886121348    -2.0015854166    -0.4073491209
   95      H      -5.8588569383    -0.4645646044     1.8656227313
   96      H      -5.7878314983    -1.3299070871     0.3375362760
   97      H      -5.6727223684     0.8477698876    -0.8920764010
   98      H      -5.7423146328     1.7189259366     0.6275967636
   99      H      -8.0192401036     0.8173167506     1.1243354974
  100      H     -10.4008726824     1.3964987193    -1.2875941875
  101      H     -10.1265822146     0.8924212959     0.3735071422
  102      H     -10.1010427347    -1.5013982924    -0.3528337614
  103      H     -10.3667863493    -1.0104831612    -2.0146291582
  104      H     -12.5923058067    -0.0295270569    -1.4481088308
  105      H       1.8332933005    -2.8993661075    -1.5807899447
  106      H       0.2440276539    -3.4161080569    -2.1546690260
  107      H       0.5405600840    -3.2361214190    -0.4322776354
  108      H      -2.2514126616     0.5916143363     1.8653298149
  109      H      -3.7287720015     0.5383527183     2.8327915188
  110      H      -3.6034243830     1.6544064468     1.4818878599
  111      H      -6.9125733539     0.6652393510    -2.4822619523
  112      H      -8.4522095229     1.4099406227    -2.9257988707
  113      H      -8.3210539347    -0.3385510592    -2.8193178360
  114      H     -11.1870298789    -2.5100246639     1.0276774096
  115      H     -12.7413457735    -3.3489404548     0.9804721791
  116      H     -12.4769251323    -2.0551321564     2.1387057399
  117      H     -14.8100177795    -2.1635287481     0.0883847325
  118      H     -14.6307496053    -0.6228826490    -0.7378382191
  119      H     -14.3457115372     0.5298401572     1.4637815560
  120      H     -14.5143638258    -1.0020138184     2.2994488935
  121      H     -16.8530175997    -1.2830110191     1.4685583523
  122      H     -15.4534233880     2.2220962856     1.3562258829
  123      H     -16.9260916898     2.7736165342     2.1617170137
  124      H     -16.8604003769     2.6984844359     0.4080398670
  125      H     -19.0039567407     1.3047787259     2.1797829473
  126      H     -18.8867816704    -0.3611996779     1.6335343188
  127      H     -18.8782696635     0.4156091627    -0.7456486419
  128      H     -18.9873592207     2.0813545512    -0.2121696930
  129      H     -21.2211470940     1.6693468960     0.8401021075
  130      H     -20.1029035928    -0.8941018790    -1.7132128724
  131      H     -21.6336103153    -0.6172926951    -2.5525647132
  132      H     -21.5366343303    -1.8390727409    -1.2945386313
  133      H     -23.3620022461     1.0009415002     0.4202308549
  134      H     -23.4925666585    -0.7173474177     0.0055823273
  135      H     -23.6251869465     0.4970907557    -1.2582675676
 ----------------------------------------------------------------

  109   -2218.8232152693      4.94e-06  Convergence criterion met
 Total energy in the final basis set =    -2218.8232152693
   13   -2218.9208418269      5.51e-06  Convergence criterion met
 Total energy in the final basis set =    -2218.9208418269

                    Orbital Energies (a.u.)
 --------------------------------------------------------------

 Alpha MOs
 -- Occupied --
-19.0748 -19.0746 -10.2147 -10.2143 -10.1744 -10.1721 -10.1720 -10.1720
-10.1718 -10.1717 -10.1717 -10.1710 -10.1692 -10.1673 -10.1645 -10.1643
-10.1642 -10.1641 -10.1640 -10.1639 -10.1639 -10.1639 -10.1639 -10.1638
-10.1637 -10.1636 -10.1636 -10.1635 -10.1631 -10.1629 -10.1629 -10.1623
-10.1611 -10.1579 -10.1577 -10.1576 -10.1576 -10.1575 -10.1575 -10.1574
-10.1574 -10.1573 -10.1573 -10.1573 -10.1572 -10.1572 -10.1570 -10.1569
-10.1566 -10.1563 -10.1556 -10.1554 -10.1517 -10.1496 -10.1494  -0.9970
 -0.9944  -0.8297  -0.8291  -0.8275  -0.8251  -0.8220  -0.8182  -0.8140
 -0.8093  -0.8048  -0.8015  -0.7838  -0.7738  -0.7667  -0.7584  -0.7494
 -0.7405  -0.7319  -0.7245  -0.7201  -0.7189  -0.7137  -0.6889  -0.6855
 -0.6849  -0.6841  -0.6828  -0.6808  -0.6777  -0.6731  -0.6674  -0.6630
 -0.6573  -0.6434  -0.6351  -0.6259  -0.6160  -0.6059  -0.5969  -0.5893
 -0.5834  -0.5801  -0.5571  -0.5394  -0.5203  -0.5199  -0.5186  -0.5168
 -0.5148  -0.5127  -0.5106  -0.5091  -0.5080  -0.4887  -0.4764  -0.4763
 -0.4751  -0.4747  -0.4738  -0.4718  -0.4689  -0.4646  -0.4612  -0.4529
 -0.4444  -0.4430  -0.4408  -0.4374  -0.4345  -0.4331  -0.4314  -0.4300
 -0.4292  -0.4276  -0.4269  -0.4218  -0.4171  -0.4153  -0.4136  -0.4125
 -0.4097  -0.4088  -0.4070  -0.4050  -0.4037  -0.4018  -0.4004  -0.3992
 -0.3990  -0.3970  -0.3934  -0.3921  -0.3908  -0.3893  -0.3880  -0.3842
 -0.3820  -0.3812  -0.3802  -0.3708  -0.3707  -0.3702  -0.3698  -0.3693
 -0.3690  -0.3680  -0.3673  -0.3669  -0.3660  -0.3647  -0.3638  -0.3628
 -0.3619  -0.3603  -0.3587  -0.3569  -0.3552  -0.3529  -0.3521  -0.3505
 -0.3462  -0.3448  -0.3403  -0.3368  -0.3344  -0.3338  -0.3324  -0.3315
 -0.3295  -0.3261  -0.3251  -0.3249  -0.3244  -0.3223  -0.3170  -0.3120
 -0.3080  -0.3056  -0.2726  -0.2506  -0.2492  -0.2473  -0.2451  -0.2424
 -0.2391  -0.2347  -0.2343  -0.2303  -0.2260  -0.2223  -0.2206  -0.1576

 Beta MOs
 -- Occupied --
-19.0682 -19.0681 -10.2130 -10.2124 -10.1744 -10.1721 -10.1720 -10.1720
-10.1718 -10.1717 -10.1717 -10.1710 -10.1692 -10.1660 -10.1645 -10.1643
-10.1642 -10.1641 -10.1640 -10.1639 -10.1639 -10.1639 -10.1638 -10.1637
-10.1636 -10.1636 -10.1635 -10.1631 -10.1631 -10.1629 -10.1623 -10.1618
-10.1612 -10.1579 -10.1577 -10.1576 -10.1576 -10.1575 -10.1575 -10.1574
-10.1574 -10.1573 -10.1573 -10.1573 -10.1572 -10.1572 -10.1570 -10.1569
-10.1566 -10.1563 -10.1556 -10.1554 -10.1508 -10.1496 -10.1495  -0.9854
 -0.9826  -0.8293  -0.8280  -0.8263  -0.8242  -0.8213  -0.8177  -0.8136
 -0.8091  -0.8046  -0.8014  -0.7825  -0.7737  -0.7666  -0.7582  -0.7493
 -0.7403  -0.7317  -0.7243  -0.7190  -0.7167  -0.7129  -0.6889  -0.6855
 -0.6849  -0.6841  -0.6828  -0.6808  -0.6776  -0.6729  -0.6669  -0.6608
 -0.6536  -0.6428  -0.6339  -0.6247  -0.6152  -0.6055  -0.5966  -0.5891
 -0.5834  -0.5800  -0.5538  -0.5353  -0.5203  -0.5198  -0.5186  -0.5167
 -0.5148  -0.5126  -0.5105  -0.5090  -0.5079  -0.4869  -0.4764  -0.4763
 -0.4751  -0.4747  -0.4738  -0.4716  -0.4686  -0.4643  -0.4611  -0.4494
 -0.4444  -0.4430  -0.4407  -0.4373  -0.4343  -0.4327  -0.4298  -0.4294
 -0.4279  -0.4268  -0.4240  -0.4180  -0.4163  -0.4153  -0.4136  -0.4124
 -0.4095  -0.4087  -0.4069  -0.4048  -0.4033  -0.4006  -0.4003  -0.3990
 -0.3985  -0.3958  -0.3924  -0.3899  -0.3889  -0.3879  -0.3868  -0.3827
 -0.3812  -0.3795  -0.3757  -0.3707  -0.3702  -0.3698  -0.3693  -0.3690
 -0.3680  -0.3673  -0.3669  -0.3659  -0.3646  -0.3636  -0.3624  -0.3619
 -0.3600  -0.3587  -0.3568  -0.3551  -0.3529  -0.3520  -0.3506  -0.3464
 -0.3429  -0.3413  -0.3375  -0.3347  -0.3336  -0.3334  -0.3320  -0.3314
 -0.3287  -0.3261  -0.3251  -0.3249  -0.3241  -0.3221  -0.3168  -0.3118
 -0.3079  -0.3055  -0.2507  -0.2492  -0.2470  -0.2445  -0.2419  -0.2397
 -0.2368  -0.2332  -0.2291  -0.2272  -0.2253  -0.2217  -0.2191

          Ground-State Mulliken Net Atomic Charges

     Atom                 Charge (a.u.)    Spin (a.u.)
  --------------------------------------------------------
      1 C                    -1.027520       0.118798
      2 C                    -0.625550       0.025554
      3 C                     0.893642       0.082432
      4 C                    -0.872717       0.130569
      5 C                     0.212035       0.032345
      6 C                     1.015845       0.114646
      7 O                    -0.531245       0.229268
      8 O                    -0.510894       0.239823
      9 C                    -0.464085       0.007356
     10 C                    -0.467630      -0.006044
     11 H                     0.150112      -0.008494
     12 H                     0.159084       0.003742
     13 H                     0.183494      -0.001755
     14 H                     0.158523       0.003646
     15 H                     0.191081      -0.001859
     16 H                     0.156980       0.002904
     17 H                     0.160092       0.002879
     18 C                    -0.351823       0.016291
     19 C                    -0.240057       0.000163
     20 C                     0.523640      -0.002485
     21 C                    -0.527409       0.000667
     22 C                    -0.317463       0.000007
     23 C                    -0.116294       0.000217
     24 C                     0.499475      -0.000105
     25 C                    -0.588480      -0.000036
     26 C                    -0.354672       0.000027
     27 C                    -0.365206      -0.000015
     28 C                     0.634971      -0.000003
     29 C                    -0.420420      -0.000001
     30 C                    -0.650144      -0.000677
     31 C                    -0.762388       0.000128
     32 C                    -0.720970      -0.000001
     33 C                    -0.390530       0.000000
     34 C                    -0.334333      -0.000001
     35 C                     0.545161       0.000001
     36 C                    -0.439094       0.000000
     37 C                    -0.298739      -0.000000
     38 C                    -0.322121       0.000000
     39 C                     0.487196       0.000000
     40 C                    -0.422462       0.000000
     41 C                    -0.309418      -0.000000
     42 C                    -0.321166      -0.000000
     43 C                     0.515721       0.000000
     44 C                    -0.455098      -0.000000
     45 C                    -0.285029       0.000000
     46 C                    -0.407031      -0.000000
     47 C                     0.542041       0.000000
     48 C                    -0.713864       0.000000
     49 C                    -0.733316       0.000000
     50 C                    -0.727204       0.000000
     51 C                    -0.725155       0.000000
     52 C                    -0.413154      -0.000000
     53 C                    -0.220540       0.000000
     54 C                    -0.206124       0.000000
     55 C                     0.453793      -0.000000
     56 C                    -0.766623      -0.000000
     57 C                    -0.594023      -0.000000
     58 C                    -0.270950       0.000000
     59 C                     0.007131       0.000000
     60 C                     0.281716      -0.000000
     61 C                    -0.702051       0.000000
     62 C                    -0.639690       0.000000
     63 H                     0.205356       0.000809
     64 H                     0.175107       0.009119
     65 H                     0.162392       0.000662
     66 H                     0.199546      -0.000215
     67 H                     0.138793      -0.000093
     68 H                     0.138420       0.000057
     69 H                     0.170362       0.000301
     70 H                     0.216842      -0.000001
     71 H                     0.164135       0.000001
     72 H                     0.147942      -0.000001
     73 H                     0.142116      -0.000003
     74 H                     0.150792       0.000003
     75 H                     0.212230       0.000001
     76 H                     0.160799       0.000000
     77 H                     0.172849       0.000000
     78 H                     0.136459      -0.000394
     79 H                     0.175283      -0.000059
     80 H                     0.172087       0.000050
     81 H                     0.121412      -0.000233
     82 H                     0.176792       0.000012
     83 H                     0.168340      -0.000002
     84 H                     0.136791      -0.000001
     85 H                     0.170550       0.000000
     86 H                     0.179797       0.000000
     87 H                     0.139926      -0.000000
     88 H                     0.140564       0.000000
     89 H                     0.193564      -0.000000
     90 H                     0.144306      -0.000000
     91 H                     0.182420       0.000000
     92 H                     0.148312      -0.000000
     93 H                     0.134068      -0.000000
     94 H                     0.201294      -0.000000
     95 H                     0.145650      -0.000000
     96 H                     0.180696       0.000000
     97 H                     0.144468      -0.000000
     98 H                     0.134682      -0.000000
     99 H                     0.202083       0.000000
    100 H                     0.147160       0.000000
    101 H                     0.177249       0.000000
    102 H                     0.141810       0.000000
    103 H                     0.134536      -0.000000
    104 H                     0.196276      -0.000000
    105 H                     0.136412       0.000000
    106 H                     0.169064       0.000000
    107 H                     0.174665      -0.000000
    108 H                     0.137305      -0.000000
    109 H                     0.169779       0.000000
    110 H                     0.174981       0.000000
    111 H                     0.137936      -0.000000
    112 H                     0.169624       0.000000
    113 H                     0.175172       0.000000
    114 H                     0.138977      -0.000000
    115 H                     0.170146       0.000000
    116 H                     0.174293       0.000000
    117 H                     0.140564      -0.000000
    118 H                     0.185584       0.000000
    119 H                     0.148881       0.000000
    120 H                     0.130382      -0.000000
    121 H                     0.216700       0.000000
    122 H                     0.135975      -0.000000
    123 H                     0.171203      -0.000000
    124 H                     0.176854       0.000000
    125 H                     0.144310      -0.000000
    126 H                     0.170935       0.000000
    127 H                     0.142630      -0.000000
    128 H                     0.131739       0.000000
    129 H                     0.203993      -0.000000
    130 H                     0.147553      -0.000000
    131 H                     0.153575      -0.000000
    132 H                     0.155891      -0.000000
    133 H                     0.158293      -0.000000
    134 H                     0.158590      -0.000000
    135 H                     0.154679      -0.000000
  --------------------------------------------------------
  Sum of atomic charges =    -1.000000

                    Cartesian Multipole Moments
 -----------------------------------------------------------------
    Charge (ESU x 10^10)
                -4.8032
    Dipole Moment (Debye)
         X     -81.3922      Y       3.3661      Z      -1.3042
       Tot      81.4722
    Quadrupole Moments (Debye-Ang)
        XX   -1729.4291     XY      52.0919     YY    -359.0187
        XZ       0.2427     YZ      18.5176     ZZ    -375.7418

 Total job time:  28792.00s(wall), 211293.40s(cpu)
        *  Thank you very much for using Q-Chem.  Have a nice day.  *
