 Q-Chem 5.4, Q-Chem, Inc., Pleasanton, CA (2021)
 Q-Chem 5.4.0 for Intel X86 EM64T Linux

User input:
--------------------------------------------------------------
$molecule
-2 1
C                 -2.9005220000      0.4002460000      0.5264370000
C                 -1.9162850000     -0.4134270000     -0.3393020000
C                 -2.2691510000     -0.3315370000     -1.8390370000
C                 -0.4452810000     -0.1674340000     -0.0231330000
C                  0.2673970000      1.0267980000     -0.2022140000
Br                -0.6348540000      2.6453520000     -0.9431020000
C                  1.6442890000      1.2792010000      0.0868470000
O                  2.2541110000      2.3977560000     -0.0964720000
C                  2.3104880000      0.1102230000      0.6260670000
C                  1.6082310000     -1.0789690000      0.8060700000
Br                 2.5884280000     -2.6407400000      1.5502100000
C                  0.2348820000     -1.3366570000      0.5194090000
O                 -0.3560230000     -2.4651600000      0.7105090000
C                  3.7696520000      0.2711170000      0.9659210000
H                 -2.8449610000      1.4719830000      0.3221830000
H                 -2.6787460000      0.2440250000      1.5869160000
H                 -3.9350160000      0.0686340000      0.3450640000
H                 -2.0413380000     -1.4611370000     -0.0485960000
H                 -2.1609590000      0.6803490000     -2.2363870000
H                 -1.6120990000     -0.9938490000     -2.4116320000
H                 -3.3075640000     -0.6579350000     -2.0070090000
H                  4.4043610000     -0.4235770000      0.3986820000
H                  4.0514200000      1.2985970000      0.7258000000
H                  3.9695420000      0.0761420000      2.0285260000
$end

$rem
BASIS  =  6-311++G(d,p)
GUI  =  2
JOB_TYPE  =  SP
METHOD  =  B3LYP
SCF_CONVERGENCE  = 8
SOLVENT_METHOD = sm12
$end

$smx
solvent dimethylformamide
charges CM5
$end

--------------------------------------------------------------

             Standard Nuclear Orientation (Angstroms)
    I     Atom           X                Y                Z
 ----------------------------------------------------------------
    1      C      -2.9005220000     0.4002460000     0.5264370000
    2      C      -1.9162850000    -0.4134270000    -0.3393020000
    3      C      -2.2691510000    -0.3315370000    -1.8390370000
    4      C      -0.4452810000    -0.1674340000    -0.0231330000
    5      C       0.2673970000     1.0267980000    -0.2022140000
    6      Br     -0.6348540000     2.6453520000    -0.9431020000
    7      C       1.6442890000     1.2792010000     0.0868470000
    8      O       2.2541110000     2.3977560000    -0.0964720000
    9      C       2.3104880000     0.1102230000     0.6260670000
   10      C       1.6082310000    -1.0789690000     0.8060700000
   11      Br      2.5884280000    -2.6407400000     1.5502100000
   12      C       0.2348820000    -1.3366570000     0.5194090000
   13      O      -0.3560230000    -2.4651600000     0.7105090000
   14      C       3.7696520000     0.2711170000     0.9659210000
   15      H      -2.8449610000     1.4719830000     0.3221830000
   16      H      -2.6787460000     0.2440250000     1.5869160000
   17      H      -3.9350160000     0.0686340000     0.3450640000
   18      H      -2.0413380000    -1.4611370000    -0.0485960000
   19      H      -2.1609590000     0.6803490000    -2.2363870000
   20      H      -1.6120990000    -0.9938490000    -2.4116320000
   21      H      -3.3075640000    -0.6579350000    -2.0070090000
   22      H       4.4043610000    -0.4235770000     0.3986820000
   23      H       4.0514200000     1.2985970000     0.7258000000
   24      H       3.9695420000     0.0761420000     2.0285260000
 ----------------------------------------------------------------

   17   -5685.9486199559      5.97e-09  Convergence criterion met
 Total energy in the final basis set =    -5686.2089564229

                    Orbital Energies (a.u.)
 --------------------------------------------------------------

 Alpha MOs
 -- Occupied --
********-482.7949 -62.4491 -62.4473 -56.2693 -56.2675 -56.2661 -56.2658
-56.2642 -56.2639 -19.0144 -19.0135 -10.1832 -10.1825 -10.1814 -10.1800
-10.1657 -10.1614 -10.1614 -10.1570 -10.1491 -10.1476  -8.6573  -8.6555
 -6.4874  -6.4857  -6.4767  -6.4758  -6.4749  -6.4740  -2.5985  -2.5968
 -2.5955  -2.5948  -2.5938  -2.5931  -2.5864  -2.5864  -2.5846  -2.5846
 -0.9357  -0.9318  -0.8150  -0.7969  -0.7658  -0.7408  -0.7208  -0.6862
 -0.6593  -0.6427  -0.5863  -0.5262  -0.5210  -0.4724  -0.4432  -0.4317
 -0.4156  -0.4098  -0.4089  -0.3902  -0.3805  -0.3707  -0.3596  -0.3542
 -0.3520  -0.3400  -0.3335  -0.3256  -0.3206  -0.3046  -0.2792  -0.2696
 -0.2570  -0.2529  -0.2213  -0.2068  -0.1964  -0.1913  -0.1196

          Ground-State Mulliken Net Atomic Charges

     Atom                 Charge (a.u.)
  ----------------------------------------
      1 C                    -0.227101
      2 C                     1.361354
      3 C                    -0.228982
      4 C                    -0.072289
      5 C                     0.374629
      6 Br                    0.302276
      7 C                    -2.887050
      8 O                    -0.320399
      9 C                    -0.166596
     10 C                     0.431900
     11 Br                    0.184481
     12 C                    -2.188711
     13 O                    -0.293092
     14 C                     0.325181
     15 H                     0.153541
     16 H                     0.071865
     17 H                     0.254947
     18 H                     0.022495
     19 H                     0.153465
     20 H                     0.071852
     21 H                     0.254493
     22 H                     0.145144
     23 H                     0.131191
     24 H                     0.145407
  ----------------------------------------
  Sum of atomic charges =    -2.000000

                    Cartesian Multipole Moments
 -----------------------------------------------------------------
    Charge (ESU x 10^10)
                -9.6064
    Dipole Moment (Debye)
         X      -8.3012      Y       0.0341      Z      -2.6435
       Tot       8.7120
    Quadrupole Moments (Debye-Ang)
        XX    -158.7448     XY      -7.4172     YY    -176.4023
        XZ      -7.8284     YZ      14.7937     ZZ    -128.9140

 Total job time:  508.25s(wall), 3938.87s(cpu)
        *  Thank you very much for using Q-Chem.  Have a nice day.  *
