 Gaussian 16, Revision A.03,
 Gaussian 16:  ES64L-G16RevA.03 25-Dec-2016

 ----------------------------------------------------------------
 #P UB3LYP/6-311++G(d,p) SCRF=(PCM,Solvent=n,n-DiMethylFormamide)
 ----------------------------------------------------------------

 ------------------
 Quinone PCM in DMF
 ------------------
 Symbolic Z-matrix:
 Charge =  0 Multiplicity = 1

                         Standard orientation:
 ---------------------------------------------------------------------
 Center     Atomic      Atomic             Coordinates (Angstroms)
 Number     Number       Type             X           Y           Z
 ---------------------------------------------------------------------
      1          6           0       -5.774279    0.091001   -0.941201
      2          6           0       -6.412715   -1.144018   -0.998493
      3          6           0       -5.771137   -2.284328   -0.511521
      4          6           0       -4.491548    0.182624   -0.395624
      5          6           0       -3.843593   -0.962705    0.095321
      6          6           0       -4.491699   -2.195068    0.033890
      7          6           0       -3.801677    1.483632   -0.327426
      8          6           0       -2.431366    1.525361    0.259391
      9          6           0       -1.789531    0.435848    0.748566
     10          6           0       -2.463943   -0.877825    0.685654
     11          8           0       -4.285078    2.538321   -0.723755
     12          8           0       -1.916045   -1.886130    1.109135
     13          1           0       -6.251642    0.989749   -1.312086
     14          1           0       -7.407788   -1.219644   -1.421353
     15          1           0       -6.270199   -3.245672   -0.557152
     16          1           0       -3.979917   -3.069464    0.416267
     17          8           0       -1.880958    2.750421    0.270104
     18          6           0       -0.403086    0.506015    1.324018
     19          6           0        0.694349    0.219425    0.276468
     20          6           0        2.104678    0.280442    0.871893
     21          6           0        3.209130    0.000674   -0.153565
     22          6           0        4.622552    0.059975    0.436951
     23          1           0       -2.546941    3.348892   -0.118721
     24          1           0       -0.324507   -0.229446    2.128520
     25          1           0       -0.242821    1.498704    1.752382
     26          1           0        0.608835    0.944677   -0.540695
     27          1           0        0.522389   -0.771114   -0.157727
     28          1           0        2.180961   -0.442979    1.693525
     29          1           0        2.267137    1.269769    1.318795
     30          1           0        3.130310    0.722973   -0.976389
     31          1           0        3.044949   -0.988320   -0.600306
     32          1           0        4.700577   -0.661598    1.260468
     33          1           0        4.786662    1.049129    0.883834
     34          6           0        5.728037   -0.221277   -0.587071
     35          1           0        5.650305    0.500658   -1.410468
     36          1           0        5.562979   -1.210070   -1.034470
     37          6           0        7.141635   -0.163992    0.002520
     38          1           0        7.220328   -0.886007    0.825909
     39          1           0        7.307935    0.824705    0.450106
     40          6           0        8.247960   -0.445437   -1.020615
     41          6           0        9.656502   -0.386465   -0.422248
     42          1           0        8.170312    0.276255   -1.843005
     43          1           0        8.082460   -1.433344   -1.467627
     44          1           0        9.865104    0.600953    0.001846
     45          1           0       10.421024   -0.591425   -1.176944
     46          1           0        9.776578   -1.121580    0.379961
 ---------------------------------------------------------------------

 SCF Done:  E(UB3LYP) =  -964.452771273     A.U. after   16 cycles

 The electronic state is 1-A.
 Alpha  occ. eigenvalues --  -19.18060 -19.15133 -19.13080 -10.29519 -10.28229
 Alpha  occ. eigenvalues --  -10.26894 -10.21287 -10.21157 -10.20552 -10.20351
 Alpha  occ. eigenvalues --  -10.20181 -10.20012 -10.19969 -10.17805 -10.16902
 Alpha  occ. eigenvalues --  -10.16287 -10.16167 -10.16089 -10.15994 -10.15952
 Alpha  occ. eigenvalues --  -10.15925 -10.15526  -1.11059  -1.06909  -1.06434
 Alpha  occ. eigenvalues --   -0.89482  -0.84605  -0.81314  -0.79999  -0.78376
 Alpha  occ. eigenvalues --   -0.78162  -0.75874  -0.72726  -0.69968  -0.67739
 Alpha  occ. eigenvalues --   -0.65717  -0.64054  -0.61440  -0.60659  -0.58709
 Alpha  occ. eigenvalues --   -0.57718  -0.57518  -0.57322  -0.54458  -0.52088
 Alpha  occ. eigenvalues --   -0.49993  -0.48548  -0.48060  -0.47381  -0.46946
 Alpha  occ. eigenvalues --   -0.46820  -0.45533  -0.45261  -0.43887  -0.43685
 Alpha  occ. eigenvalues --   -0.43441  -0.42633  -0.41575  -0.41406  -0.40786
 Alpha  occ. eigenvalues --   -0.40516  -0.40018  -0.38592  -0.37961  -0.37644
 Alpha  occ. eigenvalues --   -0.37325  -0.37208  -0.35674  -0.34877  -0.34803
 Alpha  occ. eigenvalues --   -0.33288  -0.33110  -0.32413  -0.32260  -0.32012
 Alpha  occ. eigenvalues --   -0.30839  -0.30331  -0.29165  -0.28232  -0.28045
 Alpha  occ. eigenvalues --   -0.25841
 Alpha virt. eigenvalues --   -0.12739  -0.05819  -0.02778  -0.00967  -0.00343
 Alpha virt. eigenvalues --    0.00177   0.00599   0.00673   0.01166   0.01497
 Alpha virt. eigenvalues --    0.01984   0.02230   0.02345   0.02653   0.03304

  Beta  occ. eigenvalues --  -19.18060 -19.15133 -19.13080 -10.29519 -10.28229
  Beta  occ. eigenvalues --  -10.26894 -10.21287 -10.21157 -10.20552 -10.20351
  Beta  occ. eigenvalues --  -10.20181 -10.20012 -10.19969 -10.17805 -10.16902
  Beta  occ. eigenvalues --  -10.16287 -10.16167 -10.16089 -10.15994 -10.15952
  Beta  occ. eigenvalues --  -10.15925 -10.15526  -1.11059  -1.06909  -1.06434
  Beta  occ. eigenvalues --   -0.89482  -0.84605  -0.81314  -0.79999  -0.78376
  Beta  occ. eigenvalues --   -0.78162  -0.75874  -0.72726  -0.69968  -0.67739
  Beta  occ. eigenvalues --   -0.65717  -0.64054  -0.61440  -0.60659  -0.58709
  Beta  occ. eigenvalues --   -0.57718  -0.57518  -0.57322  -0.54458  -0.52088
  Beta  occ. eigenvalues --   -0.49993  -0.48548  -0.48060  -0.47381  -0.46946
  Beta  occ. eigenvalues --   -0.46820  -0.45533  -0.45261  -0.43887  -0.43685
  Beta  occ. eigenvalues --   -0.43441  -0.42633  -0.41575  -0.41406  -0.40786
  Beta  occ. eigenvalues --   -0.40516  -0.40018  -0.38592  -0.37961  -0.37644
  Beta  occ. eigenvalues --   -0.37325  -0.37208  -0.35674  -0.34877  -0.34803
  Beta  occ. eigenvalues --   -0.33288  -0.33110  -0.32413  -0.32260  -0.32012
  Beta  occ. eigenvalues --   -0.30839  -0.30331  -0.29165  -0.28232  -0.28045
  Beta  occ. eigenvalues --   -0.25841
  Beta virt. eigenvalues --   -0.12739  -0.05819  -0.02778  -0.00967  -0.00343
  Beta virt. eigenvalues --    0.00177   0.00599   0.00673   0.01166   0.01497
  Beta virt. eigenvalues --    0.01984   0.02230   0.02345   0.02653   0.03304

 Mulliken charges and spin densities:
               1          2
     1  C    0.144209   0.000000
     2  C   -0.377340  -0.000000
     3  C   -0.404319   0.000000
     4  C    0.576942  -0.000000
     5  C   -0.139005   0.000000
     6  C    0.153114   0.000000
     7  C   -0.854930   0.000000
     8  C   -0.455646  -0.000000
     9  C    1.939457  -0.000000
    10  C   -0.775764  -0.000000
    11  O   -0.313086  -0.000000
    12  O   -0.276289   0.000000
    13  H    0.190736   0.000000
    14  H    0.211578  -0.000000
    15  H    0.207624   0.000000
    16  H    0.191561  -0.000000
    17  O   -0.222805   0.000000
    18  C   -0.375985   0.000000
    19  C   -0.783998  -0.000000
    20  C   -0.215678   0.000000
    21  C    0.039754   0.000000
    22  C    0.016899  -0.000000
    23  H    0.307321   0.000000
    24  H    0.220572  -0.000000
    25  H    0.234481  -0.000000
    26  H    0.176605  -0.000000
    27  H    0.178665   0.000000
    28  H    0.121940  -0.000000
    29  H    0.118791   0.000000
    30  H    0.127123   0.000000
    31  H    0.127183   0.000000
    32  H    0.131973  -0.000000
    33  H    0.131797  -0.000000
    34  C   -0.190579  -0.000000
    35  H    0.127863  -0.000000
    36  H    0.127604   0.000000
    37  C   -0.396788  -0.000000
    38  H    0.123618   0.000000
    39  H    0.123707   0.000000
    40  C   -0.266858  -0.000000
    41  C   -0.690352   0.000000
    42  H    0.130909  -0.000000
    43  H    0.131042  -0.000000
    44  H    0.139932  -0.000000
    45  H    0.146480   0.000000
    46  H    0.139940  -0.000000
 Sum of Mulliken charges =  -0.00000   0.00000

 Dipole moment (field-independent basis, Debye):
    X=             -2.6436    Y=             -0.4429    Z=             -1.3358  Tot=              2.9949
 Quadrupole moment (field-independent basis, Debye-Ang):
   XX=           -110.3188   YY=           -136.4770   ZZ=           -137.3757
   XY=             11.7587   XZ=              5.0049   YZ=              4.3017

 Normal termination of Gaussian 16 at Sun Jan 21 08:18:00 2024.
