 Gaussian 16, Revision A.03,
 Gaussian 16:  ES64L-G16RevA.03 25-Dec-2016

 ----------------------------------------------------------------------
 #P UB3LYP/6-311++G(d,p) nosym opt freq SCRF=(PCM,Solvent=n,n-DiMethylF
 ormamide)
 ----------------------------------------------------------------------

 --------
 Oxidized
 --------
 Symbolic Z-matrix:
 Charge = -1 Multiplicity = 1

 SCF Done:  E(UB3LYP) =  -1312.42855498     A.U. after   15 cycles
 SCF Done:  E(UB3LYP) =  -1312.42953652     A.U. after   13 cycles
 SCF Done:  E(UB3LYP) =  -1312.43010810     A.U. after   12 cycles
 SCF Done:  E(UB3LYP) =  -1312.43011533     A.U. after   11 cycles
 SCF Done:  E(UB3LYP) =  -1312.43009618     A.U. after   12 cycles
 SCF Done:  E(UB3LYP) =  -1312.43012584     A.U. after   11 cycles
 SCF Done:  E(UB3LYP) =  -1312.43012602     A.U. after    9 cycles
 SCF Done:  E(UB3LYP) =  -1312.43012622     A.U. after   10 cycles
 SCF Done:  E(UB3LYP) =  -1312.43012624     A.U. after    9 cycles
 Optimization completed.
    -- Stationary point found.
 Normal termination of Gaussian 16 at Sat Feb 10 23:45:57 2024.

 ----------------------------------------------------------------------
 #P Geom=AllCheck Guess=TCheck SCRF=Check GenChk UB3LYP/6-311++G(d,p) F
 req
 ----------------------------------------------------------------------

 Structure from the checkpoint file:  "223.chk"
 --------
 Oxidized
 --------
 Charge = -1 Multiplicity = 1

                          Input orientation:
 ---------------------------------------------------------------------
 Center     Atomic      Atomic             Coordinates (Angstroms)
 Number     Number       Type             X           Y           Z
 ---------------------------------------------------------------------
      1          6           0        2.773282    0.523585    0.210489
      2          6           0        2.742003   -0.680895    0.914454
      3          6           0        1.537126   -1.358613    1.065470
      4          6           0       -0.917231   -1.588613    0.699527
      5          8           0       -0.950638   -2.643918    1.319236
      6          6           0       -2.148964   -1.006333    0.097400
      7          6           0       -3.363904   -1.683386    0.241731
      8          6           0       -4.528385   -1.161528   -0.311062
      9          6           0       -4.489469    0.044728   -1.015272
     10          6           0       -3.286173    0.725696   -1.164390
     11          6           0       -2.109878    0.209536   -0.611956
     12          6           0       -0.835240    0.959401   -0.788079
     13          8           0       -0.799357    2.016852   -1.403102
     14          6           0        0.398255    0.374877   -0.187869
     15          6           0        1.609802    1.051465   -0.338999
     16          1           0        3.657514   -1.082420    1.329326
     17          1           0        1.497328   -2.295619    1.606079
     18          1           0       -3.379543   -2.616990    0.789516
     19          1           0       -5.466192   -1.691870   -0.195176
     20          1           0       -5.397003    0.450850   -1.446139
     21          1           0       -3.241310    1.661009   -1.707561
     22          1           0        1.627454    1.981419   -0.892225
     23          6           0        0.359393   -0.841419    0.520203
     24         16           0        4.332908    1.445433    0.047587
     25          8           0        5.406234    0.468152    0.370260
     26          8           0        4.362363    1.921068   -1.361932
     27          8           0        4.229704    2.555251    1.036496
 ---------------------------------------------------------------------

 SCF Done:  E(UB3LYP) =  -1312.43012624     A.U. after    2 cycles

 Alpha  occ. eigenvalues --  -89.04941 -19.13293 -19.13276 -19.09329 -19.09290
 Alpha  occ. eigenvalues --  -19.09269 -10.28538 -10.28516 -10.21886 -10.21312
 Alpha  occ. eigenvalues --  -10.21224 -10.21079 -10.21030 -10.20467 -10.20360
 Alpha  occ. eigenvalues --  -10.20168 -10.19987 -10.19944 -10.19892 -10.19883
 Alpha  occ. eigenvalues --   -8.10831  -6.07095  -6.07086  -6.07022  -1.11215
 Alpha  occ. eigenvalues --   -1.06657  -1.06470  -0.97569  -0.97341  -0.89853
 Alpha  occ. eigenvalues --   -0.88592  -0.81809  -0.78563  -0.77972  -0.77588
 Alpha  occ. eigenvalues --   -0.69686  -0.67877  -0.65350  -0.62393  -0.60433
 Alpha  occ. eigenvalues --   -0.58842  -0.56315  -0.54511  -0.51094  -0.49867
 Alpha  occ. eigenvalues --   -0.49300  -0.48932  -0.46111  -0.45916  -0.45782
 Alpha  occ. eigenvalues --   -0.45458  -0.45373  -0.45158  -0.45078  -0.44121
 Alpha  occ. eigenvalues --   -0.42053  -0.41774  -0.39744  -0.38661  -0.37907
 Alpha  occ. eigenvalues --   -0.37357  -0.36868  -0.33701  -0.33638  -0.31452
 Alpha  occ. eigenvalues --   -0.30068  -0.29755  -0.28938  -0.28893  -0.28164
 Alpha  occ. eigenvalues --   -0.27917  -0.27722  -0.26990  -0.25730
 Alpha virt. eigenvalues --   -0.12129  -0.07849  -0.04166  -0.03038  -0.00512
 Alpha virt. eigenvalues --    0.00440   0.01230   0.02047   0.02410   0.02625
 Alpha virt. eigenvalues --    0.03257   0.03870   0.04311   0.04462   0.04499

  Beta  occ. eigenvalues --  -89.04941 -19.13293 -19.13276 -19.09329 -19.09290
  Beta  occ. eigenvalues --  -19.09269 -10.28538 -10.28516 -10.21886 -10.21312
  Beta  occ. eigenvalues --  -10.21224 -10.21079 -10.21030 -10.20467 -10.20360
  Beta  occ. eigenvalues --  -10.20168 -10.19987 -10.19944 -10.19892 -10.19883
  Beta  occ. eigenvalues --   -8.10831  -6.07095  -6.07086  -6.07022  -1.11215
  Beta  occ. eigenvalues --   -1.06657  -1.06470  -0.97569  -0.97341  -0.89853
  Beta  occ. eigenvalues --   -0.88592  -0.81809  -0.78563  -0.77972  -0.77588
  Beta  occ. eigenvalues --   -0.69686  -0.67877  -0.65350  -0.62393  -0.60433
  Beta  occ. eigenvalues --   -0.58842  -0.56315  -0.54511  -0.51094  -0.49867
  Beta  occ. eigenvalues --   -0.49300  -0.48932  -0.46111  -0.45916  -0.45782
  Beta  occ. eigenvalues --   -0.45458  -0.45373  -0.45158  -0.45078  -0.44121
  Beta  occ. eigenvalues --   -0.42053  -0.41774  -0.39744  -0.38661  -0.37907
  Beta  occ. eigenvalues --   -0.37357  -0.36868  -0.33701  -0.33638  -0.31452
  Beta  occ. eigenvalues --   -0.30068  -0.29755  -0.28938  -0.28893  -0.28164
  Beta  occ. eigenvalues --   -0.27917  -0.27722  -0.26990  -0.25730
  Beta virt. eigenvalues --   -0.12129  -0.07849  -0.04166  -0.03038  -0.00512
  Beta virt. eigenvalues --    0.00440   0.01230   0.02047   0.02410   0.02625
  Beta virt. eigenvalues --    0.03257   0.03870   0.04311   0.04462   0.04499

 Mulliken charges and spin densities:
               1          2
     1  C   -0.963494   0.000000
     2  C   -0.113941   0.000000
     3  C    0.211020  -0.000000
     4  C   -0.577313   0.000000
     5  O   -0.268109   0.000000
     6  C    0.231815  -0.000000
     7  C    0.168293  -0.000000
     8  C   -0.432052  -0.000000
     9  C   -0.393021   0.000000
    10  C    0.100238   0.000000
    11  C    0.405019  -0.000000
    12  C   -0.704720   0.000000
    13  O   -0.265274   0.000000
    14  C    0.359178   0.000000
    15  C   -0.156109  -0.000000
    16  H    0.241642  -0.000000
    17  H    0.191998  -0.000000
    18  H    0.187784  -0.000000
    19  H    0.208368   0.000000
    20  H    0.209808  -0.000000
    21  H    0.184543   0.000000
    22  H    0.203795   0.000000
    23  C    0.346767  -0.000000
    24  S    0.783156  -0.000000
    25  O   -0.406124   0.000000
    26  O   -0.394899  -0.000000
    27  O   -0.358368  -0.000000
 Sum of Mulliken charges =  -1.00000   0.00000

 Dipole moment (field-independent basis, Debye):
    X=            -24.8684    Y=             -9.3399    Z=              0.1177  Tot=             26.5648
 Quadrupole moment (field-independent basis, Debye-Ang):
   XX=           -214.4897   YY=           -154.8246   ZZ=           -134.9060
   XY=            -39.2538   XZ=              5.8373   YZ=              4.3495

  Exact polarizability: 398.913  36.010 281.133  32.348 -69.916 196.549
 Approx polarizability: 412.079  27.139 356.680  34.112 -99.052 243.202

                      1                      2                      3
                      A                      A                      A
 Frequencies --     25.6350                31.9039                65.7738
 Red. masses --     10.5625                10.1425                 8.1858
 Frc consts  --      0.0041                 0.0061                 0.0209
 IR Inten    --      0.1280                 0.7362                15.0787

                      4                      5                      6
                      A                      A                      A
 Frequencies --    102.2608               109.4433               125.4474
 Red. masses --     10.1053                 4.5459                 5.9841
 Frc consts  --      0.0623                 0.0321                 0.0555
 IR Inten    --      6.1130                 0.2370                 1.6030

                      7                      8                      9
                      A                      A                      A
 Frequencies --    164.0434               207.4510               222.0602
 Red. masses --      8.4687                10.1332                 6.8240
 Frc consts  --      0.1343                 0.2569                 0.1983
 IR Inten    --      1.4030                 4.5681                 0.3393

                     10                     11                     12
                      A                      A                      A
 Frequencies --    231.9764               288.6901               324.7787
 Red. masses --      9.2234                 7.9345                 6.8962
 Frc consts  --      0.2924                 0.3896                 0.4286
 IR Inten    --      2.4862                 1.5203                 1.1331

                     13                     14                     15
                      A                      A                      A
 Frequencies --    377.2887               382.3135               405.3118
 Red. masses --      7.2909                 9.0008                 9.3920
 Frc consts  --      0.6115                 0.7751                 0.9090
 IR Inten    --     11.5512                16.1217                44.6512

                     16                     17                     18
                      A                      A                      A
 Frequencies --    411.4630               439.0022               447.0412
 Red. masses --      3.3878                 3.4530                 9.0326
 Frc consts  --      0.3379                 0.3921                 1.0635
 IR Inten    --      0.7609                 0.1054                31.0228

                     19                     20                     21
                      A                      A                      A
 Frequencies --    450.3041               485.8884               486.9497
 Red. masses --      5.1296                 8.5564                 9.8399
 Frc consts  --      0.6128                 1.1902                 1.3747
 IR Inten    --      2.7553                20.7878                20.1735

                     22                     23                     24
                      A                      A                      A
 Frequencies --    516.6700               563.6330               596.7665
 Red. masses --     14.0628                 6.2495                13.6238
 Frc consts  --      2.2118                 1.1697                 2.8586
 IR Inten    --     26.8132                47.9551               269.5672

                     25                     26                     27
                      A                      A                      A
 Frequencies --    642.9098               659.0212               670.7394
 Red. masses --      7.0882                 7.2792                 4.2332
 Frc consts  --      1.7262                 1.8626                 1.1221
 IR Inten    --     11.0793                61.0209                23.9269

                     28                     29                     30
                      A                      A                      A
 Frequencies --    695.8520               715.8667               723.1721
 Red. masses --      6.7386                 7.9372                 3.9160
 Frc consts  --      1.9224                 2.3965                 1.2066
 IR Inten    --      0.0697                21.6214                31.3829

                     31                     32                     33
                      A                      A                      A
 Frequencies --    731.0402               806.3190               809.1546
 Red. masses --      2.3365                 2.8342                 2.2857
 Frc consts  --      0.7357                 1.0857                 0.8817
 IR Inten    --     98.0774                 0.9693                 6.6934

                     34                     35                     36
                      A                      A                      A
 Frequencies --    824.0422               873.7594               915.3723
 Red. masses --      6.8972                 1.5599                 1.4091
 Frc consts  --      2.7594                 0.7017                 0.6956
 IR Inten    --      0.3252                27.9176                 0.8451

                     37                     38                     39
                      A                      A                      A
 Frequencies --    932.7913               936.0263               958.9867
 Red. masses --      1.4612                 6.9464                 8.0656
 Frc consts  --      0.7491                 3.5858                 4.3703
 IR Inten    --      7.1205               196.2616                25.7508

                     40                     41                     42
                      A                      A                      A
 Frequencies --    988.4052              1002.9410              1007.7441
 Red. masses --      8.5844                 1.3764                 1.3704
 Frc consts  --      4.9412                 0.8157                 0.8200
 IR Inten    --    404.0476                 1.4178                 1.5899

                     43                     44                     45
                      A                      A                      A
 Frequencies --   1024.4289              1056.4618              1089.5181
 Red. masses --      1.3332                 2.0058                 2.1627
 Frc consts  --      0.8244                 1.3190                 1.5126
 IR Inten    --      0.0013                 0.1677                70.2764

                     46                     47                     48
                      A                      A                      A
 Frequencies --   1112.1205              1121.9625              1126.1878
 Red. masses --      2.1819                19.0785                 2.5923
 Frc consts  --      1.5899                14.1498                 1.9371
 IR Inten    --      5.1009               570.5845               222.1966

                     49                     50                     51
                      A                      A                      A
 Frequencies --   1139.6592              1175.0462              1181.9426
 Red. masses --      5.2602                 1.3838                 2.1670
 Frc consts  --      4.0253                 1.1257                 1.7836
 IR Inten    --    366.8501                13.6164                27.9092

                     52                     53                     54
                      A                      A                      A
 Frequencies --   1191.4513              1230.7285              1274.2067
 Red. masses --      2.0991                 1.7633                 1.4721
 Frc consts  --      1.7557                 1.5737                 1.4082
 IR Inten    --      0.1800                 0.2132                49.0290

                     55                     56                     57
                      A                      A                      A
 Frequencies --   1294.1346              1310.8787              1349.3397
 Red. masses --      5.0883                 2.2978                 8.4704
 Frc consts  --      5.0209                 2.3264                 9.0865
 IR Inten    --   1190.0814                36.8912                93.8927

                     58                     59                     60
                      A                      A                      A
 Frequencies --   1361.2744              1424.6522              1480.3415
 Red. masses --      8.6375                 4.2868                 2.3895
 Frc consts  --      9.4304                 5.1263                 3.0852
 IR Inten    --      7.1190                 8.3770                 6.4528

                     61                     62                     63
                      A                      A                      A
 Frequencies --   1495.7697              1506.0688              1596.7624
 Red. masses --      2.7031                 2.6135                 7.5316
 Frc consts  --      3.5632                 3.4927                11.3141
 IR Inten    --     30.3330                 1.8989                15.2577

                     64                     65                     66
                      A                      A                      A
 Frequencies --   1610.6642              1612.7673              1624.3068
 Red. masses --      6.7122                 6.7624                 5.8440
 Frc consts  --     10.2594                10.3633                 9.0844
 IR Inten    --    254.4338               197.4470                27.6554

                     67                     68                     69
                      A                      A                      A
 Frequencies --   1695.0450              1703.5603              3179.3067
 Red. masses --     12.4038                11.6599                 1.0875
 Frc consts  --     20.9974                19.9370                 6.4766
 IR Inten    --     12.5485               741.5566                 3.1115

                     70                     71                     72
                      A                      A                      A
 Frequencies --   3191.4927              3198.1042              3203.5845
 Red. masses --      1.0914                 1.0884                 1.0926
 Frc consts  --      6.5497                 6.5587                 6.6068
 IR Inten    --      9.9740                 2.2421                 3.0195

                     73                     74                     75
                      A                      A                      A
 Frequencies --   3206.6110              3207.7959              3209.7855
 Red. masses --      1.0954                 1.0906                 1.0946
 Frc consts  --      6.6364                 6.6118                 6.6446
 IR Inten    --     21.1765                 0.8337                 2.1959

 - Thermochemistry -
 -------------------
 Temperature   298.150 Kelvin.  Pressure   1.00000 Atm.
 Atom     1 has atomic number  6 and mass  12.00000

 Molecular mass:   287.00142 amu.
 Principal axes and moments of inertia in atomic units:
                           1         2         3
     Eigenvalues --  2138.82568********************
           X            0.96480  -0.19076  -0.18101
           Y            0.25712   0.82868   0.49717
           Z            0.05516  -0.52621   0.84856
 This molecule is an asymmetric top.
 Rotational symmetry number  1.
 Warning -- assumption of classical behavior for rotation
           may cause significant error
 Rotational temperatures (Kelvin)      0.04050     0.00799     0.00686
 Rotational constants (GHZ):           0.84380     0.16654     0.14297
 Zero-point vibrational energy     475768.0 (Joules/Mol)
                                  113.71128 (Kcal/Mol)
 Warning -- explicit consideration of  24 degrees of freedom as
           vibrations may cause significant error
 Vibrational temperatures:     36.88    45.90    94.63   147.13   157.46
          (Kelvin)            180.49   236.02   298.48   319.50   333.76
                              415.36   467.28   542.83   550.06   583.15
                              592.00   631.63   643.19   647.89   699.09
                              700.61   743.37   810.94   858.61   925.00
                              948.18   965.04  1001.18  1029.97  1040.48
                             1051.80  1160.11  1164.19  1185.61  1257.14
                             1317.02  1342.08  1346.73  1379.77  1422.09
                             1443.01  1449.92  1473.92  1520.01  1567.57
                             1600.09  1614.25  1620.33  1639.72  1690.63
                             1700.55  1714.23  1770.74  1833.30  1861.97
                             1886.06  1941.40  1958.57  2049.76  2129.88
                             2152.08  2166.90  2297.38  2317.39  2320.41
                             2337.02  2438.79  2451.04  4574.31  4591.85
                             4601.36  4609.24  4613.60  4615.30  4618.17

 Zero-point correction=                           0.181210 (Hartree/Particle)
 Thermal correction to Energy=                    0.196601
 Thermal correction to Enthalpy=                  0.197545
 Thermal correction to Gibbs Free Energy=         0.136823
 Sum of electronic and zero-point Energies=          -1312.248916
 Sum of electronic and thermal Energies=             -1312.233525
 Sum of electronic and thermal Enthalpies=           -1312.232581
 Sum of electronic and thermal Free Energies=        -1312.293303

                     E (Thermal)             CV                S
                      KCal/Mol        Cal/Mol-Kelvin    Cal/Mol-Kelvin
 Total                  123.369             59.756            127.801
 Electronic               0.000              0.000              0.000
 Translational            0.889              2.981             42.861
 Rotational               0.889              2.981             34.036
 Vibrational            121.592             53.795             50.904
 Vibration     1          0.593              1.985              6.141
 Vibration     2          0.594              1.983              5.707
 Vibration     3          0.597              1.971              4.276
 Vibration     4          0.604              1.947              3.411
 Vibration     5          0.606              1.942              3.279
 Vibration     6          0.610              1.928              3.015
 Vibration     7          0.623              1.887              2.503
 Vibration     8          0.641              1.829              2.066
 Vibration     9          0.648              1.807              1.942
 Vibration    10          0.653              1.792              1.864
 Vibration    11          0.685              1.695              1.482
 Vibration    12          0.709              1.626              1.286
 Vibration    13          0.748              1.519              1.050
 Vibration    14          0.752              1.508              1.030
 Vibration    15          0.770              1.459              0.943
 Vibration    16          0.775              1.445              0.921
 Vibration    17          0.799              1.385              0.830
 Vibration    18          0.806              1.367              0.805
 Vibration    19          0.809              1.360              0.795
 Vibration    20          0.842              1.281              0.694
 Vibration    21          0.843              1.279              0.692
 Vibration    22          0.872              1.213              0.618
 Vibration    23          0.919              1.110              0.517
 Vibration    24          0.955              1.039              0.455

                           ! Non-Optimized Parameters !
 Normal termination of Gaussian 16 at Sun Feb 11 00:48:27 2024.
