 Q-Chem 5.4, Q-Chem, Inc., Pleasanton, CA (2021)
 Q-Chem 5.4.0 for Intel X86 EM64T Linux

User input:
--------------------------------------------------------------
$molecule
-2 1
C                  1.2354580000      1.6765060000     -0.6761900000
C                  0.0418290000      1.2607710000      0.0258000000
C                 -0.3174080000     -0.0743280000      0.1380160000
C                  0.4691450000     -1.1582820000     -0.4224700000
C                  1.6487450000     -0.7838540000     -1.1376320000
C                  2.0152180000      0.5951260000     -1.2235570000
O                  1.5663820000      2.9159530000     -0.7715070000
O                  0.0832030000     -2.3917070000     -0.2930600000
S                  3.5519960000      1.1243510000     -1.9554630000
C                  4.4451490000      2.0496200000     -0.6599510000
C                  4.2419480000      3.4219740000     -0.4768370000
C                  5.3488650000      1.3526280000      0.1437210000
C                  6.0586530000      2.0240450000      1.1379980000
C                  4.9590120000      4.0857560000      0.5203640000
C                  5.8646360000      3.3976290000      1.3298680000
O                  3.3877140000      2.0567710000     -3.0958080000
O                  4.4369780000     -0.0451520000     -2.2102230000
H                  3.5197130000      3.9257810000     -1.1010450000
H                  5.4893300000      0.2925610000     -0.0303350000
H                  4.8004330000      5.1504290000      0.6708470000
H                  6.7625180000      1.4785290000      1.7608060000
C                 -1.5846000000     -0.4709730000      0.8601560000
C                 -0.7969950000      2.3567890000      0.6417520000
H                  6.4116290000      3.9233210000      2.1083210000
H                 -2.4499040000      0.1213880000      0.5319890000
H                 -1.5018350000     -0.3281020000      1.9493480000
H                 -1.7650640000     -1.5318050000      0.6714260000
H                 -1.7826510000      2.4519220000      0.1589220000
H                 -0.2678600000      3.3049510000      0.5243510000
H                 -0.9894700000      2.1809680000      1.7101170000
C                  2.3784610000     -1.9191610000     -1.8179270000
H                  1.7043800000     -2.7794660000     -1.8036110000
H                  3.3042860000     -2.2033780000     -1.3002450000
H                  2.6699670000     -1.6771820000     -2.8436390000
$end

$rem
BASIS  =  6-311++G(d,p)
GUI  =  2
JOB_TYPE  =  SP
METHOD  =  B3LYP
SCF_CONVERGENCE  = 8
SOLVENT_METHOD = sm12
$end

$smx
solvent dimethylformamide
charges CM5
$end

--------------------------------------------------------------

             Standard Nuclear Orientation (Angstroms)
    I     Atom           X                Y                Z
 ----------------------------------------------------------------
    1      C       1.2354580000     1.6765060000    -0.6761900000
    2      C       0.0418290000     1.2607710000     0.0258000000
    3      C      -0.3174080000    -0.0743280000     0.1380160000
    4      C       0.4691450000    -1.1582820000    -0.4224700000
    5      C       1.6487450000    -0.7838540000    -1.1376320000
    6      C       2.0152180000     0.5951260000    -1.2235570000
    7      O       1.5663820000     2.9159530000    -0.7715070000
    8      O       0.0832030000    -2.3917070000    -0.2930600000
    9      S       3.5519960000     1.1243510000    -1.9554630000
   10      C       4.4451490000     2.0496200000    -0.6599510000
   11      C       4.2419480000     3.4219740000    -0.4768370000
   12      C       5.3488650000     1.3526280000     0.1437210000
   13      C       6.0586530000     2.0240450000     1.1379980000
   14      C       4.9590120000     4.0857560000     0.5203640000
   15      C       5.8646360000     3.3976290000     1.3298680000
   16      O       3.3877140000     2.0567710000    -3.0958080000
   17      O       4.4369780000    -0.0451520000    -2.2102230000
   18      H       3.5197130000     3.9257810000    -1.1010450000
   19      H       5.4893300000     0.2925610000    -0.0303350000
   20      H       4.8004330000     5.1504290000     0.6708470000
   21      H       6.7625180000     1.4785290000     1.7608060000
   22      C      -1.5846000000    -0.4709730000     0.8601560000
   23      C      -0.7969950000     2.3567890000     0.6417520000
   24      H       6.4116290000     3.9233210000     2.1083210000
   25      H      -2.4499040000     0.1213880000     0.5319890000
   26      H      -1.5018350000    -0.3281020000     1.9493480000
   27      H      -1.7650640000    -1.5318050000     0.6714260000
   28      H      -1.7826510000     2.4519220000     0.1589220000
   29      H      -0.2678600000     3.3049510000     0.5243510000
   30      H      -0.9894700000     2.1809680000     1.7101170000
   31      C       2.3784610000    -1.9191610000    -1.8179270000
   32      H       1.7043800000    -2.7794660000    -1.8036110000
   33      H       3.3042860000    -2.2033780000    -1.3002450000
   34      H       2.6699670000    -1.6771820000    -2.8436390000
 ----------------------------------------------------------------

   18   -1279.2951504187      7.00e-09  Convergence criterion met
 Total energy in the final basis set =    -1279.5662667402

                    Orbital Energies (a.u.)
 --------------------------------------------------------------

 Alpha MOs
 -- Occupied --
-89.0265 -19.0897 -19.0882 -19.0272 -19.0157 -10.2019 -10.1932 -10.1895
-10.1893 -10.1876 -10.1855 -10.1832 -10.1774 -10.1640 -10.1609 -10.1604
-10.1514 -10.1493 -10.1489 -10.1475  -8.0895  -6.0525  -6.0515  -6.0502
 -1.0776  -0.9714  -0.9494  -0.9313  -0.8685  -0.8076  -0.7788  -0.7655
 -0.7582  -0.7188  -0.7128  -0.6814  -0.6339  -0.6230  -0.6171  -0.5915
 -0.5489  -0.5287  -0.5208  -0.4844  -0.4732  -0.4665  -0.4565  -0.4511
 -0.4346  -0.4296  -0.4271  -0.4176  -0.4022  -0.3971  -0.3952  -0.3838
 -0.3817  -0.3815  -0.3768  -0.3651  -0.3583  -0.3521  -0.3480  -0.3358
 -0.3231  -0.3146  -0.3107  -0.2975  -0.2795  -0.2772  -0.2662  -0.2618
 -0.2306  -0.2198  -0.2063  -0.1942  -0.1276

          Ground-State Mulliken Net Atomic Charges

     Atom                 Charge (a.u.)
  ----------------------------------------
      1 C                    -1.394354
      2 C                    -0.420495
      3 C                     0.335346
      4 C                    -2.640522
      5 C                     0.097416
      6 C                    -0.788187
      7 O                    -0.263408
      8 O                    -0.393429
      9 S                    -0.311198
     10 C                    -2.313377
     11 C                    -1.018513
     12 C                    -0.414792
     13 C                     1.041737
     14 C                     0.744364
     15 C                     1.858963
     16 O                    -0.081279
     17 O                    -0.129950
     18 H                     0.129258
     19 H                     0.201490
     20 H                     0.357569
     21 H                     0.387967
     22 C                     0.622566
     23 C                     0.657639
     24 H                     0.471266
     25 H                     0.225615
     26 H                     0.201619
     27 H                     0.182318
     28 H                     0.192946
     29 H                     0.192718
     30 H                     0.210629
     31 C                    -0.284690
     32 H                     0.107560
     33 H                     0.130316
     34 H                     0.104897
  ----------------------------------------
  Sum of atomic charges =    -2.000000

                    Cartesian Multipole Moments
 -----------------------------------------------------------------
    Charge (ESU x 10^10)
                -9.6064
    Dipole Moment (Debye)
         X     -15.2462      Y      -1.9203      Z      11.2985
       Tot      19.0733
    Quadrupole Moments (Debye-Ang)
        XX    -195.1132     XY     -18.0165     YY    -185.0300
        XZ      41.7329     YZ      11.9021     ZZ    -163.9675

 Total job time:  1306.52s(wall), 10144.88s(cpu)
        *  Thank you very much for using Q-Chem.  Have a nice day.  *
