 Gaussian 16, Revision A.03,
 Gaussian 16:  ES64L-G16RevA.03 25-Dec-2016

 ----------------------------------------------------------------
 #P UB3LYP/6-311++G(d,p) SCRF=(PCM,Solvent=n,n-DiMethylFormamide)
 ----------------------------------------------------------------

 ------------------
 Quinone PCM in DMF
 ------------------
 Symbolic Z-matrix:
 Charge =  0 Multiplicity = 1

                         Standard orientation:
 ---------------------------------------------------------------------
 Center     Atomic      Atomic             Coordinates (Angstroms)
 Number     Number       Type             X           Y           Z
 ---------------------------------------------------------------------
      1          6           0       -6.617950    1.368025   -1.266302
      2          6           0       -7.084372    2.521139   -0.642602
      3          6           0       -6.491281    2.962504    0.541624
      4          6           0       -5.555982    0.657086   -0.702269
      5          6           0       -4.957243    1.098614    0.489183
      6          6           0       -5.431952    2.254507    1.106461
      7          6           0       -5.050385   -0.566291   -1.350832
      8          6           0       -3.910689   -1.284545   -0.710368
      9          6           0       -3.323710   -0.883227    0.443947
     10          6           0       -3.814649    0.342878    1.106744
     11          8           0       -5.508242   -1.033610   -2.387422
     12          8           0       -3.305517    0.741430    2.145340
     13          8           0       -3.514105   -2.380670   -1.376550
     14          1           0       -7.061936    1.005835   -2.185467
     15          1           0       -7.907808    3.075953   -1.077115
     16          1           0       -6.856023    3.861270    1.025852
     17          1           0       -4.960804    2.582956    2.024514
     18          1           0       -4.099992   -2.451356   -2.154251
     19          6           0       -2.169101   -1.620930    1.062024
     20          6           0       -0.806216   -1.050305    0.610898
     21          6           0        0.411496   -1.835399    1.151549
     22          6           0        1.695139   -1.350052    0.493706
     23          6           0        2.192060   -0.058718    0.717538
     24          6           0        2.413328   -2.180477   -0.371294
     25          6           0        3.358295    0.389062    0.104847
     26          6           0        4.059372   -0.466401   -0.744794
     27          6           0        3.588498   -1.751642   -0.986912
     28          1           0       -2.228846   -2.676639    0.784271
     29          1           0       -2.259171   -1.545107    2.146891
     30          1           0       -0.736121   -0.003905    0.925125
     31          1           0       -0.765417   -1.057004   -0.482706
     32          1           0        0.279976   -2.882881    0.853478
     33          6           0        0.508722   -1.797749    2.688032
     34          1           0        1.658960    0.619645    1.374903
     35          1           0        2.052435   -3.185133   -0.567646
     36          1           0        4.141437   -2.399412   -1.656603
     37          8           0        5.179778   -0.049976   -1.444553
     38          6           0        6.222639    0.577917   -0.794542
     39          6           0        6.566310    0.309385    0.530996
     40          6           0        6.984835    1.462242   -1.558381
     41          6           0        8.093090    2.083217   -0.989976
     42          6           0        7.675553    0.943392    1.088949
     43          6           0        8.442922    1.830736    0.336696
     44          1           0        3.722222    1.394222    0.281152
     45          1           0       -0.363676   -2.260401    3.155531
     46          1           0        0.576270   -0.770613    3.058089
     47          1           0        1.395459   -2.336794    3.030853
     48          1           0        5.977803   -0.386152    1.115739
     49          1           0        6.698203    1.646675   -2.586663
     50          1           0        8.682732    2.770273   -1.586591
     51          1           0        7.942426    0.733018    2.118728
     52          1           0        9.304170    2.318359    0.777867
 ---------------------------------------------------------------------

 SCF Done:  E(UB3LYP) =  -1305.28090493     A.U. after   16 cycles

 The electronic state is 1-A.
 Alpha  occ. eigenvalues --  -19.18121 -19.17216 -19.15166 -19.13114 -10.29554
 Alpha  occ. eigenvalues --  -10.28271 -10.26962 -10.24714 -10.24261 -10.21312
 Alpha  occ. eigenvalues --  -10.21186 -10.20638 -10.20372 -10.20201 -10.20031
 Alpha  occ. eigenvalues --  -10.19994 -10.18563 -10.18535 -10.18492 -10.18398
 Alpha  occ. eigenvalues --  -10.18369 -10.18295 -10.18243 -10.18200 -10.18141
 Alpha  occ. eigenvalues --  -10.18133 -10.18018 -10.17812 -10.17374 -10.16064
 Alpha  occ. eigenvalues --   -1.11118  -1.09081  -1.06961  -1.06463  -0.89509
 Alpha  occ. eigenvalues --   -0.87628  -0.86313  -0.84701  -0.81638  -0.79034
 Alpha  occ. eigenvalues --   -0.78252  -0.76797  -0.76156  -0.75820  -0.74260
 Alpha  occ. eigenvalues --   -0.72070  -0.69666  -0.66826  -0.65639  -0.64523
 Alpha  occ. eigenvalues --   -0.63119  -0.62300  -0.61669  -0.60737  -0.59250
 Alpha  occ. eigenvalues --   -0.57651  -0.57007  -0.55727  -0.54515  -0.52307
 Alpha  occ. eigenvalues --   -0.51348  -0.50068  -0.49719  -0.48662  -0.48339
 Alpha  occ. eigenvalues --   -0.47703  -0.47295  -0.46911  -0.46175  -0.45554
 Alpha  occ. eigenvalues --   -0.45502  -0.45163  -0.44414  -0.43684  -0.43477
 Alpha  occ. eigenvalues --   -0.43222  -0.42866  -0.42323  -0.41572  -0.41239
 Alpha  occ. eigenvalues --   -0.40951  -0.40439  -0.40196  -0.38977  -0.38377
 Alpha  occ. eigenvalues --   -0.37928  -0.37580  -0.37406  -0.37269  -0.36554
 Alpha  occ. eigenvalues --   -0.36324  -0.35098  -0.34392  -0.33635  -0.33326
 Alpha  occ. eigenvalues --   -0.32824  -0.30551  -0.29224  -0.28253  -0.28130
 Alpha  occ. eigenvalues --   -0.27108  -0.26539  -0.26244  -0.25575  -0.23105
 Alpha virt. eigenvalues --   -0.12774  -0.05848  -0.03194  -0.02878  -0.02312
 Alpha virt. eigenvalues --   -0.01727  -0.01096  -0.00734  -0.00498   0.00041
 Alpha virt. eigenvalues --    0.00398   0.00909   0.01068   0.01375   0.01807

  Beta  occ. eigenvalues --  -19.18121 -19.17216 -19.15166 -19.13114 -10.29554
  Beta  occ. eigenvalues --  -10.28271 -10.26962 -10.24714 -10.24261 -10.21312
  Beta  occ. eigenvalues --  -10.21186 -10.20638 -10.20372 -10.20201 -10.20031
  Beta  occ. eigenvalues --  -10.19994 -10.18563 -10.18535 -10.18492 -10.18398
  Beta  occ. eigenvalues --  -10.18369 -10.18295 -10.18243 -10.18200 -10.18141
  Beta  occ. eigenvalues --  -10.18133 -10.18018 -10.17812 -10.17374 -10.16064
  Beta  occ. eigenvalues --   -1.11118  -1.09081  -1.06961  -1.06463  -0.89509
  Beta  occ. eigenvalues --   -0.87628  -0.86313  -0.84701  -0.81638  -0.79034
  Beta  occ. eigenvalues --   -0.78252  -0.76797  -0.76156  -0.75820  -0.74260
  Beta  occ. eigenvalues --   -0.72070  -0.69666  -0.66826  -0.65639  -0.64523
  Beta  occ. eigenvalues --   -0.63119  -0.62300  -0.61669  -0.60737  -0.59250
  Beta  occ. eigenvalues --   -0.57651  -0.57007  -0.55727  -0.54515  -0.52307
  Beta  occ. eigenvalues --   -0.51348  -0.50068  -0.49719  -0.48662  -0.48339
  Beta  occ. eigenvalues --   -0.47703  -0.47295  -0.46911  -0.46175  -0.45554
  Beta  occ. eigenvalues --   -0.45502  -0.45163  -0.44414  -0.43684  -0.43477
  Beta  occ. eigenvalues --   -0.43222  -0.42866  -0.42323  -0.41572  -0.41239
  Beta  occ. eigenvalues --   -0.40951  -0.40439  -0.40196  -0.38977  -0.38377
  Beta  occ. eigenvalues --   -0.37928  -0.37580  -0.37406  -0.37269  -0.36554
  Beta  occ. eigenvalues --   -0.36324  -0.35098  -0.34392  -0.33635  -0.33326
  Beta  occ. eigenvalues --   -0.32824  -0.30551  -0.29224  -0.28253  -0.28130
  Beta  occ. eigenvalues --   -0.27108  -0.26539  -0.26244  -0.25575  -0.23105
  Beta virt. eigenvalues --   -0.12774  -0.05848  -0.03194  -0.02878  -0.02312
  Beta virt. eigenvalues --   -0.01727  -0.01096  -0.00734  -0.00498   0.00041
  Beta virt. eigenvalues --    0.00398   0.00909   0.01068   0.01375   0.01807

 Mulliken charges and spin densities:
               1          2
     1  C    0.214910  -0.000000
     2  C   -0.353880   0.000000
     3  C   -0.413917   0.000000
     4  C    0.355334  -0.000000
     5  C    0.080067   0.000000
     6  C    0.227957  -0.000000
     7  C   -0.767487   0.000000
     8  C   -0.570372   0.000000
     9  C    1.783674  -0.000000
    10  C   -0.955035  -0.000000
    11  O   -0.308322   0.000000
    12  O   -0.254289  -0.000000
    13  O   -0.216772  -0.000000
    14  H    0.194533   0.000000
    15  H    0.208377   0.000000
    16  H    0.208462  -0.000000
    17  H    0.190313   0.000000
    18  H    0.306895   0.000000
    19  C   -0.208979   0.000000
    20  C   -1.044140  -0.000000
    21  C    0.260819   0.000000
    22  C    0.751821  -0.000000
    23  C   -0.233725  -0.000000
    24  C   -0.202389   0.000000
    25  C    0.012170   0.000000
    26  C   -0.595283   0.000000
    27  C   -0.171131  -0.000000
    28  H    0.227390  -0.000000
    29  H    0.245717   0.000000
    30  H    0.182436   0.000000
    31  H    0.206574  -0.000000
    32  H    0.205784  -0.000000
    33  C   -0.733322   0.000000
    34  H    0.185607   0.000000
    35  H    0.176126   0.000000
    36  H    0.216842  -0.000000
    37  O   -0.040714  -0.000000
    38  C   -0.386425   0.000000
    39  C    0.220605   0.000000
    40  C   -0.137904  -0.000000
    41  C   -0.231430   0.000000
    42  C   -0.124152  -0.000000
    43  C   -0.338687   0.000000
    44  H    0.200427  -0.000000
    45  H    0.136914  -0.000000
    46  H    0.170044  -0.000000
    47  H    0.156112   0.000000
    48  H    0.187208  -0.000000
    49  H    0.194943   0.000000
    50  H    0.197572  -0.000000
    51  H    0.209440  -0.000000
    52  H    0.173281   0.000000
 Sum of Mulliken charges =  -0.00000   0.00000

 Dipole moment (field-independent basis, Debye):
    X=             -3.0748    Y=              1.6942    Z=              0.4828  Tot=              3.5437
 Quadrupole moment (field-independent basis, Debye-Ang):
   XX=           -149.5220   YY=           -161.8474   ZZ=           -181.7474
   XY=            -11.1111   XZ=              7.7392   YZ=             -2.9526

 Normal termination of Gaussian 16 at Thu Jan 25 05:57:46 2024.
