 Q-Chem 5.4, Q-Chem, Inc., Pleasanton, CA (2021)
 Q-Chem 5.4.0 for Intel X86 EM64T Linux

User input:
--------------------------------------------------------------
$molecule
-2 1
O                  2.5529960000      2.5235070000     -0.2097480000
C                  2.4983150000      1.2393410000      0.0160680000
C                  3.6467830000      0.4663330000      0.2649630000
C                  3.5680080000     -0.9241390000      0.5084180000
C                  2.3577600000     -1.5861460000      0.5124630000
C                  1.1488080000     -0.8770380000      0.2689640000
C                 -0.1123590000     -1.6087610000      0.2801920000
O                 -0.1703810000     -2.8656320000      0.5021280000
C                 -1.2984070000     -0.8139980000      0.0228590000
C                 -2.5691730000     -1.4314120000      0.0120430000
C                 -3.7361590000     -0.7304130000     -0.2268940000
C                 -3.6654830000      0.6731780000     -0.4734960000
C                 -2.4506130000      1.3170140000     -0.4728080000
C                 -1.2259140000      0.6168880000     -0.2285160000
C                  0.0120610000      1.2699700000     -0.2276290000
O                  0.0605170000      2.6275040000     -0.4687300000
C                  1.2018010000      0.5399740000      0.0182630000
H                  1.0555990000      2.8322270000     -0.4093260000
H                  4.6053770000      0.9808530000      0.2638590000
H                  4.4879910000     -1.4799120000      0.6963570000
H                  2.2811470000     -2.6512650000      0.6975850000
H                 -2.5830140000     -2.5004590000      0.2037240000
H                 -4.6983350000     -1.2386380000     -0.2277620000
H                 -4.5779980000      1.2369450000     -0.6632700000
H                 -2.3893270000      2.3840790000     -0.6597080000
$end
$rem
MAX_SCF_CYCLES=200
BASIS  =  6-311++G(d,p)
GUI  =  2
JOB_TYPE  =  SP
METHOD  =  B3LYP
SOLVENT_METHOD = COSMO
$end
$solvent
dielectric 37.219
opticaldielectric 1.43
$end

--------------------------------------------------------------

             Standard Nuclear Orientation (Angstroms)
    I     Atom           X                Y                Z
 ----------------------------------------------------------------
    1      O       2.6605619003    -2.2272460742    -0.0008323587
    2      C       2.4853202863    -0.9340504445    -0.0000367156
    3      C       3.5595039871    -0.0259769236     0.0007962248
    4      C       3.3502782585     1.3722765627     0.0008519087
    5      C       2.0796429753     1.9093570752     0.0002589431
    6      C       0.9390359087     1.0592358329    -0.0002408851
    7      C      -0.3890311519     1.6611699607    -0.0003237098
    8      O      -0.5649425357     2.9266349893    -0.0008692877
    9      C      -1.4987670354     0.7267906890    -0.0002700572
   10      C      -2.8257228889     1.2119208470     0.0001205014
   11      C      -3.9252554223     0.3744395918     0.0005296951
   12      C      -3.7228854260    -1.0379773864     0.0004752670
   13      C      -2.4492645836    -1.5559775590     0.0000800656
   14      C      -1.2920211826    -0.7130480248    -0.0003060483
   15      C       0.0055135343    -1.2379314801    -0.0003604156
   16      O       0.1813189494    -2.6063131208     0.0002550282
   17      C       1.1250098556    -0.3686983194    -0.0003155008
   18      H       1.1942733623    -2.7040427595    -0.0006414728
   19      H       4.5650299729    -0.4413706825     0.0009478683
   20      H       4.2167143158     2.0354971528     0.0015022263
   21      H       1.9031409054     2.9786863925     0.0001123439
   22      H      -2.9399243113     2.2920841226     0.0001421544
   23      H      -4.9338044391     0.7829794682     0.0008598297
   24      H      -4.5811973772    -1.7086721244     0.0009104448
   25      H      -2.2878816293    -2.6289504521     0.0001839119
 ----------------------------------------------------------------

   11    -764.2081210296      8.36e-06  Convergence criterion met
 Total energy in the final basis set =     -764.2081210296
    6    -764.4750715328      3.05e-06  Convergence criterion met
 Total energy in the final basis set =     -764.4750715328

                    Orbital Energies (a.u.)
 --------------------------------------------------------------

 Alpha MOs
 -- Occupied --
-19.1013 -19.0555 -19.0379 -10.2026 -10.1930 -10.1915 -10.1578 -10.1557
-10.1545 -10.1541 -10.1534 -10.1524 -10.1482 -10.1464 -10.1444 -10.1334
-10.1306  -1.0167  -0.9628  -0.9584  -0.8385  -0.8137  -0.7649  -0.7353
 -0.7127  -0.7020  -0.6518  -0.6121  -0.5993  -0.5563  -0.5469  -0.5102
 -0.4981  -0.4833  -0.4505  -0.4399  -0.4357  -0.4206  -0.4060  -0.4019
 -0.3924  -0.3893  -0.3784  -0.3627  -0.3615  -0.3540  -0.3511  -0.3282
 -0.3257  -0.3223  -0.3110  -0.2921  -0.2565  -0.2397  -0.2329  -0.2232
 -0.2106  -0.1890  -0.1269

          Ground-State Mulliken Net Atomic Charges

     Atom                 Charge (a.u.)
  ----------------------------------------
      1 O                    -0.681818
      2 C                    -0.349691
      3 C                    -0.327442
      4 C                    -0.388252
      5 C                    -0.218151
      6 C                     0.479164
      7 C                    -0.339057
      8 O                    -0.654897
      9 C                    -0.083603
     10 C                    -0.030389
     11 C                    -0.516090
     12 C                    -0.454699
     13 C                    -0.153795
     14 C                     0.153410
     15 C                    -0.028289
     16 O                    -0.540606
     17 C                     0.537667
     18 H                     0.414587
     19 H                     0.159834
     20 H                     0.179411
     21 H                     0.146066
     22 H                     0.159885
     23 H                     0.184681
     24 H                     0.185464
     25 H                     0.166610
  ----------------------------------------
  Sum of atomic charges =    -2.000000

                    Cartesian Multipole Moments
 -----------------------------------------------------------------
    Charge (ESU x 10^10)
                -9.6064
    Dipole Moment (Debye)
         X      -5.5885      Y      -1.2753      Z       0.0046
       Tot       5.7321
    Quadrupole Moments (Debye-Ang)
        XX    -139.9308     XY      17.9993     YY    -157.5311
        XZ       0.0054     YZ       0.0057     ZZ    -110.8575

 Total job time:  64.11s(wall), 494.15s(cpu)
        *  Thank you very much for using Q-Chem.  Have a nice day.  *
