 Q-Chem 5.4, Q-Chem, Inc., Pleasanton, CA (2021)
 Q-Chem 5.4.0 for Intel X86 EM64T Linux

User input:
--------------------------------------------------------------
$molecule
-1 2
O                  1.2631780000      1.2725120000      2.3292520000
C                  0.6857350000      0.7301050000      1.3383400000
C                 -0.7360790000      0.5148360000      1.3225030000
C                 -1.4484950000      0.0070760000      0.2516640000
N                 -2.8542870000     -0.0794860000      0.2668630000
C                 -3.5727500000      0.5275820000      1.3764460000
C                 -5.1007840000      0.4209280000      1.1699660000
C                 -5.4506720000      0.3779660000     -0.3208070000
C                 -4.8253000000     -0.8765860000     -0.9684210000
C                 -3.5187410000     -1.2742740000     -0.2527930000
C                 -0.7281240000     -0.3502900000     -0.9800000000
O                 -1.3181580000     -0.7587210000     -2.0270280000
C                  0.7013460000     -0.2072110000     -0.9355360000
C                  1.4151780000      0.2929040000      0.1394960000
N                  2.8060070000      0.4877000000      0.0808150000
C                  3.4658960000      0.3511690000     -1.2091220000
C                  4.9406940000      0.7437610000     -1.1017450000
C                  5.7081480000     -0.2130970000     -0.1618960000
C                  4.7656470000     -0.7801490000      0.9213950000
C                  3.6438990000      0.2098080000      1.2615480000
H                 -1.2349010000      0.8179770000      2.2349520000
H                 -3.2728090000      1.5791660000      1.4377850000
H                 -3.3059870000      0.0665240000      2.3466530000
H                 -5.5897460000      1.2631080000      1.6710180000
H                 -5.4817360000     -0.4876810000      1.6514940000
H                 -6.5370900000      0.3909080000     -0.4654650000
H                 -5.0543840000      1.2759740000     -0.8048270000
H                 -5.5294290000     -1.7176120000     -0.9252600000
H                 -4.6101600000     -0.6838520000     -2.0230410000
H                 -2.8463010000     -1.7636760000     -0.9503790000
H                 -3.7347390000     -1.9736710000      0.5780350000
H                  1.1998640000     -0.5120510000     -1.8476370000
H                  3.3980850000     -0.6784480000     -1.6113490000
H                  2.9505790000      0.9925910000     -1.9312770000
H                  5.3904850000      0.7494860000     -2.1000860000
H                  4.9976740000      1.7692320000     -0.7220740000
H                  6.5431790000      0.3219980000      0.3043120000
H                  6.1495920000     -1.0342440000     -0.7382950000
H                  5.3257240000     -1.0238620000      1.8311750000
H                  4.3133580000     -1.7148860000      0.5723110000
H                  3.0097670000     -0.1745180000      2.0547870000
H                  4.0766380000      1.1409990000      1.6522470000
$end
$rem
MAX_SCF_CYCLES=200
BASIS  =  6-311++G(d,p)
GUI  =  2
JOB_TYPE  =  SP
METHOD  =  B3LYP
SOLVENT_METHOD = COSMO
$end
$solvent
dielectric 37.219
opticaldielectric 1.43
$end

--------------------------------------------------------------

             Standard Nuclear Orientation (Angstroms)
    I     Atom           X                Y                Z
 ----------------------------------------------------------------
    1      O       1.3020012354    -2.4779137370     0.3504109428
    2      C       0.7101180984    -1.3663526502     0.1965972050
    3      C      -0.7180745742    -1.2898404362     0.0464034148
    4      C      -1.4434044261    -0.1159941090    -0.0432310912
    5      N      -2.8513591051    -0.1122961649    -0.0835434211
    6      C      -3.5528797540    -1.3679834134     0.1332822830
    7      C      -5.0829008409    -1.1499832317     0.1534903387
    8      C      -5.4287751379     0.2636923477     0.6315738152
    9      C      -4.8437285159     1.3043238191    -0.3478144341
   10      C      -3.5538374484     0.7771900744    -1.0078800743
   11      C      -0.7311364839     1.1696179955     0.0160727006
   12      O      -1.3308932629     2.2882979498     0.0076702237
   13      C       0.7021755250     1.0907909382     0.0884336606
   14      C       1.4286482967    -0.0843877553     0.1694107498
   15      N       2.8254471594    -0.0841151793     0.3267228968
   16      C       3.4849108371     1.1807237309     0.6153781571
   17      C       4.9717061517     0.9582715782     0.8993538102
   18      C       5.7031781458     0.4060045218    -0.3447638841
   19      C       4.7382978874    -0.4275969345    -1.2151030107
   20      C       3.6493335475    -1.0931739663    -0.3635154451
   21      H      -1.2096205111    -2.2550257646     0.0374087058
   22      H      -3.2179111900    -1.7807491520     1.0908711779
   23      H      -3.3052208055    -2.1214379394    -0.6387345062
   24      H      -5.5449867407    -1.9114779668     0.7906767214
   25      H      -5.4959341427    -1.2969957652    -0.8516737089
   26      H      -6.5136237868     0.3864878793     0.7286416745
   27      H      -5.0007628672     0.4167773218     1.6271180855
   28      H      -5.5759306565     1.5439427000    -1.1297658843
   29      H      -4.6184998176     2.2323074489     0.1848894002
   30      H      -2.8958042256     1.6050579920    -1.2527128484
   31      H      -3.7961978067     0.2319105642    -1.9406277238
   32      H       1.1933591883     2.0562241709     0.0957232530
   33      H       3.3838817290     1.9084793497    -0.2132719117
   34      H       2.9940396587     1.6375676600     1.4807224511
   35      H       5.4249544777     1.8988203973     1.2294497741
   36      H       5.0618504245     0.2530489681     1.7321338777
   37      H       6.5541066226    -0.2075453688    -0.0278560293
   38      H       6.1187475119     1.2308176645    -0.9349980660
   39      H       5.2866357245    -1.1957336830    -1.7719454236
   40      H       4.2560192155     0.2147969482    -1.9600161733
   41      H       2.9998228127    -1.7136268795    -0.9736236049
   42      H       4.1118071753    -1.7736558931     0.3645559251
 ----------------------------------------------------------------

   11    -883.1642527367      5.56e-06  Convergence criterion met
 Total energy in the final basis set =     -883.1642527367
    4    -883.2554738283      5.66e-06  Convergence criterion met
 Total energy in the final basis set =     -883.2554738283

                    Orbital Energies (a.u.)
 --------------------------------------------------------------

 Alpha MOs
 -- Occupied --
-19.0652 -19.0642 -14.3164 -14.3141 -10.2123 -10.2123 -10.1952 -10.1943
-10.1888 -10.1878 -10.1834 -10.1790 -10.1600 -10.1597 -10.1582 -10.1578
-10.1561 -10.1538 -10.1415 -10.1401  -0.9917  -0.9881  -0.9320  -0.9314
 -0.8145  -0.7943  -0.7720  -0.7477  -0.7443  -0.7187  -0.6795  -0.6537
 -0.6342  -0.6250  -0.6170  -0.5803  -0.5591  -0.5315  -0.5226  -0.5050
 -0.4943  -0.4918  -0.4843  -0.4691  -0.4470  -0.4359  -0.4281  -0.4230
 -0.4128  -0.4082  -0.4013  -0.3985  -0.3968  -0.3949  -0.3905  -0.3827
 -0.3777  -0.3694  -0.3600  -0.3572  -0.3544  -0.3480  -0.3336  -0.3281
 -0.3168  -0.3117  -0.3109  -0.3097  -0.2816  -0.2779  -0.2345  -0.2311
 -0.2150  -0.1930  -0.1398

 Beta MOs
 -- Occupied --
-19.0594 -19.0588 -14.3148 -14.3128 -10.2103 -10.2103 -10.1935 -10.1925
-10.1889 -10.1879 -10.1833 -10.1789 -10.1600 -10.1597 -10.1582 -10.1577
-10.1561 -10.1538 -10.1417 -10.1405  -0.9821  -0.9783  -0.9291  -0.9280
 -0.8108  -0.7935  -0.7701  -0.7474  -0.7440  -0.7171  -0.6725  -0.6527
 -0.6335  -0.6245  -0.6138  -0.5782  -0.5561  -0.5306  -0.5217  -0.5041
 -0.4927  -0.4897  -0.4820  -0.4674  -0.4453  -0.4347  -0.4255  -0.4212
 -0.4098  -0.4064  -0.3988  -0.3970  -0.3947  -0.3888  -0.3848  -0.3801
 -0.3734  -0.3641  -0.3590  -0.3539  -0.3464  -0.3419  -0.3297  -0.3260
 -0.3158  -0.3113  -0.3103  -0.3087  -0.2730  -0.2602  -0.2293  -0.2259
 -0.2017  -0.1842

          Ground-State Mulliken Net Atomic Charges

     Atom                 Charge (a.u.)    Spin (a.u.)
  --------------------------------------------------------
      1 O                    -0.550298       0.205705
      2 C                    -0.223889       0.153506
      3 C                     0.079415      -0.070482
      4 C                    -0.365277       0.176838
      5 N                     0.357435       0.049973
      6 C                    -0.129147       0.000904
      7 C                    -0.581782      -0.001161
      8 C                    -0.270143      -0.001004
      9 C                    -0.314997       0.012417
     10 C                    -0.404736      -0.003601
     11 C                    -0.056728       0.136068
     12 O                    -0.559210       0.190814
     13 C                     0.062765      -0.099685
     14 C                    -0.392556       0.163370
     15 N                     0.239353       0.061454
     16 C                    -0.094176      -0.003748
     17 C                    -0.528613      -0.001830
     18 C                    -0.502695       0.000618
     19 C                    -0.359450       0.000649
     20 C                    -0.203755       0.014391
     21 H                     0.223216      -0.003486
     22 H                     0.176366       0.001088
     23 H                     0.140460       0.007304
     24 H                     0.176780       0.000311
     25 H                     0.151423      -0.000573
     26 H                     0.184806       0.000097
     27 H                     0.141192       0.000509
     28 H                     0.139635       0.001268
     29 H                     0.153385       0.000497
     30 H                     0.201448      -0.007130
     31 H                     0.172275       0.007872
     32 H                     0.215212      -0.003190
     33 H                     0.137151       0.008028
     34 H                     0.197419       0.001519
     35 H                     0.180527       0.000453
     36 H                     0.176582       0.000266
     37 H                     0.155460      -0.000108
     38 H                     0.153525      -0.000141
     39 H                     0.180914       0.001303
     40 H                     0.165215       0.000014
     41 H                     0.205728      -0.003651
     42 H                     0.169745       0.002552
  --------------------------------------------------------
  Sum of atomic charges =    -1.000021

                    Cartesian Multipole Moments
 -----------------------------------------------------------------
    Charge (ESU x 10^10)
                -4.8033
    Dipole Moment (Debye)
         X       0.7296      Y       0.4235      Z      -1.9241
       Tot       2.1009
    Quadrupole Moments (Debye-Ang)
        XX    -115.9714     XY      20.9094     YY    -157.3344
        XZ      -0.6732     YZ       2.7289     ZZ    -127.0817

 Total job time:  187.98s(wall), 1406.73s(cpu)
        *  Thank you very much for using Q-Chem.  Have a nice day.  *
