 Gaussian 16, Revision A.03,
 Gaussian 16:  ES64L-G16RevA.03 25-Dec-2016

 ----------------------------------------------------------------------
 #P UB3LYP/6-311++G(d,p) nosym opt freq SCRF=(PCM,Solvent=n,n-DiMethylF
 ormamide)
 ----------------------------------------------------------------------

 -------
 Radical
 -------
 Symbolic Z-matrix:
 Charge = -1 Multiplicity = 2

 SCF Done:  E(UB3LYP) =  -1148.70802991     A.U. after   20 cycles
 SCF Done:  E(UB3LYP) =  -1148.70822542     A.U. after   16 cycles
 SCF Done:  E(UB3LYP) =  -1148.70825135     A.U. after   13 cycles
 SCF Done:  E(UB3LYP) =  -1148.70825673     A.U. after   13 cycles
 SCF Done:  E(UB3LYP) =  -1148.70825727     A.U. after   10 cycles
 SCF Done:  E(UB3LYP) =  -1148.70825755     A.U. after   10 cycles
 Optimization completed.
    -- Stationary point found.
 Normal termination of Gaussian 16 at Sat Feb 10 16:26:17 2024.

 ----------------------------------------------------------------------
 #P Geom=AllCheck Guess=TCheck SCRF=Check GenChk UB3LYP/6-311++G(d,p) F
 req
 ----------------------------------------------------------------------

 Structure from the checkpoint file:  "117-rad.chk"
 -------
 Radical
 -------
 Charge = -1 Multiplicity = 2

                          Input orientation:
 ---------------------------------------------------------------------
 Center     Atomic      Atomic             Coordinates (Angstroms)
 Number     Number       Type             X           Y           Z
 ---------------------------------------------------------------------
      1         17           0        3.007243    2.863736    0.337334
      2          6           0        2.624595    1.131159    0.262694
      3          6           0        3.728849    0.305728    0.341727
      4          6           0        3.570340   -1.089850    0.295723
      5          6           0        2.308303   -1.624538    0.171675
      6          6           0        1.165940   -0.800510    0.088544
      7          6           0       -0.130641   -1.467408   -0.042469
      8          8           0       -0.220719   -2.726742   -0.076274
      9          6           0       -1.307549   -0.616069   -0.131676
     10          6           0       -2.589363   -1.198715   -0.263815
     11          6           0       -3.722838   -0.416356   -0.348492
     12          6           0       -3.609845    0.989680   -0.303255
     13          6           0       -2.367347    1.578062   -0.175805
     14          6           0       -1.191207    0.798261   -0.087666
     15          6           0        0.101213    1.481373    0.045074
     16          8           0        0.143717    2.737855    0.078524
     17          6           0        1.295984    0.633166    0.132725
     18          1           0        4.714417    0.742502    0.439296
     19          1           0        4.442813   -1.730040    0.358296
     20          1           0        2.156318   -2.695491    0.133890
     21          1           0       -2.655858   -2.279306   -0.297191
     22          1           0       -4.698851   -0.878543   -0.449477
     23          1           0       -4.499589    1.606502   -0.369001
     24          1           0       -2.265924    2.655545   -0.140381
 ---------------------------------------------------------------------

 SCF Done:  E(UB3LYP) =  -1148.70825755     A.U. after    1 cycles

 Alpha  occ. eigenvalues -- -101.54658 -19.07707 -19.07615 -10.23920 -10.23138
 Alpha  occ. eigenvalues --  -10.22632 -10.19147 -10.18184 -10.18166 -10.17873
 Alpha  occ. eigenvalues --  -10.17582 -10.17474 -10.17451 -10.17401 -10.17327
 Alpha  occ. eigenvalues --  -10.17191 -10.17128  -9.46139  -7.22589  -7.21663
 Alpha  occ. eigenvalues --   -7.21553  -1.00518  -1.00101  -0.88686  -0.85927
 Alpha  occ. eigenvalues --   -0.83453  -0.78967  -0.75219  -0.74539  -0.73840
 Alpha  occ. eigenvalues --   -0.67083  -0.64245  -0.62364  -0.58638  -0.55612
 Alpha  occ. eigenvalues --   -0.54025  -0.52833  -0.47763  -0.47203  -0.46570
 Alpha  occ. eigenvalues --   -0.45979  -0.43197  -0.42868  -0.42565  -0.41739
 Alpha  occ. eigenvalues --   -0.41424  -0.40666  -0.38813  -0.38261  -0.38009
 Alpha  occ. eigenvalues --   -0.35839  -0.35132  -0.34921  -0.33819  -0.32894
 Alpha  occ. eigenvalues --   -0.31473  -0.27231  -0.25803  -0.25395  -0.25243
 Alpha  occ. eigenvalues --   -0.24653  -0.23422  -0.14516
 Alpha virt. eigenvalues --   -0.05919  -0.02731  -0.00929  -0.00228   0.00475
 Alpha virt. eigenvalues --    0.00834   0.01701   0.02332   0.02953   0.04353
 Alpha virt. eigenvalues --    0.04450   0.04567   0.04758   0.05319   0.05698

  Beta  occ. eigenvalues -- -101.54656 -19.07147 -19.07037 -10.23914 -10.22987
  Beta  occ. eigenvalues --  -10.22454 -10.19057 -10.18113 -10.18085 -10.17809
  Beta  occ. eigenvalues --  -10.17505 -10.17417 -10.17413 -10.17357 -10.17328
  Beta  occ. eigenvalues --  -10.17179 -10.17133  -9.46137  -7.22589  -7.21654
  Beta  occ. eigenvalues --   -7.21552  -0.99525  -0.99102  -0.88551  -0.85732
  Beta  occ. eigenvalues --   -0.83334  -0.78582  -0.75007  -0.74354  -0.73642
  Beta  occ. eigenvalues --   -0.66360  -0.64065  -0.62102  -0.58565  -0.55382
  Beta  occ. eigenvalues --   -0.53780  -0.52696  -0.47459  -0.47114  -0.46400
  Beta  occ. eigenvalues --   -0.45892  -0.43149  -0.42527  -0.41728  -0.41603
  Beta  occ. eigenvalues --   -0.40857  -0.40379  -0.38150  -0.38116  -0.36061
  Beta  occ. eigenvalues --   -0.35775  -0.35001  -0.34013  -0.33683  -0.32224
  Beta  occ. eigenvalues --   -0.31404  -0.25408  -0.25116  -0.24771  -0.24387
  Beta  occ. eigenvalues --   -0.24137  -0.22920
  Beta virt. eigenvalues --   -0.08604  -0.04963  -0.01664  -0.00695  -0.00213
  Beta virt. eigenvalues --    0.00477   0.00848   0.01709   0.02341   0.02965
  Beta virt. eigenvalues --    0.04472   0.04516   0.04577   0.05329   0.05383

 Mulliken charges and spin densities:
               1          2
     1  Cl   0.342754   0.000107
     2  C    0.990894   0.024315
     3  C   -0.086875   0.044848
     4  C   -0.611511   0.049091
     5  C    0.276326   0.024086
     6  C    0.231612   0.045971
     7  C   -0.771672   0.100130
     8  O   -0.452698   0.208647
     9  C    0.014538   0.005627
    10  C    0.097409   0.034367
    11  C   -0.420948   0.024396
    12  C   -0.450654   0.036457
    13  C    0.171721   0.023901
    14  C    0.069030   0.041357
    15  C   -1.269231   0.081927
    16  O   -0.357319   0.213015
    17  C   -0.035209   0.059094
    18  H    0.201904  -0.003347
    19  H    0.186809  -0.003824
    20  H    0.172971  -0.001472
    21  H    0.166283  -0.001937
    22  H    0.181496  -0.002124
    23  H    0.182907  -0.003066
    24  H    0.169466  -0.001566
 Sum of Mulliken charges =  -1.00000   1.00000

 Dipole moment (field-independent basis, Debye):
    X=             -1.0441    Y=             -2.0449    Z=             -0.1654  Tot=              2.3019
 Quadrupole moment (field-independent basis, Debye-Ang):
   XX=           -103.0482   YY=           -145.0730   ZZ=           -111.5057
   XY=            -10.1672   XZ=              0.5327   YZ=             -1.6415

  Exact polarizability: 459.156   2.682 374.286  29.491   5.722 135.649
 Approx polarizability: 470.611  -0.732 447.149  28.633   6.680 155.739

                      1                      2                      3
                      A                      A                      A
 Frequencies --     39.0978                55.9735               123.2877
 Red. masses --     11.1625                 6.9630                 4.5286
 Frc consts  --      0.0101                 0.0129                 0.0406
 IR Inten    --      7.2042                 9.0117                 0.0010

                      4                      5                      6
                      A                      A                      A
 Frequencies --    162.0367               180.9757               198.5063
 Red. masses --      7.4026                 9.8863                 4.6685
 Frc consts  --      0.1145                 0.1908                 0.1084
 IR Inten    --      3.5388                 7.9296                 0.1601

                      7                      8                      9
                      A                      A                      A
 Frequencies --    251.1792               272.7539               324.2068
 Red. masses --      5.6674                 7.7012                10.4907
 Frc consts  --      0.2107                 0.3376                 0.6497
 IR Inten    --      0.0689                 1.4429                 0.0424

                     10                     11                     12
                      A                      A                      A
 Frequencies --    366.5753               390.4000               408.0372
 Red. masses --      7.2229                12.2227                 7.9933
 Frc consts  --      0.5719                 1.0976                 0.7841
 IR Inten    --      2.6236                25.7616                 3.9321

                     13                     14                     15
                      A                      A                      A
 Frequencies --    417.1080               434.9770               463.4267
 Red. masses --      6.0270                 3.3670                 8.9101
 Frc consts  --      0.6178                 0.3753                 1.1274
 IR Inten    --      0.0230                 0.9647                 5.2599

                     16                     17                     18
                      A                      A                      A
 Frequencies --    496.8896               500.4914               532.6290
 Red. masses --     12.0118                 3.8977                 4.7754
 Frc consts  --      1.7473                 0.5752                 0.7982
 IR Inten    --      1.4003                 0.5742                 6.1871

                     19                     20                     21
                      A                      A                      A
 Frequencies --    611.4205               638.2881               651.9145
 Red. masses --      6.6087                 4.5239                 7.0267
 Frc consts  --      1.4556                 1.0859                 1.7595
 IR Inten    --     41.4364                 3.1060                31.7508

                     22                     23                     24
                      A                      A                      A
 Frequencies --    690.0180               708.8155               727.8739
 Red. masses --      7.0951                 2.3226                 3.9740
 Frc consts  --      1.9904                 0.6875                 1.2405
 IR Inten    --      1.5785               131.2782                 1.7127

                     25                     26                     27
                      A                      A                      A
 Frequencies --    748.9376               778.8486               795.8228
 Red. masses --      7.3868                 1.5373                 2.3232
 Frc consts  --      2.4412                 0.5494                 0.8669
 IR Inten    --     94.8145                 3.2669                51.1199

                     28                     29                     30
                      A                      A                      A
 Frequencies --    814.8288               818.5469               888.0720
 Red. masses --      2.8088                 6.9972                 1.4777
 Frc consts  --      1.0988                 2.7623                 0.6866
 IR Inten    --     32.4623                35.5503                 0.0471

                     31                     32                     33
                      A                      A                      A
 Frequencies --    916.4531               932.1907               952.8889
 Red. masses --      1.3867                 6.8344                 7.6603
 Frc consts  --      0.6862                 3.4991                 4.0981
 IR Inten    --      0.0159                 8.3871                55.0282

                     34                     35                     36
                      A                      A                      A
 Frequencies --    991.8993               998.0102              1004.4888
 Red. masses --      1.3588                 1.3191                 1.2932
 Frc consts  --      0.7877                 0.7741                 0.7688
 IR Inten    --      2.0345                 2.1017                 0.0240

                     37                     38                     39
                      A                      A                      A
 Frequencies --   1039.7149              1087.0497              1113.4751
 Red. masses --      2.0268                 2.0912                 2.1523
 Frc consts  --      1.2909                 1.4560                 1.5722
 IR Inten    --     27.2626                38.0048                31.2627

                     40                     41                     42
                      A                      A                      A
 Frequencies --   1122.5599              1146.3869              1169.0873
 Red. masses --      3.1396                 1.5452                 1.5923
 Frc consts  --      2.3310                 1.1964                 1.2822
 IR Inten    --     15.1679                41.5134                 6.8073

                     43                     44                     45
                      A                      A                      A
 Frequencies --   1193.4448              1201.3888              1228.9380
 Red. masses --      1.9256                 2.0142                 2.4708
 Frc consts  --      1.6159                 1.7129                 2.1987
 IR Inten    --      4.7631                 6.6545                29.7365

                     46                     47                     48
                      A                      A                      A
 Frequencies --   1246.0656              1321.6709              1351.2479
 Red. masses --      2.0811                 5.8759                 2.7798
 Frc consts  --      1.9039                 6.0474                 2.9904
 IR Inten    --    295.0282                24.4852                20.9018

                     49                     50                     51
                      A                      A                      A
 Frequencies --   1366.0770              1389.7537              1429.0334
 Red. masses --     10.6974                 3.5181                 2.5845
 Frc consts  --     11.7619                 4.0034                 3.1097
 IR Inten    --      0.5116              1018.0123               362.6790

                     52                     53                     54
                      A                      A                      A
 Frequencies --   1479.4086              1481.0524              1501.9720
 Red. masses --      2.8712                 3.0833                 4.2921
 Frc consts  --      3.7024                 3.9847                 5.7048
 IR Inten    --     91.3515                71.4621              1284.3015

                     55                     56                     57
                      A                      A                      A
 Frequencies --   1525.4094              1554.0150              1605.5220
 Red. masses --      6.2439                 5.4868                 8.3289
 Frc consts  --      8.5601                 7.8070                12.6495
 IR Inten    --    105.2473               106.9178                 9.8821

                     58                     59                     60
                      A                      A                      A
 Frequencies --   1611.7170              1630.0276              3160.2994
 Red. masses --      5.7758                 6.0035                 1.0862
 Frc consts  --      8.8397                 9.3983                 6.3919
 IR Inten    --      4.0142                 4.4188                14.0589

                     61                     62                     63
                      A                      A                      A
 Frequencies --   3174.0428              3174.4680              3192.4293
 Red. masses --      1.0876                 1.0908                 1.0917
 Frc consts  --      6.4559                 6.4764                 6.5555
 IR Inten    --     16.7307                23.4353                13.4593

                     64                     65                     66
                      A                      A                      A
 Frequencies --   3195.4197              3196.1168              3201.3611
 Red. masses --      1.0940                 1.0912                 1.0951
 Frc consts  --      6.5815                 6.5675                 6.6125
 IR Inten    --     44.4655                 6.1487                21.5524

 - Thermochemistry -
 -------------------
 Temperature   298.150 Kelvin.  Pressure   1.00000 Atm.
 Atom     1 has atomic number 17 and mass  34.96885

 Molecular mass:   242.01346 amu.
 Principal axes and moments of inertia in atomic units:
                           1         2         3
     Eigenvalues --  2374.664275187.830997562.48669
           X            0.96252  -0.25589  -0.08988
           Y            0.25488   0.96671  -0.02270
           Z            0.09269  -0.00106   0.99569
 This molecule is an asymmetric top.
 Rotational symmetry number  1.
 Warning -- assumption of classical behavior for rotation
           may cause significant error
 Rotational temperatures (Kelvin)      0.03647     0.01670     0.01145
 Rotational constants (GHZ):           0.76000     0.34788     0.23864
 Zero-point vibrational energy     438892.1 (Joules/Mol)
                                  104.89772 (Kcal/Mol)
 Warning -- explicit consideration of  19 degrees of freedom as
           vibrations may cause significant error
 Vibrational temperatures:     56.25    80.53   177.38   233.13   260.38
          (Kelvin)            285.61   361.39   392.43   466.46   527.42
                              561.70   587.07   600.13   625.83   666.77
                              714.91   720.10   766.33   879.70   918.35
                              937.96   992.78  1019.83  1047.25  1077.55
                             1120.59  1145.01  1172.36  1177.71  1277.74
                             1318.57  1341.21  1370.99  1427.12  1435.91
                             1445.24  1495.92  1564.02  1602.04  1615.11
                             1649.40  1682.06  1717.10  1728.53  1768.17
                             1792.81  1901.59  1944.14  1965.48  1999.55
                             2056.06  2128.54  2130.90  2161.00  2194.72
                             2235.88  2309.99  2318.90  2345.25  4546.97
                             4566.74  4567.35  4593.19  4597.50  4598.50
                             4606.04

 Zero-point correction=                           0.167165 (Hartree/Particle)
 Thermal correction to Energy=                    0.179668
 Thermal correction to Enthalpy=                  0.180612
 Thermal correction to Gibbs Free Energy=         0.126812
 Sum of electronic and zero-point Energies=          -1148.541092
 Sum of electronic and thermal Energies=             -1148.528589
 Sum of electronic and thermal Enthalpies=           -1148.527645
 Sum of electronic and thermal Free Energies=        -1148.581445

                     E (Thermal)             CV                S
                      KCal/Mol        Cal/Mol-Kelvin    Cal/Mol-Kelvin
 Total                  112.744             50.058            113.232
 Electronic               0.000              0.000              1.377
 Translational            0.889              2.981             42.353
 Rotational               0.889              2.981             32.899
 Vibrational            110.966             44.097             36.603
 Vibration     1          0.594              1.981              5.304
 Vibration     2          0.596              1.975              4.594
 Vibration     3          0.610              1.930              3.048
 Vibration     4          0.622              1.889              2.526
 Vibration     5          0.630              1.866              2.318
 Vibration     6          0.637              1.842              2.147
 Vibration     7          0.663              1.761              1.722
 Vibration     8          0.676              1.724              1.579
 Vibration     9          0.709              1.627              1.289
 Vibration    10          0.739              1.541              1.094
 Vibration    11          0.758              1.491              0.999
 Vibration    12          0.773              1.453              0.934
 Vibration    13          0.780              1.433              0.902
 Vibration    14          0.796              1.394              0.843
 Vibration    15          0.821              1.331              0.756
 Vibration    16          0.852              1.257              0.666
 Vibration    17          0.856              1.249              0.657
 Vibration    18          0.888              1.178              0.581
 Vibration    19          0.971              1.008              0.430

 Optimization completed.
    -- Stationary point found.
 Normal termination of Gaussian 16 at Sat Feb 10 17:28:46 2024.
