 Gaussian 16, Revision A.03,
 Gaussian 16:  ES64L-G16RevA.03 25-Dec-2016

 ----------------------------------------------------------------
 #P UB3LYP/6-311++G(d,p) SCRF=(PCM,Solvent=n,n-DiMethylFormamide)
 ----------------------------------------------------------------

 ------------------
 Quinone PCM in DMF
 ------------------
 Symbolic Z-matrix:
 Charge =  0 Multiplicity = 1

                         Standard orientation:
 ---------------------------------------------------------------------
 Center     Atomic      Atomic             Coordinates (Angstroms)
 Number     Number       Type             X           Y           Z
 ---------------------------------------------------------------------
      1          8           0        0.000003    2.845208    0.598254
      2          6           0       -0.000000    1.665099    0.297597
      3          6           0        1.293034    0.945139    0.062352
      4          6           0        2.453918    1.711678   -0.098728
      5          6           0        3.670419    1.104053   -0.385511
      6          6           0        3.748117   -0.282289   -0.524269
      7          6           0        2.608274   -1.065713   -0.364017
      8          6           0        1.398161   -0.445615   -0.071966
      9         16           0        0.000000   -1.511202    0.295405
     10          8           0       -0.000003   -1.783069    1.736303
     11          6           0       -1.398158   -0.445612   -0.071972
     12          6           0       -2.608270   -1.065711   -0.364023
     13          6           0       -3.748116   -0.282291   -0.524270
     14          6           0       -3.670421    1.104051   -0.385508
     15          6           0       -2.453921    1.711677   -0.098725
     16          6           0       -1.293036    0.945143    0.062351
     17          1           0        2.371834    2.787032   -0.001976
     18          1           0        4.559449    1.711301   -0.508949
     19          1           0        4.694665   -0.755062   -0.758797
     20          1           0        2.650301   -2.142946   -0.468655
     21          1           0       -2.650294   -2.142944   -0.468662
     22          1           0       -4.694663   -0.755065   -0.758797
     23          1           0       -4.559454    1.711297   -0.508940
     24          1           0       -2.371844    2.787032   -0.001970
     25          8           0        0.000000   -2.639523   -0.640755
 ---------------------------------------------------------------------

 SCF Done:  E(UB3LYP) =  -1124.22504661     A.U. after   16 cycles

 The electronic state is 1-A.
 Alpha  occ. eigenvalues --  -89.07632 -19.14229 -19.14124 -19.14066 -10.29761
 Alpha  occ. eigenvalues --  -10.24058 -10.24058 -10.22586 -10.22585 -10.21410
 Alpha  occ. eigenvalues --  -10.21410 -10.20931 -10.20931 -10.20867 -10.20867
 Alpha  occ. eigenvalues --  -10.20549 -10.20549  -8.14070  -6.10320  -6.10226
 Alpha  occ. eigenvalues --   -6.10207  -1.13803  -1.07800  -1.03156  -0.90934
 Alpha  occ. eigenvalues --   -0.89826  -0.82422  -0.79825  -0.79267  -0.78594
 Alpha  occ. eigenvalues --   -0.71918  -0.68422  -0.65917  -0.63391  -0.61701
 Alpha  occ. eigenvalues --   -0.58206  -0.58131  -0.53278  -0.51164  -0.50260
 Alpha  occ. eigenvalues --   -0.50157  -0.49672  -0.48479  -0.46979  -0.46380
 Alpha  occ. eigenvalues --   -0.46204  -0.46060  -0.44838  -0.41185  -0.41037
 Alpha  occ. eigenvalues --   -0.39703  -0.39380  -0.38901  -0.38890  -0.35812
 Alpha  occ. eigenvalues --   -0.35546  -0.34224  -0.32371  -0.29695  -0.29408
 Alpha  occ. eigenvalues --   -0.29030  -0.28795  -0.28618
 Alpha virt. eigenvalues --   -0.11350  -0.06370  -0.04975  -0.04049  -0.00997
 Alpha virt. eigenvalues --    0.00126   0.00796   0.01355   0.01780   0.02062
 Alpha virt. eigenvalues --    0.02593   0.03425   0.03537   0.03991   0.04726

  Beta  occ. eigenvalues --  -89.07632 -19.14229 -19.14124 -19.14066 -10.29761
  Beta  occ. eigenvalues --  -10.24058 -10.24058 -10.22586 -10.22585 -10.21410
  Beta  occ. eigenvalues --  -10.21410 -10.20931 -10.20931 -10.20867 -10.20867
  Beta  occ. eigenvalues --  -10.20549 -10.20549  -8.14070  -6.10320  -6.10226
  Beta  occ. eigenvalues --   -6.10207  -1.13803  -1.07800  -1.03156  -0.90934
  Beta  occ. eigenvalues --   -0.89826  -0.82422  -0.79825  -0.79267  -0.78594
  Beta  occ. eigenvalues --   -0.71918  -0.68422  -0.65917  -0.63391  -0.61701
  Beta  occ. eigenvalues --   -0.58206  -0.58131  -0.53278  -0.51164  -0.50260
  Beta  occ. eigenvalues --   -0.50157  -0.49672  -0.48479  -0.46979  -0.46380
  Beta  occ. eigenvalues --   -0.46204  -0.46060  -0.44838  -0.41185  -0.41037
  Beta  occ. eigenvalues --   -0.39703  -0.39380  -0.38901  -0.38890  -0.35812
  Beta  occ. eigenvalues --   -0.35546  -0.34224  -0.32371  -0.29695  -0.29408
  Beta  occ. eigenvalues --   -0.29030  -0.28795  -0.28618
  Beta virt. eigenvalues --   -0.11350  -0.06370  -0.04975  -0.04049  -0.00997
  Beta virt. eigenvalues --    0.00126   0.00796   0.01355   0.01780   0.02062
  Beta virt. eigenvalues --    0.02593   0.03425   0.03537   0.03991   0.04726

 Mulliken charges and spin densities:
               1          2
     1  O   -0.247112   0.000000
     2  C   -0.643930  -0.000000
     3  C    2.111384   0.000000
     4  C    0.233352   0.000000
     5  C   -0.593849   0.000000
     6  C   -0.058664  -0.000000
     7  C   -0.302055  -0.000000
     8  C   -1.988099  -0.000000
     9  S    0.610561  -0.000000
    10  O   -0.057020   0.000000
    11  C   -1.988094  -0.000000
    12  C   -0.302058  -0.000000
    13  C   -0.058673   0.000000
    14  C   -0.593835  -0.000000
    15  C    0.233339   0.000000
    16  C    2.111396   0.000000
    17  H    0.209832  -0.000000
    18  H    0.213767  -0.000000
    19  H    0.221125   0.000000
    20  H    0.234723   0.000000
    21  H    0.234724   0.000000
    22  H    0.221125   0.000000
    23  H    0.213767   0.000000
    24  H    0.209832  -0.000000
    25  O   -0.225539   0.000000
 Sum of Mulliken charges =  -0.00000   0.00000

 Dipole moment (field-independent basis, Debye):
    X=             -0.0000    Y=              2.6912    Z=             -3.5759  Tot=              4.4755
 Quadrupole moment (field-independent basis, Debye-Ang):
   XX=            -64.1289   YY=           -117.7964   ZZ=           -114.9037
   XY=             -0.0001   XZ=             -0.0000   YZ=             -0.2513

 Normal termination of Gaussian 16 at Sat Jan 13 19:20:10 2024.
