 Q-Chem 5.4, Q-Chem, Inc., Pleasanton, CA (2021)
 Q-Chem 5.4.0 for Intel X86 EM64T Linux

User input:
--------------------------------------------------------------
$molecule
-1 2
C                  1.2485470000      1.6082760000     -0.5202410000
C                  0.0062290000      1.1958590000      0.1279460000
C                 -0.3959530000     -0.1141470000      0.1259620000
C                  0.3913240000     -1.1574750000     -0.5256420000
C                  1.6449940000     -0.7767590000     -1.1813020000
C                  2.0398450000      0.5534770000     -1.1316500000
O                  1.6119480000      2.8117590000     -0.5373750000
O                 -0.0007390000     -2.3582960000     -0.5250810000
S                  3.5748150000      1.1291950000     -1.8994320000
C                  4.4654200000      2.0794810000     -0.6253640000
C                  4.3993410000      3.4689360000     -0.6156570000
C                  5.2656160000      1.3864920000      0.2784470000
C                  6.0059170000      2.1002900000      1.2205610000
C                  5.1541970000      4.1748450000      0.3184870000
C                  5.9524680000      3.4936300000      1.2386310000
O                  3.2975900000      2.0442580000     -3.0186490000
O                  4.4486820000     -0.0342120000     -2.1601230000
H                  3.7519880000      3.9683150000     -1.3222650000
H                  5.3158880000      0.3058860000      0.2299570000
H                  5.1099310000      5.2586580000      0.3350220000
H                  6.6293450000      1.5682120000      1.9313310000
C                 -1.6817640000     -0.5383640000      0.7908630000
C                 -0.8106980000      2.2782790000      0.7872330000
H                  6.5312500000      4.0486580000      1.9699570000
H                 -2.5447020000     -0.0126410000      0.3648330000
H                 -1.6719720000     -0.3101210000      1.8636420000
H                 -1.8237110000     -1.6107870000      0.6618400000
H                 -1.8081880000      2.3587390000      0.3382430000
H                 -0.3020000000      3.2358370000      0.6785040000
H                 -0.9594080000      2.0758230000      1.8547440000
C                  2.3822700000     -1.8979140000     -1.8701190000
H                  1.7478870000     -2.7828370000     -1.8431370000
H                  3.3303740000     -2.1199230000     -1.3739420000
H                  2.6331300000     -1.6470500000     -2.9019250000
$end
$rem
MAX_SCF_CYCLES=200
BASIS  =  6-311++G(d,p)
GUI  =  2
JOB_TYPE  =  SP
METHOD  =  B3LYP
SOLVENT_METHOD = PCM
$end
$pcm
theory = CPCM
$end
$solvent
dielectric 37.219
opticaldielectric 1.43
$end

--------------------------------------------------------------

             Standard Nuclear Orientation (Angstroms)
    I     Atom           X                Y                Z
 ----------------------------------------------------------------
    1      C       1.2485470000     1.6082760000    -0.5202410000
    2      C       0.0062290000     1.1958590000     0.1279460000
    3      C      -0.3959530000    -0.1141470000     0.1259620000
    4      C       0.3913240000    -1.1574750000    -0.5256420000
    5      C       1.6449940000    -0.7767590000    -1.1813020000
    6      C       2.0398450000     0.5534770000    -1.1316500000
    7      O       1.6119480000     2.8117590000    -0.5373750000
    8      O      -0.0007390000    -2.3582960000    -0.5250810000
    9      S       3.5748150000     1.1291950000    -1.8994320000
   10      C       4.4654200000     2.0794810000    -0.6253640000
   11      C       4.3993410000     3.4689360000    -0.6156570000
   12      C       5.2656160000     1.3864920000     0.2784470000
   13      C       6.0059170000     2.1002900000     1.2205610000
   14      C       5.1541970000     4.1748450000     0.3184870000
   15      C       5.9524680000     3.4936300000     1.2386310000
   16      O       3.2975900000     2.0442580000    -3.0186490000
   17      O       4.4486820000    -0.0342120000    -2.1601230000
   18      H       3.7519880000     3.9683150000    -1.3222650000
   19      H       5.3158880000     0.3058860000     0.2299570000
   20      H       5.1099310000     5.2586580000     0.3350220000
   21      H       6.6293450000     1.5682120000     1.9313310000
   22      C      -1.6817640000    -0.5383640000     0.7908630000
   23      C      -0.8106980000     2.2782790000     0.7872330000
   24      H       6.5312500000     4.0486580000     1.9699570000
   25      H      -2.5447020000    -0.0126410000     0.3648330000
   26      H      -1.6719720000    -0.3101210000     1.8636420000
   27      H      -1.8237110000    -1.6107870000     0.6618400000
   28      H      -1.8081880000     2.3587390000     0.3382430000
   29      H      -0.3020000000     3.2358370000     0.6785040000
   30      H      -0.9594080000     2.0758230000     1.8547440000
   31      C       2.3822700000    -1.8979140000    -1.8701190000
   32      H       1.7478870000    -2.7828370000    -1.8431370000
   33      H       3.3303740000    -2.1199230000    -1.3739420000
   34      H       2.6331300000    -1.6470500000    -2.9019250000
 ----------------------------------------------------------------

    8   -1279.4611949575      8.51e-06  Convergence criterion met
 Total energy in the final basis set =    -1279.4611949575

                    Orbital Energies (a.u.)
 --------------------------------------------------------------

 Alpha MOs
 -- Occupied --
-89.0493 -19.1175 -19.1122 -19.0836 -19.0834 -10.2351 -10.2270 -10.2081
-10.1979 -10.1954 -10.1900 -10.1874 -10.1854 -10.1837 -10.1828 -10.1751
-10.1738 -10.1542 -10.1537 -10.1531  -8.1130  -6.0760  -6.0748  -6.0738
 -1.1079  -1.0136  -1.0081  -1.0030  -0.8732  -0.8419  -0.8004  -0.7753
 -0.7599  -0.7316  -0.7232  -0.6940  -0.6503  -0.6420  -0.6191  -0.6027
 -0.5640  -0.5543  -0.5347  -0.5100  -0.4922  -0.4798  -0.4718  -0.4532
 -0.4507  -0.4440  -0.4413  -0.4333  -0.4226  -0.4147  -0.4096  -0.4007
 -0.3959  -0.3893  -0.3866  -0.3789  -0.3764  -0.3714  -0.3691  -0.3584
 -0.3564  -0.3516  -0.3382  -0.3273  -0.3101  -0.2960  -0.2852  -0.2731
 -0.2679  -0.2539  -0.2464  -0.2394  -0.1689

 Beta MOs
 -- Occupied --
-89.0494 -19.1174 -19.1122 -19.0781 -19.0765 -10.2338 -10.2253 -10.2081
-10.1971 -10.1927 -10.1900 -10.1874 -10.1854 -10.1837 -10.1828 -10.1748
-10.1729 -10.1543 -10.1538 -10.1533  -8.1130  -6.0760  -6.0748  -6.0739
 -1.1077  -1.0054  -1.0015  -0.9955  -0.8731  -0.8361  -0.7982  -0.7746
 -0.7599  -0.7270  -0.7220  -0.6922  -0.6480  -0.6370  -0.6191  -0.6015
 -0.5622  -0.5504  -0.5336  -0.5082  -0.4904  -0.4792  -0.4716  -0.4526
 -0.4502  -0.4410  -0.4336  -0.4326  -0.4175  -0.4100  -0.4071  -0.3944
 -0.3934  -0.3882  -0.3851  -0.3768  -0.3712  -0.3686  -0.3575  -0.3559
 -0.3499  -0.3472  -0.3367  -0.3264  -0.3094  -0.2948  -0.2730  -0.2689
 -0.2563  -0.2483  -0.2378  -0.2343

          Ground-State Mulliken Net Atomic Charges

     Atom                 Charge (a.u.)    Spin (a.u.)
  --------------------------------------------------------
      1 C                    -0.826702       0.049634
      2 C                     0.508554       0.067907
      3 C                     0.913272       0.040911
      4 C                    -1.468099       0.066342
      5 C                     0.780294       0.203098
      6 C                     0.047472       0.088606
      7 O                    -0.399725       0.211540
      8 O                    -0.456322       0.261879
      9 S                     0.353314      -0.023704
     10 C                     0.213816      -0.009579
     11 C                    -0.252179       0.025110
     12 C                     0.155542      -0.001727
     13 C                    -0.513129       0.002748
     14 C                    -0.400007      -0.003391
     15 C                    -0.336239       0.000651
     16 O                    -0.214920       0.003518
     17 O                    -0.221818      -0.000983
     18 H                     0.264071       0.000261
     19 H                     0.249427       0.000578
     20 H                     0.227248      -0.000051
     21 H                     0.227407       0.000014
     22 C                    -0.487162       0.001592
     23 C                    -0.558101      -0.001403
     24 H                     0.205176      -0.000086
     25 H                     0.166422       0.001190
     26 H                     0.168501       0.001029
     27 H                     0.183204      -0.001779
     28 H                     0.165993       0.002899
     29 H                     0.184709      -0.001042
     30 H                     0.163042       0.002764
     31 C                    -0.598355      -0.004891
     32 H                     0.175226      -0.001902
     33 H                     0.194912       0.010568
     34 H                     0.185156       0.007699
  --------------------------------------------------------
  Sum of atomic charges =    -1.000000

                    Cartesian Multipole Moments
 -----------------------------------------------------------------
    Charge (ESU x 10^10)
                -4.8032
    Dipole Moment (Debye)
         X      -8.4725      Y      -0.5661      Z       9.8709
       Tot      13.0207
    Quadrupole Moments (Debye-Ang)
        XX    -149.4861     XY      -7.7238     YY    -152.5028
        XZ      35.2898     YZ      12.2421     ZZ    -148.5605

 Total job time:  84.33s(wall), 623.37s(cpu)
        *  Thank you very much for using Q-Chem.  Have a nice day.  *
