 Gaussian 16, Revision A.03,
 Gaussian 16:  ES64L-G16RevA.03 25-Dec-2016

 ----------------------------------------------------------------
 #P UB3LYP/6-311++G(d,p) SCRF=(PCM,Solvent=n,n-DiMethylFormamide)
 ----------------------------------------------------------------

 ------------------
 Radical PCM in DMF
 ------------------
 Symbolic Z-matrix:
 Charge = -1 Multiplicity = 2

                         Standard orientation:
 ---------------------------------------------------------------------
 Center     Atomic      Atomic             Coordinates (Angstroms)
 Number     Number       Type             X           Y           Z
 ---------------------------------------------------------------------
      1          6           0       -5.403790   -1.090718   -0.451542
      2          6           0       -4.121963   -1.295322    0.166924
      3          6           0       -3.384704   -0.208493    0.607648
      4          6           0       -3.871039    1.162275    0.451385
      5          6           0       -5.167424    1.369508   -0.174025
      6          6           0       -5.875126    0.278349   -0.594096
      7          8           0       -6.168568   -2.017851   -0.890336
      8          8           0       -3.181692    2.146131    0.850334
      9          6           0       -2.029481   -0.362528    1.256637
     10          6           0       -0.856486   -0.178312    0.273399
     11          6           0        0.517669   -0.281905    0.944170
     12          6           0        1.692002   -0.088983   -0.022355
     13          6           0        3.068278   -0.181815    0.646958
     14          6           0        4.241200    0.012175   -0.321015
     15          6           0        5.617422   -0.077193    0.348468
     16          6           0        6.789263    0.117436   -0.620623
     17          6           0        8.165481    0.028964    0.048396
     18          6           0        9.337387    0.223938   -0.920439
     19          6           0       -5.673937    2.776592   -0.333309
     20          6           0       -3.649010   -2.724259    0.308653
     21          8           0       -7.100840    0.369332   -1.194197
     22          1           0       -1.943455   -1.343313    1.737680
     23          1           0       -1.935823    0.400626    2.035811
     24          1           0       -0.961723    0.803635   -0.198615
     25          1           0       -0.930279   -0.925282   -0.527486
     26          1           0        0.612770   -1.260398    1.435920
     27          1           0        0.581779    0.468081    1.743544
     28          1           0        1.594468    0.887514   -0.514106
     29          1           0        1.628718   -0.838421   -0.822678
     30          1           0        3.165553   -1.158058    1.140720
     31          1           0        3.131771    0.568785    1.445864
     32          1           0        4.142878    0.987461   -0.815493
     33          1           0        4.178572   -0.738979   -1.119484
     34          1           0        5.716124   -1.052506    0.843211
     35          1           0        5.680163    0.674318    1.146471
     36          1           0        6.690304    1.092534   -1.115375
     37          1           0        6.726693   -0.634125   -1.418602
     38          1           0        8.265823   -0.946239    0.543184
     39          1           0        8.229212    0.780596    0.846382
     40          6           0       10.708014    0.134052   -0.242508
     41          1           0        9.238057    1.198320   -1.414425
     42          1           0       -5.762673    3.272622    0.639786
     43          1           0       -6.647091    2.787353   -0.827085
     44          1           0       -4.969958    3.380408   -0.916557
     45          1           0       -4.354937   -3.386299   -0.194818
     46          1           0       -3.587936   -3.032245    1.360374
     47          1           0       -2.655457   -2.876087   -0.127740
     48          1           0        9.274783   -0.527243   -1.717426
     49          1           0       10.814251    0.896073    0.536427
     50          1           0       11.521376    0.277274   -0.960088
     51          1           0       10.851174   -0.842548    0.231322
     52          1           0       -7.308886   -0.577313   -1.359495
 ---------------------------------------------------------------------

 SCF Done:  E(UB3LYP) =  -968.204794577     A.U. after   19 cycles

 The electronic state is 2-A.
 Alpha  occ. eigenvalues --  -19.13697 -19.08064 -19.06804 -10.21316 -10.21259
 Alpha  occ. eigenvalues --  -10.21148 -10.16315 -10.16081 -10.15939 -10.15839
 Alpha  occ. eigenvalues --  -10.15820 -10.15802 -10.15776 -10.15750 -10.15696
 Alpha  occ. eigenvalues --  -10.15612 -10.15599 -10.15489 -10.15457 -10.15367
 Alpha  occ. eigenvalues --  -10.15326 -10.15268  -1.05650  -0.99041  -0.98880
 Alpha  occ. eigenvalues --   -0.82575  -0.81055  -0.79766  -0.78226  -0.76788
 Alpha  occ. eigenvalues --   -0.74521  -0.71701  -0.70452  -0.68533  -0.65578
 Alpha  occ. eigenvalues --   -0.63586  -0.62364  -0.59253  -0.57592  -0.57175
 Alpha  occ. eigenvalues --   -0.56947  -0.56311  -0.54698  -0.51649  -0.48479
 Alpha  occ. eigenvalues --   -0.48173  -0.46957  -0.45028  -0.44107  -0.43583
 Alpha  occ. eigenvalues --   -0.42987  -0.42721  -0.42205  -0.41569  -0.40921
 Alpha  occ. eigenvalues --   -0.40801  -0.40471  -0.39994  -0.39140  -0.38966
 Alpha  occ. eigenvalues --   -0.38743  -0.37972  -0.37739  -0.37114  -0.36442
 Alpha  occ. eigenvalues --   -0.36148  -0.35700  -0.34788  -0.34604  -0.34352
 Alpha  occ. eigenvalues --   -0.33599  -0.33463  -0.32702  -0.32474  -0.32343
 Alpha  occ. eigenvalues --   -0.31970  -0.31908  -0.31783  -0.31563  -0.29626
 Alpha  occ. eigenvalues --   -0.26074  -0.25410  -0.23131  -0.21494  -0.15314
 Alpha virt. eigenvalues --   -0.00636  -0.00275   0.00391   0.00657   0.00760
 Alpha virt. eigenvalues --    0.01258   0.01331   0.01558   0.01834   0.02458
 Alpha virt. eigenvalues --    0.02557   0.03210   0.03538   0.03683   0.03929

  Beta  occ. eigenvalues --  -19.13655 -19.07418 -19.06195 -10.21178 -10.21036
  Beta  occ. eigenvalues --  -10.21006 -10.16287 -10.16081 -10.15839 -10.15820
  Beta  occ. eigenvalues --  -10.15802 -10.15776 -10.15749 -10.15716 -10.15695
  Beta  occ. eigenvalues --  -10.15609 -10.15561 -10.15467 -10.15457 -10.15381
  Beta  occ. eigenvalues --  -10.15331 -10.15273  -1.05445  -0.97974  -0.97784
  Beta  occ. eigenvalues --   -0.82092  -0.81032  -0.79719  -0.78141  -0.76716
  Beta  occ. eigenvalues --   -0.74440  -0.71552  -0.70260  -0.68244  -0.65371
  Beta  occ. eigenvalues --   -0.63120  -0.62192  -0.59180  -0.57587  -0.57133
  Beta  occ. eigenvalues --   -0.56940  -0.56081  -0.54388  -0.51355  -0.48413
  Beta  occ. eigenvalues --   -0.48042  -0.46942  -0.45014  -0.43818  -0.42994
  Beta  occ. eigenvalues --   -0.42832  -0.42587  -0.42052  -0.41295  -0.40744
  Beta  occ. eigenvalues --   -0.40663  -0.40287  -0.39733  -0.39045  -0.38581
  Beta  occ. eigenvalues --   -0.38355  -0.37792  -0.37587  -0.37075  -0.36376
  Beta  occ. eigenvalues --   -0.35622  -0.35049  -0.34694  -0.34029  -0.33449
  Beta  occ. eigenvalues --   -0.33181  -0.32670  -0.32539  -0.32385  -0.32296
  Beta  occ. eigenvalues --   -0.31947  -0.31885  -0.31777  -0.31473  -0.29536
  Beta  occ. eigenvalues --   -0.24845  -0.23414  -0.22547  -0.20857
  Beta virt. eigenvalues --   -0.08163  -0.00608  -0.00269   0.00409   0.00664
  Beta virt. eigenvalues --    0.00767   0.01333   0.01551   0.01662   0.02357
  Beta virt. eigenvalues --    0.02475   0.02745   0.03320   0.03573   0.03906

 Mulliken charges and spin densities:
               1          2
     1  C   -0.845332   0.136681
     2  C    1.044127   0.036387
     3  C    0.825937   0.175836
     4  C   -0.749306   0.084257
     5  C    1.030308   0.015781
     6  C   -0.942600   0.061648
     7  O   -0.536612   0.231952
     8  O   -0.468991   0.224944
     9  C   -0.385505   0.005924
    10  C   -0.945264  -0.006139
    11  C   -0.363154   0.007032
    12  C   -0.019208  -0.003287
    13  C    0.042705  -0.000767
    14  C    0.061679  -0.000112
    15  C   -0.049255   0.000309
    16  C   -0.294708   0.000033
    17  C   -0.486717   0.000025
    18  C   -0.284960  -0.000003
    19  C   -0.438593   0.004610
    20  C   -0.629691   0.003253
    21  O   -0.314086   0.014842
    22  H    0.159568   0.000684
    23  H    0.208720   0.005320
    24  H    0.191762  -0.002203
    25  H    0.129529  -0.000172
    26  H    0.110491  -0.000013
    27  H    0.121279  -0.000435
    28  H    0.122818   0.000005
    29  H    0.128197  -0.000111
    30  H    0.132515  -0.000022
    31  H    0.131249  -0.000008
    32  H    0.129707   0.000007
    33  H    0.129029   0.000004
    34  H    0.128526  -0.000002
    35  H    0.128789   0.000006
    36  H    0.126823   0.000000
    37  H    0.126752  -0.000000
    38  H    0.123519   0.000000
    39  H    0.123789  -0.000001
    40  C   -0.691220   0.000001
    41  H    0.131062  -0.000000
    42  H    0.159723   0.002331
    43  H    0.174292  -0.000154
    44  H    0.159419   0.001853
    45  H    0.180876  -0.001370
    46  H    0.171532   0.002501
    47  H    0.160552   0.001922
    48  H    0.130911   0.000000
    49  H    0.139981   0.000000
    50  H    0.148061   0.000001
    51  H    0.139956  -0.000000
    52  H    0.291019  -0.003350
 Sum of Mulliken charges =  -1.00000   1.00000

 Dipole moment (field-independent basis, Debye):
    X=             23.4783    Y=             -2.0133    Z=              0.4414  Tot=             23.5686
 Quadrupole moment (field-independent basis, Debye-Ang):
   XX=           -274.8780   YY=           -163.2220   ZZ=           -148.6422
   XY=             -3.5670   XZ=            -10.3563   YZ=             -7.4054

 Normal termination of Gaussian 16 at Wed Jan 24 23:03:34 2024.
