 Q-Chem 5.4, Q-Chem, Inc., Pleasanton, CA (2021)
 Q-Chem 5.4.0 for Intel X86 EM64T Linux

User input:
--------------------------------------------------------------
$molecule
-2 1
C                 -2.2347270000      3.2377730000      4.0998050000
C                 -3.4582550000      2.6862760000      4.3756490000
C                 -3.8926800000      1.5322970000      3.6715340000
C                 -3.0848650000      0.9694400000      2.6928060000
C                 -1.7970950000      1.5172300000      2.3557230000
C                 -1.3745000000      2.6869280000      3.1101590000
C                 -0.1108660000      3.3509770000      2.9045020000
C                 -0.9330590000      0.9469130000      1.3313700000
C                  0.7373220000      2.8144310000      1.8671690000
C                  0.3458130000      1.6373370000      1.1325490000
C                  2.0189120000      3.4054150000      1.5618060000
C                  2.8635100000      2.8167130000      0.6282080000
C                  2.4716780000      1.6447850000     -0.0616950000
C                  1.2368260000      1.0834510000      0.1790860000
O                  0.2234020000      4.3789290000      3.6339980000
O                 -1.2136180000     -0.0809320000      0.6393260000
N                  2.3871500000      4.6081780000      2.1875220000
O                 -3.4973750000     -0.1451140000      2.0009700000
C                 -4.7489220000     -0.7086280000      2.3005770000
H                 -1.8706170000      4.1160880000      4.6196700000
H                 -4.1061030000      3.1196090000      5.1354010000
H                 -4.8631340000      1.1101880000      3.8975360000
H                  3.8178390000      3.2941320000      0.4091590000
H                  3.1467850000      1.1996080000     -0.7908940000
H                  0.8986570000      0.1936230000     -0.3391800000
H                  1.7362990000      4.7923570000      2.9742190000
H                  3.3724120000      4.6594390000      2.4092890000
H                 -4.8431980000     -1.5914090000      1.6631790000
H                 -5.5841340000     -0.0245950000      2.0838030000
H                 -4.8327590000     -1.0246090000      3.3519920000
$end
$rem
MAX_SCF_CYCLES=200
BASIS  =  6-311++G(d,p)
GUI  =  2
JOB_TYPE  =  SP
METHOD  =  B3LYP
SOLVENT_METHOD = COSMO
$end
$solvent
dielectric 37.219
opticaldielectric 1.43
$end

--------------------------------------------------------------

             Standard Nuclear Orientation (Angstroms)
    I     Atom           X                Y                Z
 ----------------------------------------------------------------
    1      C      -1.3059106380    -2.3952363798    -0.0105926155
    2      C      -2.6742667021    -2.3258587536    -0.0036610271
    3      C      -3.3217989038    -1.0621846493    -0.0042546413
    4      C      -2.5698351315     0.1047712677     0.0025238155
    5      C      -1.1304932814     0.0871965981     0.0085715723
    6      C      -0.4998345286    -1.2234597854    -0.0115034142
    7      C       0.9292817303    -1.4173800023    -0.0184625901
    8      C      -0.3198726532     1.2971179701     0.0187317448
    9      C       1.7412539189    -0.2249082610     0.0271066719
   10      C       1.1310281383     1.0812295641     0.0159440153
   11      C       3.1833984698    -0.2960382320     0.0389894096
   12      C       3.9480324096     0.8631910025    -0.0161791694
   13      C       3.3287107210     2.1351321487    -0.0551672385
   14      C       1.9549547975     2.2341667796    -0.0248750612
   15      O       1.4342609253    -2.6187472157    -0.0663964543
   16      O      -0.7855603255     2.4791662016     0.0179801532
   17      N       3.8083009702    -1.5493680314     0.1504337920
   18      O      -3.1860722971     1.3341056172     0.0071045270
   19      C      -4.5897176909     1.3927603761     0.0024673584
   20      H      -0.7791718572    -3.3422380922    -0.0132313893
   21      H      -3.2779655800    -3.2315370338    -0.0021984985
   22      H      -4.4031966698    -1.0231486951     0.0051763652
   23      H       5.0337116036     0.7775255598     0.0086668734
   24      H       3.9451912267     3.0317621257    -0.0962728929
   25      H       1.4468735014     3.1914247779    -0.0410710509
   26      H       3.1034380079    -2.2934167190    -0.0107519796
   27      H       4.6587611646    -1.6229213791    -0.3916518689
   28      H      -4.8476634269     2.4542842605    -0.0306613109
   29      H      -5.0351025504     0.9482204683     0.9060645001
   30      H      -5.0335925695     0.8964262595    -0.8744440818
 ----------------------------------------------------------------

   13    -858.8476364241      6.03e-06  Convergence criterion met
 Total energy in the final basis set =     -858.8476364241
    6    -859.1271017774      3.27e-06  Convergence criterion met
 Total energy in the final basis set =     -859.1271017774

                    Orbital Energies (a.u.)
 --------------------------------------------------------------

 Alpha MOs
 -- Occupied --
-19.1355 -19.0288 -19.0215 -14.2789 -10.2164 -10.2051 -10.1892 -10.1828
-10.1786 -10.1487 -10.1467 -10.1451 -10.1433 -10.1432 -10.1389 -10.1382
-10.1374 -10.1364 -10.1339  -1.0526  -0.9500  -0.9469  -0.8827  -0.8256
 -0.8071  -0.7526  -0.7367  -0.7100  -0.7010  -0.6769  -0.6364  -0.6026
 -0.5969  -0.5539  -0.5330  -0.5209  -0.5015  -0.4803  -0.4604  -0.4556
 -0.4541  -0.4412  -0.4369  -0.4216  -0.4134  -0.3991  -0.3873  -0.3797
 -0.3744  -0.3644  -0.3576  -0.3542  -0.3348  -0.3344  -0.3255  -0.3236
 -0.3152  -0.3114  -0.2955  -0.2818  -0.2313  -0.2194  -0.2106  -0.2090
 -0.1958  -0.1895  -0.1071

          Ground-State Mulliken Net Atomic Charges

     Atom                 Charge (a.u.)
  ----------------------------------------
      1 C                    -0.270328
      2 C                    -0.520079
      3 C                    -0.247362
      4 C                    -0.013037
      5 C                     0.080151
      6 C                     0.217084
      7 C                    -0.369540
      8 C                    -0.396187
      9 C                     0.175923
     10 C                     0.476689
     11 C                     0.146550
     12 C                    -0.305210
     13 C                    -0.498283
     14 C                    -0.232149
     15 O                    -0.683355
     16 O                    -0.686042
     17 N                    -0.502167
     18 O                    -0.167394
     19 C                    -0.301197
     20 H                     0.147832
     21 H                     0.188353
     22 H                     0.179350
     23 H                     0.160598
     24 H                     0.178751
     25 H                     0.147935
     26 H                     0.317959
     27 H                     0.264446
     28 H                     0.196409
     29 H                     0.160280
     30 H                     0.154020
  ----------------------------------------
  Sum of atomic charges =    -2.000000

                    Cartesian Multipole Moments
 -----------------------------------------------------------------
    Charge (ESU x 10^10)
                -9.6064
    Dipole Moment (Debye)
         X      -4.9261      Y      -0.5623      Z      -1.2087
       Tot       5.1033
    Quadrupole Moments (Debye-Ang)
        XX    -129.1544     XY      10.1033     YY    -167.8410
        XZ      -5.7846     YZ       1.5776     ZZ    -124.7885

 Total job time:  89.84s(wall), 691.36s(cpu)
        *  Thank you very much for using Q-Chem.  Have a nice day.  *
