 Gaussian 16, Revision A.03,
 Gaussian 16:  ES64L-G16RevA.03 25-Dec-2016

 --------------------------------------
 #P UB3LYP/6-311++G(d,p) nosym opt freq
 --------------------------------------

 -------
 Reduced
 -------
 Symbolic Z-matrix:
 Charge = -2 Multiplicity = 1

 SCF Done:  E(UB3LYP) =  -858.847735929     A.U. after   40 cycles
 Optimization completed.
    -- Stationary point found.
 Normal termination of Gaussian 16 at Wed Dec 27 20:50:44 2023.

 ----------------------------------------------------------------------
 #P Geom=AllCheck Guess=TCheck SCRF=Check GenChk UB3LYP/6-311++G(d,p) F
 req
 ----------------------------------------------------------------------

 Structure from the checkpoint file:  "155-an.chk"
 -------
 Reduced
 -------
 Charge = -2 Multiplicity = 1

                          Input orientation:
 ---------------------------------------------------------------------
 Center     Atomic      Atomic             Coordinates (Angstroms)
 Number     Number       Type             X           Y           Z
 ---------------------------------------------------------------------
      1          6           0       -2.234727    3.237773    4.099805
      2          6           0       -3.458255    2.686276    4.375649
      3          6           0       -3.892680    1.532297    3.671534
      4          6           0       -3.084865    0.969440    2.692806
      5          6           0       -1.797095    1.517230    2.355723
      6          6           0       -1.374500    2.686928    3.110159
      7          6           0       -0.110866    3.350977    2.904502
      8          6           0       -0.933059    0.946913    1.331370
      9          6           0        0.737322    2.814431    1.867169
     10          6           0        0.345813    1.637337    1.132549
     11          6           0        2.018912    3.405415    1.561806
     12          6           0        2.863510    2.816713    0.628208
     13          6           0        2.471678    1.644785   -0.061695
     14          6           0        1.236826    1.083451    0.179086
     15          8           0        0.223402    4.378929    3.633998
     16          8           0       -1.213618   -0.080932    0.639326
     17          7           0        2.387150    4.608178    2.187522
     18          8           0       -3.497375   -0.145114    2.000970
     19          6           0       -4.748922   -0.708628    2.300577
     20          1           0       -1.870617    4.116088    4.619670
     21          1           0       -4.106103    3.119609    5.135401
     22          1           0       -4.863134    1.110188    3.897536
     23          1           0        3.817839    3.294132    0.409159
     24          1           0        3.146785    1.199608   -0.790894
     25          1           0        0.898657    0.193623   -0.339180
     26          1           0        1.736299    4.792357    2.974219
     27          1           0        3.372412    4.659439    2.409289
     28          1           0       -4.843198   -1.591409    1.663179
     29          1           0       -5.584134   -0.024595    2.083803
     30          1           0       -4.832759   -1.024609    3.351992
 ---------------------------------------------------------------------

 SCF Done:  E(UB3LYP) =  -858.847735929     A.U. after    3 cycles

 Alpha  occ. eigenvalues --  -18.91963 -18.79997 -18.78763 -14.06628 -10.01227
 Alpha  occ. eigenvalues --   -9.99769  -9.97188  -9.95526  -9.95432  -9.93470
 Alpha  occ. eigenvalues --   -9.93361  -9.92955  -9.92619  -9.92008  -9.91977
 Alpha  occ. eigenvalues --   -9.91975  -9.91525  -9.91516  -9.91271  -0.83718
 Alpha  occ. eigenvalues --   -0.71825  -0.71075  -0.66644  -0.60426  -0.58779
 Alpha  occ. eigenvalues --   -0.53196  -0.52363  -0.49070  -0.48153  -0.46797
 Alpha  occ. eigenvalues --   -0.41406  -0.38602  -0.37815  -0.33969  -0.31738
 Alpha  occ. eigenvalues --   -0.30481  -0.28469  -0.26511  -0.25128  -0.24700
 Alpha  occ. eigenvalues --   -0.23924  -0.22541  -0.21998  -0.20374  -0.19908
 Alpha  occ. eigenvalues --   -0.18341  -0.16198  -0.16071  -0.14964  -0.14241
 Alpha  occ. eigenvalues --   -0.13936  -0.12855  -0.11678  -0.10809  -0.10431
 Alpha  occ. eigenvalues --   -0.09891  -0.09577  -0.08543  -0.07423  -0.05844
 Alpha  occ. eigenvalues --    0.00248   0.00366   0.01368   0.01992   0.03211
 Alpha  occ. eigenvalues --    0.04312   0.12650
 Alpha virt. eigenvalues --    0.14150   0.15676   0.16254   0.17092   0.17750
 Alpha virt. eigenvalues --    0.18231   0.19196   0.20201   0.20496   0.21493
 Alpha virt. eigenvalues --    0.21769   0.22066   0.23004   0.23770   0.24986

  Beta  occ. eigenvalues --  -18.91963 -18.79997 -18.78763 -14.06628 -10.01227
  Beta  occ. eigenvalues --   -9.99769  -9.97188  -9.95526  -9.95432  -9.93470
  Beta  occ. eigenvalues --   -9.93361  -9.92955  -9.92619  -9.92008  -9.91977
  Beta  occ. eigenvalues --   -9.91975  -9.91525  -9.91516  -9.91271  -0.83718
  Beta  occ. eigenvalues --   -0.71825  -0.71075  -0.66644  -0.60426  -0.58779
  Beta  occ. eigenvalues --   -0.53196  -0.52363  -0.49070  -0.48153  -0.46797
  Beta  occ. eigenvalues --   -0.41406  -0.38602  -0.37815  -0.33969  -0.31738
  Beta  occ. eigenvalues --   -0.30481  -0.28469  -0.26511  -0.25128  -0.24700
  Beta  occ. eigenvalues --   -0.23924  -0.22541  -0.21998  -0.20374  -0.19908
  Beta  occ. eigenvalues --   -0.18341  -0.16198  -0.16071  -0.14964  -0.14241
  Beta  occ. eigenvalues --   -0.13936  -0.12855  -0.11678  -0.10809  -0.10431
  Beta  occ. eigenvalues --   -0.09891  -0.09577  -0.08543  -0.07423  -0.05844
  Beta  occ. eigenvalues --    0.00248   0.00366   0.01368   0.01992   0.03211
  Beta  occ. eigenvalues --    0.04312   0.12650
  Beta virt. eigenvalues --    0.14150   0.15676   0.16254   0.17092   0.17750
  Beta virt. eigenvalues --    0.18231   0.19196   0.20201   0.20496   0.21493
  Beta virt. eigenvalues --    0.21769   0.22066   0.23004   0.23770   0.24986

 Mulliken charges and spin densities:
               1          2
     1  C   -0.137000  -0.000000
     2  C   -0.254745  -0.000000
     3  C   -0.343023   0.000000
     4  C   -0.173988   0.000000
     5  C    0.248819   0.000000
     6  C    0.449699  -0.000000
     7  C   -0.640909   0.000000
     8  C   -0.605278  -0.000000
     9  C    0.225449   0.000000
    10  C    0.679818   0.000000
    11  C    0.189178  -0.000000
    12  C   -0.215083  -0.000000
    13  C   -0.506889  -0.000000
    14  C   -0.182108   0.000000
    15  O   -0.493347  -0.000000
    16  O   -0.458774  -0.000000
    17  N   -0.423097   0.000000
    18  O   -0.109264   0.000000
    19  C    0.649841  -0.000000
    20  H    0.142838  -0.000000
    21  H   -0.013804   0.000000
    22  H   -0.053142   0.000000
    23  H    0.050564  -0.000000
    24  H    0.081871  -0.000000
    25  H    0.129604   0.000000
    26  H    0.297909   0.000000
    27  H    0.178927  -0.000000
    28  H   -0.277624   0.000000
    29  H   -0.076183   0.000000
    30  H   -0.360256   0.000000
 Sum of Mulliken charges =  -2.00000  -0.00000

 Dipole moment (field-independent basis, Debye):
    X=             10.5253    Y=            -16.8203    Z=            -20.3379  Tot=             28.4136
 Quadrupole moment (field-independent basis, Debye-Ang):
   XX=           -195.8131   YY=           -205.3652   ZZ=           -194.5710
   XY=            -13.4560   XZ=             39.0554   YZ=            -47.4665

  Exact polarizability:1620.639 692.8491051.463-239.481 145.643 621.423
 Approx polarizability:4220.9192401.7562188.652-704.368-144.370 703.505

                      1                      2                      3
                      A                      A                      A
 Frequencies --     32.5261                56.2256                84.2903
 Red. masses --      5.2969                 5.3147                 4.1000
 Frc consts  --      0.0033                 0.0099                 0.0172
 IR Inten    --      2.4343                 1.9692                 5.2277

                      4                      5                      6
                      A                      A                      A
 Frequencies --     93.3771               162.5587               168.5258
 Red. masses --      5.4885                 5.5966                 4.6495
 Frc consts  --      0.0282                 0.0871                 0.0778
 IR Inten    --      3.5558                 4.9640                13.8144

                      7                      8                      9
                      A                      A                      A
 Frequencies --    197.6624               228.6733               265.4979
 Red. masses --      3.4065                 3.4219                 4.6316
 Frc consts  --      0.0784                 0.1054                 0.1924
 IR Inten    --      2.2091                 2.9980                25.2966

                     10                     11                     12
                      A                      A                      A
 Frequencies --    276.7991               298.2596               322.2509
 Red. masses --      2.1207                 1.9345                 3.7182
 Frc consts  --      0.0957                 0.1014                 0.2275
 IR Inten    --     41.4245                 4.5685                29.8608

                     13                     14                     15
                      A                      A                      A
 Frequencies --    353.1204               376.2109               390.7609
 Red. masses --      7.2557                 6.7271                 2.3644
 Frc consts  --      0.5331                 0.5610                 0.2127
 IR Inten    --     42.4761               100.5131               157.9241

                     16                     17                     18
                      A                      A                      A
 Frequencies --    395.9974               416.6865               434.7347
 Red. masses --      6.3440                 5.5792                 2.1474
 Frc consts  --      0.5861                 0.5707                 0.2391
 IR Inten    --     28.5132                 0.2593               264.9434

                     19                     20                     21
                      A                      A                      A
 Frequencies --    468.5082               488.7760               496.3394
 Red. masses --      7.1893                 4.2628                 6.1044
 Frc consts  --      0.9298                 0.6000                 0.8860
 IR Inten    --    470.5366                14.3920               374.6686

                     22                     23                     24
                      A                      A                      A
 Frequencies --    537.6455               554.9597               579.2092
 Red. masses --      4.3782                 5.6201                 4.8532
 Frc consts  --      0.7457                 1.0198                 0.9593
 IR Inten    --     11.7611                14.8275                 3.6536

                     25                     26                     27
                      A                      A                      A
 Frequencies --    590.2257               624.2289               648.2427
 Red. masses --      6.0787                 4.9713                 3.0644
 Frc consts  --      1.2477                 1.1413                 0.7587
 IR Inten    --     37.4901                39.6758                35.0928

                     28                     29                     30
                      A                      A                      A
 Frequencies --    686.3227               701.1568               720.3577
 Red. masses --      1.7431                 6.4558                 1.3891
 Frc consts  --      0.4838                 1.8699                 0.4247
 IR Inten    --     47.6792                69.3352                 6.0244

                     31                     32                     33
                      A                      A                      A
 Frequencies --    741.8150               763.4538               771.5987
 Red. masses --      2.7112                 4.1671                 5.2456
 Frc consts  --      0.8790                 1.4310                 1.8400
 IR Inten    --      3.9447                44.5507                15.1800

                     34                     35                     36
                      A                      A                      A
 Frequencies --    781.5409               793.7994               825.0299
 Red. masses --      1.6059                 1.6439                 6.2934
 Frc consts  --      0.5779                 0.6103                 2.5239
 IR Inten    --     35.6850                17.6626                 6.5402

                     37                     38                     39
                      A                      A                      A
 Frequencies --    842.5436               873.7905               913.8810
 Red. masses --      6.4704                 2.5800                 2.1311
 Frc consts  --      2.7062                 1.1606                 1.0486
 IR Inten    --      9.4497               267.4635               137.1667

                     40                     41                     42
                      A                      A                      A
 Frequencies --    937.4979               950.0413               951.4173
 Red. masses --      1.2691                 2.1623                 1.9203
 Frc consts  --      0.6572                 1.1499                 1.0241
 IR Inten    --     10.1381                54.3396                51.3144

                     43                     44                     45
                      A                      A                      A
 Frequencies --   1021.1462              1058.5825              1080.8794
 Red. masses --      4.3088                 2.1607                 2.1902
 Frc consts  --      2.6472                 1.4266                 1.5076
 IR Inten    --    336.9063               194.3955               276.9086

                     46                     47                     48
                      A                      A                      A
 Frequencies --   1087.8303              1134.7818              1156.9132
 Red. masses --      3.9272                 1.8434                 1.2871
 Frc consts  --      2.7381                 1.3986                 1.0150
 IR Inten    --    344.9075                76.7262                20.0719

                     49                     50                     51
                      A                      A                      A
 Frequencies --   1159.8904              1165.7364              1175.4732
 Red. masses --      1.2853                 2.1158                 1.8962
 Frc consts  --      1.0188                 1.6941                 1.5437
 IR Inten    --     86.8270               708.9848               394.1519

                     52                     53                     54
                      A                      A                      A
 Frequencies --   1181.4151              1217.2794              1232.7008
 Red. masses --      1.6307                 1.9075                 2.8793
 Frc consts  --      1.3410                 1.6653                 2.5778
 IR Inten    --     76.0693               464.6569               506.3146

                     55                     56                     57
                      A                      A                      A
 Frequencies --   1237.6886              1268.1063              1321.5301
 Red. masses --      3.3221                 3.6355                 4.6060
 Frc consts  --      2.9984                 3.4445                 4.7395
 IR Inten    --     64.2504               892.4659               990.9298

                     58                     59                     60
                      A                      A                      A
 Frequencies --   1346.6683              1361.9160              1382.1939
 Red. masses --      4.6113                 3.8045                 3.2694
 Frc consts  --      4.9271                 4.1576                 3.6800
 IR Inten    --    588.4437               152.6777               195.0719

                     61                     62                     63
                      A                      A                      A
 Frequencies --   1422.3792              1438.8761              1455.0194
 Red. masses --      3.1132                 3.3630                 1.8287
 Frc consts  --      3.7110                 4.1022                 2.2810
 IR Inten    --    284.8673              1149.7424               629.2463

                     64                     65                     66
                      A                      A                      A
 Frequencies --   1463.3873              1470.4294              1476.5725
 Red. masses --      1.8727                 2.6834                 1.0645
 Frc consts  --      2.3628                 3.4184                 1.3675
 IR Inten    --    554.4820               536.9376               161.0553

                     67                     68                     69
                      A                      A                      A
 Frequencies --   1492.1690              1503.9240              1532.3443
 Red. masses --      1.1880                 4.2802                 4.1454
 Frc consts  --      1.5585                 5.7038                 5.7350
 IR Inten    --    192.9574               445.2937               403.4632

                     70                     71                     72
                      A                      A                      A
 Frequencies --   1563.7207              1587.4724              1593.3567
 Red. masses --      6.1937                 2.9097                 5.0732
 Frc consts  --      8.9232                 4.3202                 7.5885
 IR Inten    --   3403.5483               720.7079                88.7895

                     73                     74                     75
                      A                      A                      A
 Frequencies --   1610.1998              2936.2591              2976.9629
 Red. masses --      1.5781                 1.0373                 1.1027
 Frc consts  --      2.4106                 5.2692                 5.7579
 IR Inten    --     12.1842                32.6067                11.3774

                     76                     77                     78
                      A                      A                      A
 Frequencies --   3070.8384              3088.6657              3107.1358
 Red. masses --      1.0941                 1.0828                 1.0864
 Frc consts  --      6.0787                 6.0864                 6.1794
 IR Inten    --     27.0571                40.2607                89.7416

                     79                     80                     81
                      A                      A                      A
 Frequencies --   3110.3186              3113.3954              3176.2084
 Red. masses --      1.0726                 1.0918                 1.0904
 Frc consts  --      6.1136                 6.2351                 6.4814
 IR Inten    --   1199.8544               228.1323                81.5727

                     82                     83                     84
                      A                      A                      A
 Frequencies --   3178.7248              3182.6829              3571.6571
 Red. masses --      1.0899                 1.0898                 1.0786
 Frc consts  --      6.4886                 6.5039                 8.1071
 IR Inten    --     22.1630                75.6025                13.9470

 - Thermochemistry -
 -------------------
 Temperature   298.150 Kelvin.  Pressure   1.00000 Atm.
 Atom     1 has atomic number  6 and mass  12.00000

 Molecular mass:   253.07389 amu.
 Principal axes and moments of inertia in atomic units:
                           1         2         3
     Eigenvalues --  2511.642586181.180948676.79624
           X            0.89708  -0.11829   0.42574
           Y            0.37166   0.72310  -0.58223
           Z           -0.23898   0.68054   0.69264
 This molecule is an asymmetric top.
 Rotational symmetry number  1.
 Warning -- assumption of classical behavior for rotation
           may cause significant error
 Rotational temperatures (Kelvin)      0.03448     0.01401     0.00998
 Rotational constants (GHZ):           0.71855     0.29197     0.20800
 Zero-point vibrational energy     583239.1 (Joules/Mol)
                                  139.39750 (Kcal/Mol)
 Warning -- explicit consideration of  25 degrees of freedom as
           vibrations may cause significant error
 Vibrational temperatures:     46.80    80.90   121.28   134.35   233.89
          (Kelvin)            242.47   284.39   329.01   381.99   398.25
                              429.13   463.65   508.06   541.28   562.22
                              569.75   599.52   625.49   674.08   703.24
                              714.12   773.55   798.46   833.35   849.20
                              898.13   932.68   987.47  1008.81  1036.43
                             1067.31  1098.44  1110.16  1124.46  1142.10
                             1187.03  1212.23  1257.19  1314.87  1348.85
                             1366.90  1368.88  1469.20  1523.06  1555.14
                             1565.15  1632.70  1664.54  1668.82  1677.23
                             1691.24  1699.79  1751.39  1773.58  1780.76
                             1824.52  1901.39  1937.56  1959.49  1988.67
                             2046.49  2070.22  2093.45  2105.49  2115.62
                             2124.46  2146.90  2163.81  2204.70  2249.85
                             2284.02  2292.48  2316.72  4224.62  4283.19
                             4418.25  4443.90  4470.48  4475.05  4479.48
                             4569.86  4573.48  4579.17  5138.82

 Zero-point correction=                           0.222144 (Hartree/Particle)
 Thermal correction to Energy=                    0.237382
 Thermal correction to Enthalpy=                  0.238326
 Thermal correction to Gibbs Free Energy=         0.179787
 Sum of electronic and zero-point Energies=           -858.625592
 Sum of electronic and thermal Energies=              -858.610354
 Sum of electronic and thermal Enthalpies=            -858.609410
 Sum of electronic and thermal Free Energies=         -858.667949

                     E (Thermal)             CV                S
                      KCal/Mol        Cal/Mol-Kelvin    Cal/Mol-Kelvin
 Total                  148.960             61.424            123.207
 Electronic               0.000              0.000              0.000
 Translational            0.889              2.981             42.486
 Rotational               0.889              2.981             33.265
 Vibrational            147.182             55.463             47.456
 Vibration     1          0.594              1.983              5.669
 Vibration     2          0.596              1.975              4.585
 Vibration     3          0.601              1.960              3.788
 Vibration     4          0.602              1.954              3.588
 Vibration     5          0.623              1.888              2.520
 Vibration     6          0.625              1.881              2.452
 Vibration     7          0.637              1.843              2.155
 Vibration     8          0.651              1.797              1.889
 Vibration     9          0.671              1.736              1.625
 Vibration    10          0.678              1.716              1.553
 Vibration    11          0.691              1.677              1.427
 Vibration    12          0.707              1.631              1.299
 Vibration    13          0.729              1.569              1.152
 Vibration    14          0.747              1.521              1.054
 Vibration    15          0.758              1.490              0.997
 Vibration    16          0.763              1.479              0.977
 Vibration    17          0.780              1.434              0.903
 Vibration    18          0.795              1.395              0.843
 Vibration    19          0.826              1.320              0.742
 Vibration    20          0.845              1.275              0.687
 Vibration    21          0.852              1.258              0.667
 Vibration    22          0.893              1.167              0.570
 Vibration    23          0.910              1.129              0.534
 Vibration    24          0.936              1.076              0.487
 Vibration    25          0.948              1.053              0.467

 Optimization completed.
    -- Stationary point found.
 Normal termination of Gaussian 16 at Wed Dec 27 21:41:33 2023.
