 Q-Chem 5.4, Q-Chem, Inc., Pleasanton, CA (2021)
 Q-Chem 5.4.0 for Intel X86 EM64T Linux

User input:
--------------------------------------------------------------
$molecule
0 1
C                 -0.2162390000      1.7106610000      4.8902230000
C                  1.0275190000      1.1263400000      4.3397260000
C                  1.4329540000      1.2395880000      3.0610440000
C                  0.5227040000      1.9940070000      2.1241300000
C                 -0.7513320000      2.5231450000      2.6480140000
C                 -1.1402710000      2.4103460000      3.9357070000
O                 -0.4501790000      1.6239450000      6.0840270000
O                  0.7942040000      2.1621370000      0.9433090000
S                 -2.5956470000      3.2501240000      4.4818130000
C                 -3.4352220000      2.1119570000      5.7021970000
C                 -4.6396760000      2.8945220000      6.2284840000
C                 -3.8345150000      0.7874880000      5.0578690000
C                  2.7432870000      0.6488920000      2.5347360000
C                  3.5176440000     -0.0829990000      3.6464500000
C                  3.6437840000      1.7857770000      1.9886750000
C                  2.4403600000     -0.3704670000      1.4075020000
H                  1.6114920000      0.6032570000      5.0860700000
H                 -1.3688800000      3.0223880000      1.9098750000
H                 -2.7192530000      1.9453560000      6.5033460000
H                 -4.3363210000      3.8267110000      6.7100360000
H                 -5.1671010000      2.2879260000      6.9701600000
H                 -5.3456210000      3.1324590000      5.4272330000
H                 -2.9674390000      0.2383200000      4.6851630000
H                 -4.5246360000      0.9447050000      4.2244720000
H                 -4.3321320000      0.1549550000      5.8007780000
H                  2.9491880000     -0.9206090000      4.0603100000
H                  3.7920370000      0.5872160000      4.4658360000
H                  4.4429580000     -0.4882940000      3.2299980000
H                  3.8674640000      2.5158280000      2.7722010000
H                  3.1753870000      2.3025200000      1.1526490000
H                  4.5923950000      1.3625000000      1.6458580000
H                  1.8041320000     -1.1809370000      1.7755410000
H                  3.3777720000     -0.8139820000      1.0595730000
H                  1.9483240000      0.1028840000      0.5594330000
$end

$rem
BASIS  =  6-311++G(d,p)
GUI  =  2
JOB_TYPE  =  SP
METHOD  =  B3LYP
SCF_CONVERGENCE  = 8
SOLVENT_METHOD = sm12
$end

$smx
solvent dimethylformamide
charges CM5
$end

--------------------------------------------------------------

             Standard Nuclear Orientation (Angstroms)
    I     Atom           X                Y                Z
 ----------------------------------------------------------------
    1      C      -0.2162390000     1.7106610000     4.8902230000
    2      C       1.0275190000     1.1263400000     4.3397260000
    3      C       1.4329540000     1.2395880000     3.0610440000
    4      C       0.5227040000     1.9940070000     2.1241300000
    5      C      -0.7513320000     2.5231450000     2.6480140000
    6      C      -1.1402710000     2.4103460000     3.9357070000
    7      O      -0.4501790000     1.6239450000     6.0840270000
    8      O       0.7942040000     2.1621370000     0.9433090000
    9      S      -2.5956470000     3.2501240000     4.4818130000
   10      C      -3.4352220000     2.1119570000     5.7021970000
   11      C      -4.6396760000     2.8945220000     6.2284840000
   12      C      -3.8345150000     0.7874880000     5.0578690000
   13      C       2.7432870000     0.6488920000     2.5347360000
   14      C       3.5176440000    -0.0829990000     3.6464500000
   15      C       3.6437840000     1.7857770000     1.9886750000
   16      C       2.4403600000    -0.3704670000     1.4075020000
   17      H       1.6114920000     0.6032570000     5.0860700000
   18      H      -1.3688800000     3.0223880000     1.9098750000
   19      H      -2.7192530000     1.9453560000     6.5033460000
   20      H      -4.3363210000     3.8267110000     6.7100360000
   21      H      -5.1671010000     2.2879260000     6.9701600000
   22      H      -5.3456210000     3.1324590000     5.4272330000
   23      H      -2.9674390000     0.2383200000     4.6851630000
   24      H      -4.5246360000     0.9447050000     4.2244720000
   25      H      -4.3321320000     0.1549550000     5.8007780000
   26      H       2.9491880000    -0.9206090000     4.0603100000
   27      H       3.7920370000     0.5872160000     4.4658360000
   28      H       4.4429580000    -0.4882940000     3.2299980000
   29      H       3.8674640000     2.5158280000     2.7722010000
   30      H       3.1753870000     2.3025200000     1.1526490000
   31      H       4.5923950000     1.3625000000     1.6458580000
   32      H       1.8041320000    -1.1809370000     1.7755410000
   33      H       3.3777720000    -0.8139820000     1.0595730000
   34      H       1.9483240000     0.1028840000     0.5594330000
 ----------------------------------------------------------------

   15   -1055.0512507131      5.03e-09  Convergence criterion met
 Total energy in the final basis set =    -1055.0634941694

                    Orbital Energies (a.u.)
 --------------------------------------------------------------

 Alpha MOs
 -- Occupied --
-88.8607 -19.1404 -19.1345 -10.2894 -10.2829 -10.2397 -10.2182 -10.2129
-10.2050 -10.2040 -10.2028 -10.1692 -10.1685 -10.1616 -10.1613 -10.1611
 -7.9469  -5.9109  -5.9067  -5.9010  -1.0729  -1.0660  -0.8738  -0.8452
 -0.8182  -0.7821  -0.7263  -0.6982  -0.6963  -0.6912  -0.6889  -0.6311
 -0.6106  -0.5755  -0.5525  -0.5264  -0.4962  -0.4837  -0.4732  -0.4623
 -0.4578  -0.4458  -0.4433  -0.4417  -0.4393  -0.4285  -0.4182  -0.4060
 -0.3971  -0.3894  -0.3841  -0.3767  -0.3702  -0.3614  -0.3582  -0.3570
 -0.3449  -0.3402  -0.3391  -0.3085  -0.2955  -0.2842  -0.2722  -0.2400

          Ground-State Mulliken Net Atomic Charges

     Atom                 Charge (a.u.)
  ----------------------------------------
      1 C                    -1.013484
      2 C                    -0.226508
      3 C                     1.342865
      4 C                    -1.387911
      5 C                    -0.483960
      6 C                     1.679300
      7 O                    -0.251253
      8 O                    -0.266047
      9 S                    -0.576586
     10 C                     0.072402
     11 C                    -0.458039
     12 C                    -0.579935
     13 C                     0.471850
     14 C                    -0.029155
     15 C                    -0.747489
     16 C                    -0.722159
     17 H                     0.311601
     18 H                     0.281806
     19 H                     0.199404
     20 H                     0.166140
     21 H                     0.188839
     22 H                     0.157063
     23 H                     0.117744
     24 H                     0.181858
     25 H                     0.162798
     26 H                     0.166961
     27 H                     0.164075
     28 H                     0.199395
     29 H                     0.141036
     30 H                     0.108468
     31 H                     0.189148
     32 H                     0.144489
     33 H                     0.186459
     34 H                     0.108826
  ----------------------------------------
  Sum of atomic charges =     0.000000

                    Cartesian Multipole Moments
 -----------------------------------------------------------------
    Charge (ESU x 10^10)
                 0.0000
    Dipole Moment (Debye)
         X      -0.3040      Y      -1.7936      Z       1.2113
       Tot       2.1856
    Quadrupole Moments (Debye-Ang)
        XX     -91.2274     XY      -2.2802     YY    -112.0229
        XZ      -4.7325     YZ      -3.2207     ZZ    -108.4244

 Total job time:  843.34s(wall), 6621.13s(cpu)
        *  Thank you very much for using Q-Chem.  Have a nice day.  *
