 Gaussian 16, Revision A.03,
 Gaussian 16:  ES64L-G16RevA.03 25-Dec-2016

 ----------------------------------------------------------------------
 #P UB3LYP/6-311++G(d,p) nosym opt freq SCRF=(PCM,Solvent=n,n-DiMethylF
 ormamide)
 ----------------------------------------------------------------------

 -------
 Radical
 -------
 Symbolic Z-matrix:
 Charge = -1 Multiplicity = 2

 SCF Done:  E(UB3LYP) =  -990.109293795     A.U. after   19 cycles
 SCF Done:  E(UB3LYP) =  -990.109613375     A.U. after   15 cycles
 SCF Done:  E(UB3LYP) =  -990.109599204     A.U. after   14 cycles
 SCF Done:  E(UB3LYP) =  -990.109683434     A.U. after   13 cycles
 SCF Done:  E(UB3LYP) =  -990.109691732     A.U. after   11 cycles
 SCF Done:  E(UB3LYP) =  -990.109692386     A.U. after   10 cycles
 SCF Done:  E(UB3LYP) =  -990.109692843     A.U. after    9 cycles
 SCF Done:  E(UB3LYP) =  -990.109693023     A.U. after    9 cycles
 SCF Done:  E(UB3LYP) =  -990.109693132     A.U. after    9 cycles
 SCF Done:  E(UB3LYP) =  -990.109693243     A.U. after   10 cycles
 SCF Done:  E(UB3LYP) =  -990.109693292     A.U. after   10 cycles
 SCF Done:  E(UB3LYP) =  -990.109693309     A.U. after    9 cycles
 Optimization completed.
    -- Stationary point found.
 Normal termination of Gaussian 16 at Sat Feb 10 23:31:49 2024.

 ----------------------------------------------------------------------
 #P Geom=AllCheck Guess=TCheck SCRF=Check GenChk UB3LYP/6-311++G(d,p) F
 req
 ----------------------------------------------------------------------

 Structure from the checkpoint file:  "204-rad.chk"
 -------
 Radical
 -------
 Charge = -1 Multiplicity = 2

                          Input orientation:
 ---------------------------------------------------------------------
 Center     Atomic      Atomic             Coordinates (Angstroms)
 Number     Number       Type             X           Y           Z
 ---------------------------------------------------------------------
      1          8           0        4.876958   -0.880332    0.008810
      2          6           0        3.652180   -0.269199    0.052752
      3          6           0        3.574865    1.127329    0.121575
      4          6           0        2.338727    1.750016    0.167046
      5          6           0        1.144797    1.006821    0.144504
      6          6           0       -0.146686    1.707938    0.196189
      7          8           0       -0.168465    2.959340    0.271345
      8          6           0       -1.362170    0.883252    0.157140
      9          6           0       -2.665297    1.450011    0.186314
     10          8           0       -2.826010    2.811194    0.245396
     11          6           0       -3.794165    0.638880    0.153477
     12          6           0       -3.689757   -0.752663    0.089550
     13          6           0       -2.443921   -1.354500    0.055804
     14          8           0       -2.382360   -2.710353   -0.008134
     15          6           0       -1.258663   -0.556619    0.087502
     16          6           0        0.021723   -1.208291    0.047652
     17          8           0        0.117242   -2.514009   -0.013777
     18          6           0        1.216639   -0.411213    0.073679
     19          6           0        2.490447   -1.034399    0.028900
     20          8           0        2.639546   -2.385357   -0.038444
     21          1           0        4.730144   -1.836442   -0.034362
     22          1           0        4.493961    1.702048    0.138434
     23          1           0        2.271162    2.828433    0.220792
     24          1           0       -3.772330    3.001102    0.250579
     25          1           0       -4.777190    1.099571    0.177626
     26          1           0       -4.577933   -1.372901    0.064690
     27          1           0       -1.407419   -2.932981   -0.023960
     28          1           0        1.703975   -2.746676   -0.044224
 ---------------------------------------------------------------------

 SCF Done:  E(UB3LYP) =  -990.109693309     A.U. after    1 cycles

 Alpha  occ. eigenvalues --  -19.15755 -19.15142 -19.14261 -19.13112 -19.10181
 Alpha  occ. eigenvalues --  -19.07599 -10.23823 -10.23818 -10.23644 -10.23510
 Alpha  occ. eigenvalues --  -10.23380 -10.23375 -10.18464 -10.18380 -10.18311
 Alpha  occ. eigenvalues --  -10.17662 -10.17602 -10.17513 -10.17174 -10.17108
 Alpha  occ. eigenvalues --   -1.07824  -1.06348  -1.05657  -1.04785  -1.00539
 Alpha  occ. eigenvalues --   -1.00357  -0.86519  -0.84910  -0.79310  -0.75297
 Alpha  occ. eigenvalues --   -0.74604  -0.73875  -0.67871  -0.65355  -0.64843
 Alpha  occ. eigenvalues --   -0.60756  -0.59293  -0.56209  -0.55705  -0.53579
 Alpha  occ. eigenvalues --   -0.52610  -0.49976  -0.49167  -0.48211  -0.46575
 Alpha  occ. eigenvalues --   -0.45268  -0.44967  -0.43293  -0.43016  -0.42986
 Alpha  occ. eigenvalues --   -0.41787  -0.40876  -0.40566  -0.40063  -0.39221
 Alpha  occ. eigenvalues --   -0.38909  -0.37918  -0.37738  -0.36355  -0.36276
 Alpha  occ. eigenvalues --   -0.36105  -0.35237  -0.32567  -0.31267  -0.27461
 Alpha  occ. eigenvalues --   -0.26912  -0.24979  -0.23717  -0.22664  -0.21678
 Alpha  occ. eigenvalues --   -0.14548
 Alpha virt. eigenvalues --   -0.04701  -0.02444  -0.00419  -0.00003   0.00956
 Alpha virt. eigenvalues --    0.01085   0.01541   0.02084   0.03790   0.04285
 Alpha virt. eigenvalues --    0.04435   0.04452   0.05222   0.06000   0.06031

  Beta  occ. eigenvalues --  -19.15740 -19.15122 -19.14213 -19.13050 -19.09720
  Beta  occ. eigenvalues --  -19.07154 -10.23830 -10.23562 -10.23469 -10.23424
  Beta  occ. eigenvalues --  -10.23342 -10.23293 -10.18498 -10.18344 -10.18288
  Beta  occ. eigenvalues --  -10.17610 -10.17455 -10.17433 -10.17112 -10.17111
  Beta  occ. eigenvalues --   -1.07738  -1.06301  -1.05439  -1.04692  -0.99789
  Beta  occ. eigenvalues --   -0.99587  -0.86273  -0.84759  -0.78925  -0.75072
  Beta  occ. eigenvalues --   -0.74366  -0.73669  -0.67201  -0.65207  -0.64638
  Beta  occ. eigenvalues --   -0.60618  -0.59089  -0.56071  -0.55630  -0.53434
  Beta  occ. eigenvalues --   -0.52494  -0.49823  -0.48901  -0.48113  -0.46413
  Beta  occ. eigenvalues --   -0.45171  -0.44278  -0.43167  -0.42730  -0.42566
  Beta  occ. eigenvalues --   -0.41622  -0.40579  -0.39957  -0.39807  -0.38837
  Beta  occ. eigenvalues --   -0.38393  -0.37649  -0.37117  -0.36199  -0.35980
  Beta  occ. eigenvalues --   -0.35082  -0.34992  -0.31924  -0.30521  -0.26576
  Beta  occ. eigenvalues --   -0.25908  -0.24551  -0.23306  -0.21614  -0.20913
  Beta virt. eigenvalues --   -0.09146  -0.03462  -0.01470  -0.00398   0.00008
  Beta virt. eigenvalues --    0.00967   0.01524   0.01557   0.02099   0.03805
  Beta virt. eigenvalues --    0.04304   0.04470   0.04641   0.06045   0.06078

 Mulliken charges and spin densities:
               1          2
     1  O   -0.306793   0.004744
     2  C   -0.355401   0.025331
     3  C   -0.003757   0.043630
     4  C   -0.034297   0.017002
     5  C    0.247092   0.051450
     6  C   -0.448723   0.037648
     7  O   -0.441247   0.167065
     8  C    0.119104   0.055460
     9  C   -0.221332   0.010860
    10  O   -0.250244   0.005569
    11  C   -0.200116   0.106877
    12  C   -0.156199   0.036513
    13  C   -0.203442   0.078260
    14  O   -0.419538   0.018844
    15  C    0.609788  -0.050034
    16  C   -0.494637   0.205773
    17  O   -0.579116   0.158631
    18  C    0.501742  -0.045055
    19  C   -0.061380   0.080575
    20  O   -0.477900   0.014717
    21  H    0.309038  -0.000155
    22  H    0.212049  -0.003522
    23  H    0.167257  -0.001196
    24  H    0.292445  -0.000608
    25  H    0.170509  -0.009121
    26  H    0.195907  -0.004020
    27  H    0.398345  -0.002703
    28  H    0.430845  -0.002535
 Sum of Mulliken charges =  -1.00000   1.00000

 Dipole moment (field-independent basis, Debye):
    X=             -2.7235    Y=             -0.6905    Z=             -0.5798  Tot=              2.8688
 Quadrupole moment (field-independent basis, Debye-Ang):
   XX=           -123.6577   YY=           -151.9168   ZZ=           -120.8820
   XY=             -8.5913   XZ=             -0.4772   YZ=             -1.7580

  Exact polarizability: 511.624  -7.151 365.094  -3.278  11.529 132.893
 Approx polarizability: 535.519 -11.338 448.606  -3.523  14.686 153.881

                      1                      2                      3
                      A                      A                      A
 Frequencies --     27.0462                59.3437                94.2294
 Red. masses --      8.3077                 7.4200                 8.1250
 Frc consts  --      0.0036                 0.0154                 0.0425
 IR Inten    --     11.4753                 0.1973                 2.1716

                      4                      5                      6
                      A                      A                      A
 Frequencies --    125.3656               131.2312               189.2445
 Red. masses --      7.9128                 9.3349                 6.9597
 Frc consts  --      0.0733                 0.0947                 0.1469
 IR Inten    --      0.5455                 0.3105                 3.7543

                      7                      8                      9
                      A                      A                      A
 Frequencies --    196.9134               268.4971               274.7540
 Red. masses --      6.7277                 5.5350                 7.2725
 Frc consts  --      0.1537                 0.2351                 0.3235
 IR Inten    --      0.0631                 2.4176                17.6574

                     10                     11                     12
                      A                      A                      A
 Frequencies --    315.7977               323.5393               338.3644
 Red. masses --      7.3621                 5.1854                 5.9111
 Frc consts  --      0.4326                 0.3198                 0.3987
 IR Inten    --      1.7346                16.5065                 0.5040

                     13                     14                     15
                      A                      A                      A
 Frequencies --    355.1665               360.7497               385.7150
 Red. masses --      2.0014                11.4965                 1.9084
 Frc consts  --      0.1487                 0.8815                 0.1673
 IR Inten    --     44.6611                 9.1468                60.7183

                     16                     17                     18
                      A                      A                      A
 Frequencies --    392.8431               416.2637               427.2533
 Red. masses --      1.1364                 6.6343                 6.7387
 Frc consts  --      0.1033                 0.6773                 0.7248
 IR Inten    --    213.6429                22.8558                 3.8079

                     19                     20                     21
                      A                      A                      A
 Frequencies --    457.3698               463.6104               475.7812
 Red. masses --      8.9743                10.1016                 9.5021
 Frc consts  --      1.1061                 1.2792                 1.2673
 IR Inten    --     25.0368               122.0603                 4.2407

                     22                     23                     24
                      A                      A                      A
 Frequencies --    486.9642               502.3102               525.7613
 Red. masses --      8.1416                 4.6120                 7.0957
 Frc consts  --      1.1375                 0.6856                 1.1556
 IR Inten    --      6.1590                 0.0340                 5.2940

                     25                     26                     27
                      A                      A                      A
 Frequencies --    560.1146               583.7532               595.0085
 Red. masses --      5.1608                 5.7225                 3.8979
 Frc consts  --      0.9539                 1.1489                 0.8131
 IR Inten    --      0.0682                52.2655                21.6596

                     28                     29                     30
                      A                      A                      A
 Frequencies --    631.8978               656.1365               706.1610
 Red. masses --      6.1367                 5.2910                 6.4123
 Frc consts  --      1.4437                 1.3421                 1.8839
 IR Inten    --     55.7714                11.6309                 7.6923

                     31                     32                     33
                      A                      A                      A
 Frequencies --    710.0011               729.8887               739.9302
 Red. masses --      9.0104                 6.1683                 7.2284
 Frc consts  --      2.6762                 1.9361                 2.3317
 IR Inten    --      0.0582                 1.6213                61.9980

                     34                     35                     36
                      A                      A                      A
 Frequencies --    766.3301               803.0458               806.5848
 Red. masses --      4.5704                 9.1124                 1.5233
 Frc consts  --      1.5814                 3.4623                 0.5839
 IR Inten    --      3.4794               260.1314               278.4812

                     37                     38                     39
                      A                      A                      A
 Frequencies --    816.3740               825.4900               841.1561
 Red. masses --      1.1316                 1.7350                 1.0617
 Frc consts  --      0.4443                 0.6966                 0.4426
 IR Inten    --    113.7770                 0.3099                 6.9330

                     40                     41                     42
                      A                      A                      A
 Frequencies --    854.2726               901.4665               928.8869
 Red. masses --      8.6875                 1.3185                 6.7872
 Frc consts  --      3.7354                 0.6313                 3.4504
 IR Inten    --     35.5338                 0.3389               199.0295

                     43                     44                     45
                      A                      A                      A
 Frequencies --    956.3750               985.4118              1036.4291
 Red. masses --      1.2871                 7.0514                 3.1874
 Frc consts  --      0.6936                 4.0342                 2.0173
 IR Inten    --      0.1136               107.7936               109.6944

                     46                     47                     48
                      A                      A                      A
 Frequencies --   1092.9554              1156.9703              1173.8621
 Red. masses --      2.3655                 1.5807                 1.5512
 Frc consts  --      1.6649                 1.2466                 1.2594
 IR Inten    --    105.5350                47.6810                67.9836

                     49                     50                     51
                      A                      A                      A
 Frequencies --   1190.1899              1217.6712              1239.8333
 Red. masses --      1.7964                 1.9956                 2.9412
 Frc consts  --      1.4993                 1.7434                 2.6638
 IR Inten    --    169.1397               215.5995                19.6990

                     52                     53                     54
                      A                      A                      A
 Frequencies --   1242.3561              1254.9758              1273.1723
 Red. masses --      4.6122                 3.9643                 2.8914
 Frc consts  --      4.1942                 3.6786                 2.7614
 IR Inten    --     43.5487                 4.3248               184.5487

                     55                     56                     57
                      A                      A                      A
 Frequencies --   1310.5705              1324.8976              1335.1801
 Red. masses --      3.2173                 3.3048                 6.3977
 Frc consts  --      3.2558                 3.4179                 6.7198
 IR Inten    --    961.5216               502.6509               271.4652

                     58                     59                     60
                      A                      A                      A
 Frequencies --   1362.2725              1388.1042              1400.3335
 Red. masses --      3.8194                 3.1849                 3.6546
 Frc consts  --      4.1761                 3.6156                 4.2223
 IR Inten    --    609.5994               345.6099               140.7161

                     61                     62                     63
                      A                      A                      A
 Frequencies --   1426.0266              1477.3946              1487.4113
 Red. masses --      3.7306                 2.5204                 2.3967
 Frc consts  --      4.4697                 3.2413                 3.1242
 IR Inten    --    309.5505               202.0893               193.8207

                     64                     65                     66
                      A                      A                      A
 Frequencies --   1509.0499              1525.6922              1564.6823
 Red. masses --      2.9394                 6.4375                 2.9594
 Frc consts  --      3.9438                 8.8289                 4.2688
 IR Inten    --    164.5302              1556.5328                56.3608

                     67                     68                     69
                      A                      A                      A
 Frequencies --   1586.1906              1613.0173              1627.3716
 Red. masses --      4.8355                 5.5654                 3.8779
 Frc consts  --      7.1680                 8.5314                 6.0510
 IR Inten    --    276.1649                60.9280                48.3205

                     70                     71                     72
                      A                      A                      A
 Frequencies --   1666.5639              3015.5574              3086.5665
 Red. masses --      3.7938                 1.0693                 1.0722
 Frc consts  --      6.2083                 5.7293                 6.0182
 IR Inten    --     88.7172              1666.5015                49.9519

                     73                     74                     75
                      A                      A                      A
 Frequencies --   3154.3132              3178.6375              3186.6619
 Red. masses --      1.0890                 1.0892                 1.0929
 Frc consts  --      6.3839                 6.4842                 6.5389
 IR Inten    --     30.7401                 9.9937                19.9702

                     76                     77                     78
                      A                      A                      A
 Frequencies --   3204.0021              3752.7472              3795.2425
 Red. masses --      1.0923                 1.0655                 1.0660
 Frc consts  --      6.6065                 8.8411                 9.0463
 IR Inten    --     12.1339               166.6458               118.2979

 - Thermochemistry -
 -------------------
 Temperature   298.150 Kelvin.  Pressure   1.00000 Atm.
 Atom     1 has atomic number  8 and mass  15.99491

 Molecular mass:   272.03209 amu.
 Principal axes and moments of inertia in atomic units:
                           1         2         3
     Eigenvalues --  2901.772836668.188519569.79929
           X            0.98800   0.15426   0.00805
           Y           -0.15369   0.98692  -0.04870
           Z           -0.01545   0.04688   0.99878
 This molecule is an asymmetric top.
 Rotational symmetry number  1.
 Warning -- assumption of classical behavior for rotation
           may cause significant error
 Rotational temperatures (Kelvin)      0.02985     0.01299     0.00905
 Rotational constants (GHZ):           0.62194     0.27065     0.18859
 Zero-point vibrational energy     507511.5 (Joules/Mol)
                                  121.29817 (Kcal/Mol)
 Warning -- explicit consideration of  27 degrees of freedom as
           vibrations may cause significant error
 Vibrational temperatures:     38.91    85.38   135.58   180.37   188.81
          (Kelvin)            272.28   283.31   386.31   395.31   454.36
                              465.50   486.83   511.01   519.04   554.96
                              565.21   598.91   614.72   658.05   667.03
                              684.54   700.63   722.71   756.45   805.88
                              839.89   856.08   909.16   944.03  1016.01
                             1021.53  1050.15  1064.59  1102.58  1155.40
                             1160.50  1174.58  1187.70  1210.24  1229.11
                             1297.01  1336.46  1376.01  1417.79  1491.19
                             1572.52  1664.62  1688.93  1712.42  1751.96
                             1783.84  1787.47  1805.63  1831.81  1885.62
                             1906.23  1921.03  1960.01  1997.17  2014.77
                             2051.73  2125.64  2140.05  2171.19  2195.13
                             2251.23  2282.17  2320.77  2341.42  2397.81
                             4338.71  4440.88  4538.35  4573.35  4584.90
                             4609.84  5399.37  5460.51

 Zero-point correction=                           0.193301 (Hartree/Particle)
 Thermal correction to Energy=                    0.208695
 Thermal correction to Enthalpy=                  0.209639
 Thermal correction to Gibbs Free Energy=         0.150147
 Sum of electronic and zero-point Energies=           -989.916392
 Sum of electronic and thermal Energies=              -989.900998
 Sum of electronic and thermal Enthalpies=            -989.900054
 Sum of electronic and thermal Free Energies=         -989.959546

                     E (Thermal)             CV                S
                      KCal/Mol        Cal/Mol-Kelvin    Cal/Mol-Kelvin
 Total                  130.958             62.389            125.212
 Electronic               0.000              0.000              1.377
 Translational            0.889              2.981             42.701
 Rotational               0.889              2.981             33.581
 Vibrational            129.181             56.427             47.552
 Vibration     1          0.593              1.984              6.035
 Vibration     2          0.597              1.974              4.479
 Vibration     3          0.603              1.953              3.570
 Vibration     4          0.610              1.928              3.016
 Vibration     5          0.612              1.922              2.928
 Vibration     6          0.633              1.855              2.235
 Vibration     7          0.636              1.844              2.162
 Vibration     8          0.673              1.731              1.606
 Vibration     9          0.677              1.720              1.566
 Vibration    10          0.703              1.643              1.332
 Vibration    11          0.708              1.628              1.292
 Vibration    12          0.719              1.599              1.220
 Vibration    13          0.731              1.565              1.143
 Vibration    14          0.735              1.553              1.119
 Vibration    15          0.754              1.501              1.017
 Vibration    16          0.760              1.485              0.989
 Vibration    17          0.779              1.435              0.905
 Vibration    18          0.789              1.411              0.868
 Vibration    19          0.815              1.345              0.774
 Vibration    20          0.821              1.331              0.756
 Vibration    21          0.832              1.304              0.722
 Vibration    22          0.843              1.279              0.692
 Vibration    23          0.858              1.245              0.652
 Vibration    24          0.881              1.193              0.597
 Vibration    25          0.916              1.118              0.524
 Vibration    26          0.941              1.066              0.478
 Vibration    27          0.953              1.042              0.458

 Optimization completed.
    -- Stationary point found.
 Normal termination of Gaussian 16 at Sun Feb 11 01:07:23 2024.
