 Q-Chem 5.4, Q-Chem, Inc., Pleasanton, CA (2021)
 Q-Chem 5.4.0 for Intel X86 EM64T Linux

User input:
--------------------------------------------------------------
$molecule
-1 2
O                  2.7719960000     -2.7466590000     -1.3782930000
C                  2.2217780000     -1.7560060000     -0.8257030000
C                  0.7962250000     -1.5996630000     -0.7546590000
C                  0.1426630000     -0.5340420000     -0.1607630000
C                 -1.3765510000     -0.4993310000     -0.1608270000
C                 -1.9490730000      0.7024460000     -0.9472320000
C                 -3.4847350000      0.6947880000     -0.9689480000
C                 -4.0705990000      0.6454570000      0.4494910000
C                 -3.5140730000     -0.5501890000      1.2358760000
C                 -1.9784700000     -0.5451410000      1.2625620000
C                  0.8907910000      0.5426330000      0.4568270000
O                  0.3373240000      1.5353670000      1.0112420000
C                  2.3606170000      0.4286940000      0.4106300000
C                  3.1505630000      1.4411150000      0.9924310000
C                  4.5321260000      1.3713210000      0.9696400000
C                  5.1718120000      0.2753110000      0.3578410000
C                  4.4143670000     -0.7288480000     -0.2187700000
C                  3.0073920000     -0.6748960000     -0.2052050000
H                  0.2161030000     -2.3977290000     -1.2127240000
H                 -1.7105240000     -1.4103020000     -0.6795890000
H                 -1.5837360000      1.6218400000     -0.4812930000
H                 -1.5584770000      0.6816090000     -1.9707330000
H                 -3.8582890000      1.5783280000     -1.5012800000
H                 -3.8402930000     -0.1804890000     -1.5319400000
H                 -3.8102430000      1.5725630000      0.9764750000
H                 -5.1664010000      0.6008050000      0.4097050000
H                 -3.8707140000     -1.4802750000      0.7697660000
H                 -3.9086480000     -0.5454960000      2.2595240000
H                 -1.6085020000     -1.4365970000      1.7811920000
H                 -1.6143430000      0.3246180000      1.8164280000
H                  2.6327190000      2.2728990000      1.4562880000
H                  5.1246060000      2.1609550000      1.4230870000
H                  6.2565420000      0.2202760000      0.3397160000
H                  4.8760470000     -1.5853620000     -0.6973530000
$end

$rem
BASIS  =  6-311++G(d,p)
GUI  =  2
JOB_TYPE  =  SP
METHOD  =  B3LYP
SCF_CONVERGENCE  = 8
SOLVENT_METHOD = sm12
$end

$smx
solvent dimethylformamide
charges CM5
$end

--------------------------------------------------------------

             Standard Nuclear Orientation (Angstroms)
    I     Atom           X                Y                Z
 ----------------------------------------------------------------
    1      O       2.7719960000    -2.7466590000    -1.3782930000
    2      C       2.2217780000    -1.7560060000    -0.8257030000
    3      C       0.7962250000    -1.5996630000    -0.7546590000
    4      C       0.1426630000    -0.5340420000    -0.1607630000
    5      C      -1.3765510000    -0.4993310000    -0.1608270000
    6      C      -1.9490730000     0.7024460000    -0.9472320000
    7      C      -3.4847350000     0.6947880000    -0.9689480000
    8      C      -4.0705990000     0.6454570000     0.4494910000
    9      C      -3.5140730000    -0.5501890000     1.2358760000
   10      C      -1.9784700000    -0.5451410000     1.2625620000
   11      C       0.8907910000     0.5426330000     0.4568270000
   12      O       0.3373240000     1.5353670000     1.0112420000
   13      C       2.3606170000     0.4286940000     0.4106300000
   14      C       3.1505630000     1.4411150000     0.9924310000
   15      C       4.5321260000     1.3713210000     0.9696400000
   16      C       5.1718120000     0.2753110000     0.3578410000
   17      C       4.4143670000    -0.7288480000    -0.2187700000
   18      C       3.0073920000    -0.6748960000    -0.2052050000
   19      H       0.2161030000    -2.3977290000    -1.2127240000
   20      H      -1.7105240000    -1.4103020000    -0.6795890000
   21      H      -1.5837360000     1.6218400000    -0.4812930000
   22      H      -1.5584770000     0.6816090000    -1.9707330000
   23      H      -3.8582890000     1.5783280000    -1.5012800000
   24      H      -3.8402930000    -0.1804890000    -1.5319400000
   25      H      -3.8102430000     1.5725630000     0.9764750000
   26      H      -5.1664010000     0.6008050000     0.4097050000
   27      H      -3.8707140000    -1.4802750000     0.7697660000
   28      H      -3.9086480000    -0.5454960000     2.2595240000
   29      H      -1.6085020000    -1.4365970000     1.7811920000
   30      H      -1.6143430000     0.3246180000     1.8164280000
   31      H       2.6327190000     2.2728990000     1.4562880000
   32      H       5.1246060000     2.1609550000     1.4230870000
   33      H       6.2565420000     0.2202760000     0.3397160000
   34      H       4.8760470000    -1.5853620000    -0.6973530000
 ----------------------------------------------------------------

   17    -770.0684986347      6.24e-09  Convergence criterion met
 Total energy in the final basis set =     -770.1558622018

                    Orbital Energies (a.u.)
 --------------------------------------------------------------

 Alpha MOs
 -- Occupied --
-19.0745 -19.0742 -10.2214 -10.2214 -10.1828 -10.1823 -10.1790 -10.1788
-10.1782 -10.1778 -10.1762 -10.1735 -10.1662 -10.1661 -10.1653 -10.1629
-10.1605 -10.1605  -0.9984  -0.9960  -0.8638  -0.8395  -0.8073  -0.7631
 -0.7567  -0.7413  -0.7262  -0.6743  -0.6326  -0.6191  -0.6101  -0.5904
 -0.5648  -0.5506  -0.5106  -0.5038  -0.4765  -0.4656  -0.4589  -0.4414
 -0.4384  -0.4343  -0.4220  -0.4209  -0.4138  -0.4075  -0.3915  -0.3871
 -0.3791  -0.3772  -0.3725  -0.3558  -0.3548  -0.3445  -0.3425  -0.3412
 -0.3214  -0.3058  -0.3053  -0.2722  -0.2633  -0.2535  -0.2403  -0.2338
 -0.1539

 Beta MOs
 -- Occupied --
-19.0679 -19.0674 -10.2202 -10.2200 -10.1825 -10.1819 -10.1788 -10.1784
-10.1778 -10.1775 -10.1763 -10.1719 -10.1662 -10.1661 -10.1653 -10.1616
-10.1604 -10.1604  -0.9869  -0.9843  -0.8619  -0.8384  -0.8033  -0.7616
 -0.7551  -0.7411  -0.7245  -0.6657  -0.6311  -0.6168  -0.6098  -0.5888
 -0.5633  -0.5497  -0.5085  -0.5017  -0.4744  -0.4646  -0.4580  -0.4412
 -0.4381  -0.4337  -0.4202  -0.4122  -0.4086  -0.4021  -0.3880  -0.3831
 -0.3790  -0.3761  -0.3544  -0.3527  -0.3458  -0.3432  -0.3405  -0.3375
 -0.3210  -0.3046  -0.3038  -0.2569  -0.2502  -0.2409  -0.2342  -0.2279

          Ground-State Mulliken Net Atomic Charges

     Atom                 Charge (a.u.)    Spin (a.u.)
  --------------------------------------------------------
      1 O                    -0.368461       0.237919
      2 C                    -1.783353       0.079687
      3 C                    -0.865276       0.091207
      4 C                     0.669704       0.085067
      5 C                     1.459471      -0.023425
      6 C                    -0.483076       0.018407
      7 C                     0.384217       0.000879
      8 C                     0.094221      -0.000031
      9 C                     0.384079       0.000807
     10 C                    -0.481157       0.018672
     11 C                    -2.234256       0.095613
     12 O                    -0.200322       0.257977
     13 C                    -1.473467       0.008154
     14 C                     0.074843       0.046528
     15 C                     0.922535       0.021700
     16 C                     1.036105       0.030524
     17 C                    -0.026315       0.021134
     18 C                    -0.982083       0.033381
     19 H                     0.140842      -0.009105
     20 H                     0.221025      -0.002496
     21 H                     0.031011      -0.002217
     22 H                     0.129184       0.000010
     23 H                     0.265582       0.000478
     24 H                     0.134386      -0.000067
     25 H                     0.076374       0.000085
     26 H                     0.301812      -0.000013
     27 H                     0.134296      -0.000068
     28 H                     0.265690       0.000475
     29 H                     0.129153       0.000015
     30 H                     0.031490      -0.002184
     31 H                     0.148532      -0.002640
     32 H                     0.363483      -0.001882
     33 H                     0.363661      -0.002226
     34 H                     0.136071      -0.002363
  --------------------------------------------------------
  Sum of atomic charges =    -1.000000

                    Cartesian Multipole Moments
 -----------------------------------------------------------------
    Charge (ESU x 10^10)
                -4.8032
    Dipole Moment (Debye)
         X      -8.0393      Y       3.1971      Z       1.0364
       Tot       8.7135
    Quadrupole Moments (Debye-Ang)
        XX    -136.3399     XY      16.4510     YY    -135.5684
        XZ       7.9106     YZ     -10.7373     ZZ    -121.2462

 Total job time:  1121.22s(wall), 8757.91s(cpu)
        *  Thank you very much for using Q-Chem.  Have a nice day.  *
