 Q-Chem 5.4, Q-Chem, Inc., Pleasanton, CA (2021)
 Q-Chem 5.4.0 for Intel X86 EM64T Linux

User input:
--------------------------------------------------------------
$molecule
0 1
C                  5.7363340000     -5.2387200000      1.1146010000
C                  6.6835370000     -5.1124060000      0.1025660000
C                  6.5612920000     -4.0831570000     -0.8442830000
C                  4.6669560000     -4.3486860000      1.1929840000
C                  4.5460430000     -3.3210990000      0.2468140000
C                  5.4929460000     -3.1939190000     -0.7658820000
C                  3.6637750000     -4.5044140000      2.2871460000
C                  2.5272620000     -3.5295130000      2.3410320000
C                  2.4354750000     -2.5517060000      1.4193660000
C                  3.4046760000     -2.3621340000      0.3213130000
O                  3.7569490000     -5.3927130000      3.1167180000
O                  3.2694770000     -1.4564600000     -0.4854780000
H                  5.8188960000     -6.0275960000      1.8506100000
H                  5.3848180000     -2.3953370000     -1.4881360000
Br                 8.1160290000     -6.3658610000      0.0603810000
Br                 7.8164230000     -3.8478010000     -2.2557310000
C                  1.5391380000     -3.7144060000      3.4512510000
H                  1.6217990000     -1.8336030000      1.4373490000
H                  2.0387090000     -3.6577200000      4.4222560000
H                  1.0858500000     -4.7081460000      3.3991180000
H                  0.7535880000     -2.9595350000      3.4076430000
$end
$rem
MAX_SCF_CYCLES=200
BASIS  =  6-311++G(d,p)
GUI  =  2
JOB_TYPE  =  SP
METHOD  =  B3LYP
SOLVENT_METHOD = PCM
$end
$pcm
theory = CPCM
$end
$solvent
dielectric 37.219
opticaldielectric 1.43
$end

--------------------------------------------------------------

             Standard Nuclear Orientation (Angstroms)
    I     Atom           X                Y                Z
 ----------------------------------------------------------------
    1      C       5.7363340000    -5.2387200000     1.1146010000
    2      C       6.6835370000    -5.1124060000     0.1025660000
    3      C       6.5612920000    -4.0831570000    -0.8442830000
    4      C       4.6669560000    -4.3486860000     1.1929840000
    5      C       4.5460430000    -3.3210990000     0.2468140000
    6      C       5.4929460000    -3.1939190000    -0.7658820000
    7      C       3.6637750000    -4.5044140000     2.2871460000
    8      C       2.5272620000    -3.5295130000     2.3410320000
    9      C       2.4354750000    -2.5517060000     1.4193660000
   10      C       3.4046760000    -2.3621340000     0.3213130000
   11      O       3.7569490000    -5.3927130000     3.1167180000
   12      O       3.2694770000    -1.4564600000    -0.4854780000
   13      H       5.8188960000    -6.0275960000     1.8506100000
   14      H       5.3848180000    -2.3953370000    -1.4881360000
   15      Br      8.1160290000    -6.3658610000     0.0603810000
   16      Br      7.8164230000    -3.8478010000    -2.2557310000
   17      C       1.5391380000    -3.7144060000     3.4512510000
   18      H       1.6217990000    -1.8336030000     1.4373490000
   19      H       2.0387090000    -3.6577200000     4.4222560000
   20      H       1.0858500000    -4.7081460000     3.3991180000
   21      H       0.7535880000    -2.9595350000     3.4076430000
 ----------------------------------------------------------------

    9   -5721.6756561185      2.14e-06  Convergence criterion met
 Total energy in the final basis set =    -5721.6756561185

                    Orbital Energies (a.u.)
 --------------------------------------------------------------

 Alpha MOs
 -- Occupied --
********-482.8508 -62.5038 -62.5036 -56.3244 -56.3242 -56.3204 -56.3203
-56.3201 -56.3200 -19.1440 -19.1406 -10.2918 -10.2894 -10.2681 -10.2676
-10.2244 -10.2208 -10.2199 -10.2168 -10.2165 -10.2062 -10.1763  -8.7126
 -8.7124  -6.5444  -6.5443  -6.5312  -6.5310  -6.5304  -6.5302  -2.6552
 -2.6551  -2.6515  -2.6513  -2.6511  -2.6508  -2.6405  -2.6404  -2.6403
 -2.6402  -1.0775  -1.0730  -0.9206  -0.8657  -0.8330  -0.8320  -0.7768
 -0.7651  -0.7290  -0.6872  -0.6560  -0.6284  -0.5980  -0.5501  -0.5268
 -0.5172  -0.4784  -0.4727  -0.4687  -0.4670  -0.4659  -0.4341  -0.4332
 -0.4215  -0.4182  -0.4056  -0.4019  -0.3929  -0.3873  -0.3395  -0.3390
 -0.3266  -0.2997  -0.2990  -0.2963  -0.2823  -0.2804  -0.2691

          Ground-State Mulliken Net Atomic Charges

     Atom                 Charge (a.u.)
  ----------------------------------------
      1 C                     0.006835
      2 C                    -0.048624
      3 C                    -0.104120
      4 C                     0.312112
      5 C                     0.884106
      6 C                    -0.010612
      7 C                    -0.580400
      8 C                     0.884772
      9 C                    -0.490480
     10 C                    -0.867403
     11 O                    -0.265382
     12 O                    -0.295737
     13 H                     0.246501
     14 H                     0.239195
     15 Br                   -0.190102
     16 Br                   -0.199651
     17 C                    -0.333982
     18 H                     0.224686
     19 H                     0.200426
     20 H                     0.200715
     21 H                     0.187143
  ----------------------------------------
  Sum of atomic charges =     0.000000

                    Cartesian Multipole Moments
 -----------------------------------------------------------------
    Charge (ESU x 10^10)
                -0.0000
    Dipole Moment (Debye)
         X      -1.6283      Y      -0.0089      Z       1.5193
       Tot       2.2271
    Quadrupole Moments (Debye-Ang)
        XX    -119.7124     XY       6.4180     YY    -120.1118
        XZ      -0.5073     YZ       3.1361     ZZ    -112.4462

 Total job time:  47.42s(wall), 251.14s(cpu)
        *  Thank you very much for using Q-Chem.  Have a nice day.  *
