 Q-Chem 5.4, Q-Chem, Inc., Pleasanton, CA (2021)
 Q-Chem 5.4.0 for Intel X86 EM64T Linux

User input:
--------------------------------------------------------------
$molecule
-2 1
C                 -1.6950720000      0.8519370000      1.6552070000
C                 -2.8156470000      1.1794530000      0.8102520000
C                 -2.7459270000      1.0285030000     -0.5759780000
C                 -1.6150790000      0.5960450000     -1.3199550000
C                 -0.4945210000      0.2684800000     -0.4749960000
C                 -0.5642360000      0.4194450000      0.9112340000
O                 -1.5054410000      0.5292610000     -2.6102550000
O                 -1.8046260000      0.9189730000      2.9455030000
Br                 1.0437580000     -0.0325150000      1.9696810000
Br                -4.3539410000      1.4804030000     -1.6344220000
N                  0.6671050000     -0.1628630000     -1.1765940000
N                 -3.9772940000      1.6107220000      1.5118580000
H                  0.4803220000      0.0619590000     -2.1566210000
H                  1.5100200000      0.2954020000     -0.8418330000
H                 -3.7904990000      1.3858480000      2.4918700000
H                 -4.8201920000      1.1524380000      1.1770800000
$end

$rem
BASIS  =  6-311++G(d,p)
GUI  =  2
JOB_TYPE  =  SP
METHOD  =  B3LYP
SCF_CONVERGENCE  = 8
SOLVENT_METHOD = sm12
$end

$smx
solvent dimethylformamide
charges CM5
$end

--------------------------------------------------------------

             Standard Nuclear Orientation (Angstroms)
    I     Atom           X                Y                Z
 ----------------------------------------------------------------
    1      C      -1.6950720000     0.8519370000     1.6552070000
    2      C      -2.8156470000     1.1794530000     0.8102520000
    3      C      -2.7459270000     1.0285030000    -0.5759780000
    4      C      -1.6150790000     0.5960450000    -1.3199550000
    5      C      -0.4945210000     0.2684800000    -0.4749960000
    6      C      -0.5642360000     0.4194450000     0.9112340000
    7      O      -1.5054410000     0.5292610000    -2.6102550000
    8      O      -1.8046260000     0.9189730000     2.9455030000
    9      Br      1.0437580000    -0.0325150000     1.9696810000
   10      Br     -4.3539410000     1.4804030000    -1.6344220000
   11      N       0.6671050000    -0.1628630000    -1.1765940000
   12      N      -3.9772940000     1.6107220000     1.5118580000
   13      H       0.4803220000     0.0619590000    -2.1566210000
   14      H       1.5100200000     0.2954020000    -0.8418330000
   15      H      -3.7904990000     1.3858480000     2.4918700000
   16      H      -4.8201920000     1.1524380000     1.1770800000
 ----------------------------------------------------------------

   16   -5639.4068845945      9.82e-09  Convergence criterion met
 Total energy in the final basis set =    -5639.6713914439

                    Orbital Energies (a.u.)
 --------------------------------------------------------------

 Alpha MOs
 -- Occupied --
********-482.8028 -62.4550 -62.4550 -56.2753 -56.2753 -56.2720 -56.2720
-56.2717 -56.2717 -19.0213 -19.0213 -14.2968 -14.2968 -10.1822 -10.1822
-10.1802 -10.1802 -10.1722 -10.1722  -8.6632  -8.6632  -6.4933  -6.4933
 -6.4825  -6.4825  -6.4817  -6.4817  -2.6044  -2.6044  -2.6014  -2.6014
 -2.6007  -2.6007  -2.5922  -2.5922  -2.5922  -2.5922  -0.9443  -0.9384
 -0.8810  -0.8791  -0.7969  -0.7744  -0.7402  -0.6643  -0.6483  -0.5565
 -0.5464  -0.5153  -0.4580  -0.4474  -0.4444  -0.4112  -0.3852  -0.3696
 -0.3634  -0.3594  -0.3366  -0.3251  -0.3146  -0.2799  -0.2739  -0.2691
 -0.2638  -0.2590  -0.2141  -0.2062  -0.2011  -0.1845  -0.1167

          Ground-State Mulliken Net Atomic Charges

     Atom                 Charge (a.u.)
  ----------------------------------------
      1 C                    -1.963158
      2 C                    -2.465130
      3 C                     3.150767
      4 C                    -1.963321
      5 C                    -2.464742
      6 C                     3.150518
      7 O                    -0.392981
      8 O                    -0.392988
      9 Br                    0.319830
     10 Br                    0.319826
     11 N                    -0.088677
     12 N                    -0.088667
     13 H                     0.221375
     14 H                     0.217988
     15 H                     0.221370
     16 H                     0.217990
  ----------------------------------------
  Sum of atomic charges =    -2.000000

                    Cartesian Multipole Moments
 -----------------------------------------------------------------
    Charge (ESU x 10^10)
                -9.6064
    Dipole Moment (Debye)
         X      15.8993      Y      -6.9554      Z      -1.6104
       Tot      17.4287
    Quadrupole Moments (Debye-Ang)
        XX    -153.4223     XY      25.2089     YY    -118.7920
        XZ      -6.1661     YZ      -4.6264     ZZ    -160.7198

 Total job time:  224.17s(wall), 1586.70s(cpu)
        *  Thank you very much for using Q-Chem.  Have a nice day.  *
