 Q-Chem 5.4, Q-Chem, Inc., Pleasanton, CA (2021)
 Q-Chem 5.4.0 for Intel X86 EM64T Linux

User input:
--------------------------------------------------------------
$molecule
-2 1
C                 -3.1972750000      1.3946760000      0.1808570000
C                 -2.3862780000      0.6702460000     -0.9161800000
C                 -1.0253050000      0.1981090000     -0.4636190000
C                 -0.8295400000     -1.1205000000      0.0283590000
C                 -1.9911000000     -2.0818160000      0.1505550000
C                  0.4457550000     -1.6222630000      0.4324050000
O                  0.6378380000     -2.8206120000      0.8819800000
C                  1.5495020000     -0.6777310000      0.3077810000
C                  2.8542690000     -1.0691780000      0.6884790000
C                  3.9377520000     -0.2140840000      0.5853490000
C                  3.7493610000      1.0983560000      0.0825460000
C                  2.4807390000      1.5097160000     -0.2896730000
C                  1.3567610000      0.6593700000     -0.1900000000
C                  0.0415100000      1.1466050000     -0.5929060000
O                 -0.1247800000      2.3428500000     -1.0430340000
H                 -4.1830000000      1.7178750000     -0.1928060000
H                 -2.6496550000      2.2776400000      0.5214840000
H                 -3.3673850000      0.7426450000      1.0448070000
H                 -2.9861760000     -0.1661070000     -1.2989820000
H                 -2.2363530000      1.3818000000     -1.7368300000
H                 -1.6338640000     -2.9803390000      0.6597970000
H                 -2.8364860000     -1.6609380000      0.7167900000
H                 -2.3945140000     -2.3842450000     -0.8280740000
H                  2.9630990000     -2.0812250000      1.0667560000
H                  4.9306610000     -0.5473850000      0.8848620000
H                  4.5961080000      1.7775440000     -0.0068030000
H                  2.2983570000      2.5089920000     -0.6739010000
$end
$rem
MAX_SCF_CYCLES=200
BASIS  =  6-311++G(d,p)
GUI  =  2
JOB_TYPE  =  SP
METHOD  =  B3LYP
SOLVENT_METHOD = COSMO
$end
$solvent
dielectric 37.219
opticaldielectric 1.43
$end

--------------------------------------------------------------

             Standard Nuclear Orientation (Angstroms)
    I     Atom           X                Y                Z
 ----------------------------------------------------------------
    1      C      -3.5629607214     1.1193233480     0.9034901999
    2      C      -2.8496514517     0.7642876322    -0.4198180275
    3      C      -1.4350390435     0.2673124242    -0.2413251999
    4      C      -1.1488084463    -1.1214058795    -0.1484300933
    5      C      -2.2614015415    -2.1455992614    -0.1864625622
    6      C       0.1764574110    -1.6387799766    -0.0165549015
    7      O       0.4509291253    -2.9006886390     0.0689184352
    8      C       1.2318385891    -0.6334096244     0.0199184352
    9      C       2.5805998517    -1.0367403034     0.1568347052
   10      C       3.6208094593    -0.1243093491     0.1913409793
   11      C       3.3409628886     1.2618109767     0.0857137174
   12      C       2.0284132839     1.6840969905    -0.0409901508
   13      C       0.9474437292     0.7748223837    -0.0737633473
   14      C      -0.4169785127     1.2756149408    -0.2048173198
   15      O      -0.6658049707     2.5371380316    -0.2937811640
   16      H      -4.5917700112     1.4735595884     0.7251547353
   17      H      -3.0097934630     1.9084122955     1.4200988140
   18      H      -3.6217448320     0.2504846558     1.5684377127
   19      H      -3.4606195566     0.0283274809    -0.9592454579
   20      H      -2.8082079887     1.6775615221    -1.0251825990
   21      H      -1.8256335873    -3.1257165670     0.0227380907
   22      H      -3.0552492448    -1.9418278580     0.5488747035
   23      H      -2.7556969409    -2.1967856466    -1.1687928973
   24      H       2.7591812927    -2.1051702873     0.2326148241
   25      H       4.6493018319    -0.4679251254     0.2952520657
   26      H       4.1526425124     1.9877386440     0.1072839588
   27      H       1.7764837771     2.7376003468    -0.1191507286
 ----------------------------------------------------------------

   13    -653.2114854465      2.90e-06  Convergence criterion met
 Total energy in the final basis set =     -653.2114854465
    6    -653.4903406790      2.77e-06  Convergence criterion met
 Total energy in the final basis set =     -653.4903406790

                    Orbital Energies (a.u.)
 --------------------------------------------------------------

 Alpha MOs
 -- Occupied --
-19.0164 -19.0164 -10.1658 -10.1654 -10.1479 -10.1475 -10.1439 -10.1437
-10.1404 -10.1383 -10.1345 -10.1339 -10.1323 -10.1252 -10.1216  -0.9348
 -0.9311  -0.8233  -0.7803  -0.7355  -0.7203  -0.7141  -0.6627  -0.6256
 -0.6040  -0.5640  -0.5485  -0.5162  -0.4788  -0.4588  -0.4307  -0.4275
 -0.4082  -0.3987  -0.3926  -0.3870  -0.3747  -0.3684  -0.3636  -0.3504
 -0.3485  -0.3420  -0.3302  -0.3183  -0.3133  -0.3074  -0.2984  -0.2961
 -0.2288  -0.2237  -0.2018  -0.2004  -0.1914  -0.1099

          Ground-State Mulliken Net Atomic Charges

     Atom                 Charge (a.u.)
  ----------------------------------------
      1 C                    -0.690047
      2 C                    -0.353195
      3 C                     0.757927
      4 C                     0.516340
      5 C                    -0.528612
      6 C                    -0.503254
      7 O                    -0.747864
      8 C                     0.198978
      9 C                     0.037727
     10 C                    -0.500641
     11 C                    -0.479779
     12 C                    -0.036505
     13 C                    -0.025718
     14 C                    -0.741134
     15 O                    -0.721861
     16 H                     0.123412
     17 H                     0.170087
     18 H                     0.122426
     19 H                     0.139381
     20 H                     0.147746
     21 H                     0.161909
     22 H                     0.144065
     23 H                     0.149502
     24 H                     0.157070
     25 H                     0.172420
     26 H                     0.173065
     27 H                     0.156554
  ----------------------------------------
  Sum of atomic charges =    -2.000000

                    Cartesian Multipole Moments
 -----------------------------------------------------------------
    Charge (ESU x 10^10)
                -9.6064
    Dipole Moment (Debye)
         X      -1.3405      Y       1.4052      Z       0.7981
       Tot       2.0996
    Quadrupole Moments (Debye-Ang)
        XX    -110.9574     XY      10.4270     YY    -156.6203
        XZ      -0.3289     YZ       3.2822     ZZ    -101.9856

 Total job time:  58.07s(wall), 443.94s(cpu)
        *  Thank you very much for using Q-Chem.  Have a nice day.  *
