 Gaussian 16, Revision A.03,
 Gaussian 16:  ES64L-G16RevA.03 25-Dec-2016

 --------------------------------------
 #P UB3LYP/6-311++G(d,p) nosym opt freq
 --------------------------------------

 -------
 Reduced
 -------
 Symbolic Z-matrix:
 Charge = -2 Multiplicity = 1

 SCF Done:  E(UB3LYP) =  -653.211495301     A.U. after   38 cycles
 SCF Done:  E(UB3LYP) =  -653.211495309     A.U. after   21 cycles
 Optimization completed.
    -- Stationary point found.
 Normal termination of Gaussian 16 at Sun Jan  7 20:33:21 2024.

 ----------------------------------------------------------------------
 #P Geom=AllCheck Guess=TCheck SCRF=Check GenChk UB3LYP/6-311++G(d,p) F
 req
 ----------------------------------------------------------------------

 Structure from the checkpoint file:  "247-an.chk"
 -------
 Reduced
 -------
 Charge = -2 Multiplicity = 1

                          Input orientation:
 ---------------------------------------------------------------------
 Center     Atomic      Atomic             Coordinates (Angstroms)
 Number     Number       Type             X           Y           Z
 ---------------------------------------------------------------------
      1          6           0       -3.197275    1.394676    0.180857
      2          6           0       -2.386278    0.670246   -0.916180
      3          6           0       -1.025305    0.198109   -0.463619
      4          6           0       -0.829540   -1.120500    0.028359
      5          6           0       -1.991100   -2.081816    0.150555
      6          6           0        0.445755   -1.622263    0.432405
      7          8           0        0.637838   -2.820612    0.881980
      8          6           0        1.549502   -0.677731    0.307781
      9          6           0        2.854269   -1.069178    0.688479
     10          6           0        3.937752   -0.214084    0.585349
     11          6           0        3.749361    1.098356    0.082546
     12          6           0        2.480739    1.509716   -0.289673
     13          6           0        1.356761    0.659370   -0.190000
     14          6           0        0.041510    1.146605   -0.592906
     15          8           0       -0.124780    2.342850   -1.043034
     16          1           0       -4.183000    1.717875   -0.192806
     17          1           0       -2.649655    2.277640    0.521484
     18          1           0       -3.367385    0.742645    1.044807
     19          1           0       -2.986176   -0.166107   -1.298982
     20          1           0       -2.236353    1.381800   -1.736830
     21          1           0       -1.633864   -2.980339    0.659797
     22          1           0       -2.836486   -1.660938    0.716790
     23          1           0       -2.394514   -2.384245   -0.828074
     24          1           0        2.963099   -2.081225    1.066756
     25          1           0        4.930661   -0.547385    0.884862
     26          1           0        4.596108    1.777544   -0.006803
     27          1           0        2.298357    2.508992   -0.673901
 ---------------------------------------------------------------------

 SCF Done:  E(UB3LYP) =  -653.211495309     A.U. after    3 cycles

 Alpha  occ. eigenvalues --  -18.77503 -18.77135  -9.93227  -9.92911  -9.92805
 Alpha  occ. eigenvalues --   -9.92733  -9.92521  -9.91750  -9.91691  -9.91588
 Alpha  occ. eigenvalues --   -9.91005  -9.90210  -9.90168  -9.89116  -9.89044
 Alpha  occ. eigenvalues --   -0.69095  -0.68441  -0.59424  -0.55061  -0.51020
 Alpha  occ. eigenvalues --   -0.49162  -0.48758  -0.43673  -0.39604  -0.37905
 Alpha  occ. eigenvalues --   -0.33744  -0.32210  -0.28651  -0.25008  -0.23420
 Alpha  occ. eigenvalues --   -0.20674  -0.19778  -0.18639  -0.17101  -0.16720
 Alpha  occ. eigenvalues --   -0.16354  -0.14146  -0.13854  -0.13062  -0.12307
 Alpha  occ. eigenvalues --   -0.11711  -0.10922  -0.10509  -0.09215  -0.07413
 Alpha  occ. eigenvalues --   -0.07009  -0.06767  -0.06070   0.00409   0.01737
 Alpha  occ. eigenvalues --    0.03547   0.04634   0.05415   0.13524
 Alpha virt. eigenvalues --    0.15895   0.16170   0.17935   0.18399   0.19421
 Alpha virt. eigenvalues --    0.20386   0.20994   0.21796   0.22038   0.22323
 Alpha virt. eigenvalues --    0.22538   0.23933   0.24093   0.24719   0.25677

  Beta  occ. eigenvalues --  -18.77503 -18.77135  -9.93227  -9.92911  -9.92805
  Beta  occ. eigenvalues --   -9.92733  -9.92521  -9.91750  -9.91691  -9.91588
  Beta  occ. eigenvalues --   -9.91005  -9.90210  -9.90168  -9.89116  -9.89044
  Beta  occ. eigenvalues --   -0.69095  -0.68441  -0.59424  -0.55061  -0.51020
  Beta  occ. eigenvalues --   -0.49162  -0.48758  -0.43673  -0.39604  -0.37905
  Beta  occ. eigenvalues --   -0.33744  -0.32210  -0.28651  -0.25008  -0.23420
  Beta  occ. eigenvalues --   -0.20674  -0.19778  -0.18639  -0.17101  -0.16720
  Beta  occ. eigenvalues --   -0.16354  -0.14146  -0.13854  -0.13062  -0.12307
  Beta  occ. eigenvalues --   -0.11711  -0.10922  -0.10509  -0.09215  -0.07413
  Beta  occ. eigenvalues --   -0.07009  -0.06767  -0.06070   0.00409   0.01737
  Beta  occ. eigenvalues --    0.03547   0.04634   0.05415   0.13524
  Beta virt. eigenvalues --    0.15895   0.16170   0.17935   0.18399   0.19421
  Beta virt. eigenvalues --    0.20386   0.20994   0.21796   0.22038   0.22323
  Beta virt. eigenvalues --    0.22538   0.23933   0.24093   0.24719   0.25677

 Mulliken charges and spin densities:
               1          2
     1  C    0.780250  -0.000001
     2  C   -1.727203   0.000001
     3  C    1.295450  -0.000000
     4  C    0.819519  -0.000000
     5  C   -0.444519  -0.000000
     6  C   -0.818569  -0.000000
     7  O   -0.526670  -0.000000
     8  C    0.616164  -0.000000
     9  C    0.022988  -0.000000
    10  C   -0.356905  -0.000000
    11  C   -0.364063   0.000000
    12  C   -0.092545  -0.000000
    13  C    0.206267   0.000000
    14  C   -0.951702  -0.000000
    15  O   -0.503607  -0.000000
    16  H   -0.849373   0.000000
    17  H    0.153357   0.000000
    18  H    0.029126   0.000000
    19  H   -0.036725   0.000000
    20  H    0.089317   0.000000
    21  H    0.159400   0.000000
    22  H   -0.006110   0.000000
    23  H    0.105524  -0.000000
    24  H    0.129842   0.000000
    25  H    0.069772  -0.000000
    26  H    0.065936   0.000000
    27  H    0.135081  -0.000000
 Sum of Mulliken charges =  -2.00000  -0.00000

 Dipole moment (field-independent basis, Debye):
    X=              1.3114    Y=             -0.4325    Z=              0.1845  Tot=              1.3931
 Quadrupole moment (field-independent basis, Debye-Ang):
   XX=           -168.3853   YY=           -152.5932   ZZ=           -112.2932
   XY=             14.9243   XZ=             -4.6828   YZ=             15.8859

  Exact polarizability:1376.786-296.754 446.045  34.599 -61.418 296.094
 Approx polarizability:2854.783-706.479 690.977  68.366 -90.809 323.965

                      1                      2                      3
                      A                      A                      A
 Frequencies --     63.8896                70.7011                95.5399
 Red. masses --      4.2470                 2.8822                 3.1331
 Frc consts  --      0.0102                 0.0085                 0.0168
 IR Inten    --      3.0790                 2.2081                 5.0813

                      4                      5                      6
                      A                      A                      A
 Frequencies --    122.4950               140.0970               168.4518
 Red. masses --      1.1814                 3.3312                 5.0528
 Frc consts  --      0.0104                 0.0385                 0.0845
 IR Inten    --      1.1894                 0.4868                 5.1289

                      7                      8                      9
                      A                      A                      A
 Frequencies --    219.5485               226.0495               260.9171
 Red. masses --      4.1405                 1.2333                 3.0193
 Frc consts  --      0.1176                 0.0371                 0.1211
 IR Inten    --      6.6976                18.5529                12.7610

                     10                     11                     12
                      A                      A                      A
 Frequencies --    320.2257               340.2274               348.5989
 Red. masses --      4.0308                 3.0932                 2.7060
 Frc consts  --      0.2435                 0.2110                 0.1937
 IR Inten    --     10.8432                 0.3284                 9.4570

                     13                     14                     15
                      A                      A                      A
 Frequencies --    375.7116               402.2262               424.6343
 Red. masses --      6.9585                 6.7042                 6.2961
 Frc consts  --      0.5787                 0.6391                 0.6689
 IR Inten    --      7.5220                19.8281               224.7261

                     16                     17                     18
                      A                      A                      A
 Frequencies --    439.9585               464.5568               506.6014
 Red. masses --      4.1425                 4.0106                 7.3285
 Frc consts  --      0.4724                 0.5100                 1.1081
 IR Inten    --     42.8903               104.4437               218.7156

                     19                     20                     21
                      A                      A                      A
 Frequencies --    550.6826               609.0370               661.8575
 Red. masses --      4.7305                 4.6011                 5.6020
 Frc consts  --      0.8452                 1.0055                 1.4459
 IR Inten    --      5.9921                10.9079                 0.1722

                     22                     23                     24
                      A                      A                      A
 Frequencies --    670.0367               677.1471               695.6745
 Red. masses --      3.4870                 3.3384                 1.9643
 Frc consts  --      0.9223                 0.9019                 0.5601
 IR Inten    --      3.3983                20.5587                48.8153

                     25                     26                     27
                      A                      A                      A
 Frequencies --    757.4495               770.8465               774.7240
 Red. masses --      2.8500                 1.5580                 1.8823
 Frc consts  --      0.9634                 0.5454                 0.6656
 IR Inten    --     14.3370                 4.7539                 0.7878

                     28                     29                     30
                      A                      A                      A
 Frequencies --    825.8466               845.9716               871.8343
 Red. masses --      2.8227                 2.8254                 2.8956
 Frc consts  --      1.1343                 1.1914                 1.2968
 IR Inten    --      2.6682                23.6956                16.9133

                     31                     32                     33
                      A                      A                      A
 Frequencies --    946.7475               951.7035               957.3784
 Red. masses --      3.1828                 1.2295                 1.3601
 Frc consts  --      1.6809                 0.6561                 0.7345
 IR Inten    --     31.3558                 1.0574                 3.7513

                     34                     35                     36
                      A                      A                      A
 Frequencies --    994.3860              1015.4316              1031.1453
 Red. masses --      2.5543                 2.1664                 1.8094
 Frc consts  --      1.4881                 1.3161                 1.1335
 IR Inten    --      8.4919               324.8920                 5.1202

                     37                     38                     39
                      A                      A                      A
 Frequencies --   1037.5207              1066.2613              1093.5141
 Red. masses --      1.5315                 1.9424                 1.9266
 Frc consts  --      0.9713                 1.3011                 1.3573
 IR Inten    --     12.0955                66.7831                10.2767

                     40                     41                     42
                      A                      A                      A
 Frequencies --   1115.9552              1122.3068              1171.5415
 Red. masses --      2.0182                 1.5069                 2.5948
 Frc consts  --      1.4809                 1.1183                 2.0983
 IR Inten    --     44.9440               202.3242               167.0502

                     43                     44                     45
                      A                      A                      A
 Frequencies --   1197.6313              1228.5901              1262.6369
 Red. masses --      1.9711                 3.3215                 2.2836
 Frc consts  --      1.6657                 2.9539                 2.1450
 IR Inten    --     28.3075               122.0670                19.3073

                     46                     47                     48
                      A                      A                      A
 Frequencies --   1295.0237              1331.3563              1332.6566
 Red. masses --      1.2915                 2.4738                 2.4335
 Frc consts  --      1.2762                 2.5834                 2.5463
 IR Inten    --     10.2189               369.4929               339.9116

                     49                     50                     51
                      A                      A                      A
 Frequencies --   1351.0870              1368.4365              1401.1179
 Red. masses --      1.5231                 1.2820                 3.8362
 Frc consts  --      1.6382                 1.4144                 4.4371
 IR Inten    --     21.8367               128.1851               720.3469

                     52                     53                     54
                      A                      A                      A
 Frequencies --   1415.1970              1422.9636              1439.2402
 Red. masses --      2.8088                 2.9227                 3.5116
 Frc consts  --      3.3144                 3.4868                 4.2857
 IR Inten    --    448.3517               199.8357               550.8426

                     55                     56                     57
                      A                      A                      A
 Frequencies --   1466.0126              1472.8655              1474.9629
 Red. masses --      1.4476                 1.2261                 1.0537
 Frc consts  --      1.8330                 1.5672                 1.3506
 IR Inten    --    160.7519                43.9481                56.7260

                     58                     59                     60
                      A                      A                      A
 Frequencies --   1486.7814              1494.8701              1499.4375
 Red. masses --      1.7120                 1.7254                 1.1588
 Frc consts  --      2.2297                 2.2716                 1.5350
 IR Inten    --    586.4817               224.0959                10.7497

                     61                     62                     63
                      A                      A                      A
 Frequencies --   1506.2356              1564.8365              1584.0263
 Red. masses --      1.9746                 6.7392                 5.3969
 Frc consts  --      2.6394                 9.7229                 7.9784
 IR Inten    --    194.4107              2065.8548                33.4172

                     64                     65                     66
                      A                      A                      A
 Frequencies --   2937.5930              2941.3090              2958.8787
 Red. masses --      1.0541                 1.0455                 1.0959
 Frc consts  --      5.3591                 5.3292                 5.6528
 IR Inten    --     59.1990                56.6786               190.1200

                     67                     68                     69
                      A                      A                      A
 Frequencies --   2981.1964              3019.4929              3035.2980
 Red. masses --      1.0589                 1.0961                 1.0819
 Frc consts  --      5.5446                 5.8878                 5.8729
 IR Inten    --    169.0908                27.9229                49.8566

                     70                     71                     72
                      A                      A                      A
 Frequencies --   3073.0417              3080.9841              3085.1522
 Red. masses --      1.0914                 1.0997                 1.0824
 Frc consts  --      6.0724                 6.1503                 6.0699
 IR Inten    --     21.0891                15.9088                35.9148

                     73                     74                     75
                      A                      A                      A
 Frequencies --   3109.7157              3154.0727              3156.7749
 Red. masses --      1.0907                 1.0901                 1.0910
 Frc consts  --      6.2146                 6.3892                 6.4058
 IR Inten    --    272.8405                29.7607               161.8128

 - Thermochemistry -
 -------------------
 Temperature   298.150 Kelvin.  Pressure   1.00000 Atm.
 Atom     1 has atomic number  6 and mass  12.00000

 Molecular mass:   200.08373 amu.
 Principal axes and moments of inertia in atomic units:
                           1         2         3
     Eigenvalues --  1889.936803472.736835184.12870
           X            0.99304   0.06853  -0.09579
           Y           -0.03927   0.95939   0.27934
           Z            0.11104  -0.27363   0.95540
 This molecule is an asymmetric top.
 Rotational symmetry number  1.
 Warning -- assumption of classical behavior for rotation
           may cause significant error
 Rotational temperatures (Kelvin)      0.04583     0.02494     0.01671
 Rotational constants (GHZ):           0.95492     0.51969     0.34813
 Zero-point vibrational energy     552285.4 (Joules/Mol)
                                  131.99937 (Kcal/Mol)
 Warning -- explicit consideration of  20 degrees of freedom as
           vibrations may cause significant error
 Vibrational temperatures:     91.92   101.72   137.46   176.24   201.57
          (Kelvin)            242.36   315.88   325.23   375.40   460.73
                              489.51   501.56   540.57   578.71   610.95
                              633.00   668.39   728.89   792.31   876.27
                              952.27   964.03   974.26  1000.92  1089.80
                             1109.08  1114.65  1188.21  1217.16  1254.38
                             1362.16  1369.29  1377.45  1430.70  1460.98
                             1483.59  1492.76  1534.11  1573.32  1605.61
                             1614.75  1685.59  1723.12  1767.67  1816.65
                             1863.25  1915.52  1917.40  1943.91  1968.87
                             2015.90  2036.15  2047.33  2070.75  2109.27
                             2119.12  2122.14  2139.15  2150.78  2157.36
                             2167.14  2251.45  2279.06  4226.54  4231.89
                             4257.17  4289.28  4344.38  4367.12  4421.42
                             4432.85  4438.85  4474.19  4538.01  4541.90

 Zero-point correction=                           0.210354 (Hartree/Particle)
 Thermal correction to Energy=                    0.223669
 Thermal correction to Enthalpy=                  0.224613
 Thermal correction to Gibbs Free Energy=         0.170796
 Sum of electronic and zero-point Energies=           -653.001141
 Sum of electronic and thermal Energies=              -652.987827
 Sum of electronic and thermal Enthalpies=            -652.986882
 Sum of electronic and thermal Free Energies=         -653.040699

                     E (Thermal)             CV                S
                      KCal/Mol        Cal/Mol-Kelvin    Cal/Mol-Kelvin
 Total                  140.354             51.949            113.267
 Electronic               0.000              0.000              0.000
 Translational            0.889              2.981             41.785
 Rotational               0.889              2.981             31.898
 Vibrational            138.577             45.988             39.584
 Vibration     1          0.597              1.972              4.333
 Vibration     2          0.598              1.968              4.134
 Vibration     3          0.603              1.952              3.543
 Vibration     4          0.610              1.930              3.061
 Vibration     5          0.615              1.913              2.803
 Vibration     6          0.625              1.881              2.453
 Vibration     7          0.647              1.811              1.963
 Vibration     8          0.650              1.801              1.910
 Vibration     9          0.669              1.744              1.656
 Vibration    10          0.706              1.635              1.309
 Vibration    11          0.720              1.595              1.211
 Vibration    12          0.726              1.578              1.173
 Vibration    13          0.747              1.522              1.056
 Vibration    14          0.768              1.465              0.955
 Vibration    15          0.787              1.417              0.876
 Vibration    16          0.800              1.383              0.827
 Vibration    17          0.822              1.329              0.753
 Vibration    18          0.862              1.235              0.642
 Vibration    19          0.906              1.138              0.543
 Vibration    20          0.968              1.013              0.434

 Optimization completed.
    -- Stationary point found.
 Normal termination of Gaussian 16 at Sun Jan  7 21:33:05 2024.
