 Gaussian 16, Revision A.03,
 Gaussian 16:  ES64L-G16RevA.03 25-Dec-2016

 ----------------------------------------------------------------------
 #P UB3LYP/6-311++G(d,p) nosym opt freq SCRF=(PCM,Solvent=n,n-DiMethylF
 ormamide)
 ----------------------------------------------------------------------

 -------
 Radical
 -------
 Symbolic Z-matrix:
 Charge = -1 Multiplicity = 2

 SCF Done:  E(UB3LYP) =  -535.626382105     A.U. after   19 cycles
 SCF Done:  E(UB3LYP) =  -535.626614151     A.U. after   15 cycles
 SCF Done:  E(UB3LYP) =  -535.626649642     A.U. after   15 cycles
 SCF Done:  E(UB3LYP) =  -535.626655590     A.U. after   15 cycles
 SCF Done:  E(UB3LYP) =  -535.626661470     A.U. after   13 cycles
 SCF Done:  E(UB3LYP) =  -535.626665303     A.U. after   12 cycles
 SCF Done:  E(UB3LYP) =  -535.626665743     A.U. after   11 cycles
 SCF Done:  E(UB3LYP) =  -535.626665937     A.U. after   11 cycles
 Optimization completed.
    -- Stationary point found.
 Normal termination of Gaussian 16 at Sat Feb 10 11:23:10 2024.

 ----------------------------------------------------------------------
 #P Geom=AllCheck Guess=TCheck SCRF=Check GenChk UB3LYP/6-311++G(d,p) F
 req
 ----------------------------------------------------------------------

 Structure from the checkpoint file:  "095-rad.chk"
 -------
 Radical
 -------
 Charge = -1 Multiplicity = 2

                          Input orientation:
 ---------------------------------------------------------------------
 Center     Atomic      Atomic             Coordinates (Angstroms)
 Number     Number       Type             X           Y           Z
 ---------------------------------------------------------------------
      1          6           0        2.145595    3.818058    5.511077
      2          6           0        3.046479    3.198319    4.574570
      3          6           0        2.619970    2.292358    3.641620
      4          6           0        1.231489    1.906255    3.545569
      5          6           0        0.327989    2.539523    4.482749
      6          6           0        0.736877    3.451699    5.421876
      7          8           0        2.564620    4.648004    6.391322
      8          8           0        0.821207    1.062734    2.687959
      9          6           0       -0.218573    4.163967    6.371714
     10          6           0       -1.637054    3.617883    6.415066
     11          8           0        0.295941    4.136168    7.717461
     12          1           0        4.093629    3.477814    4.642323
     13          1           0        3.318417    1.834475    2.947759
     14          1           0       -0.715667    2.255873    4.400281
     15          1           0       -0.265975    5.216433    6.049916
     16          1           0       -2.132928    3.718901    5.447487
     17          1           0       -2.214985    4.182199    7.150433
     18          1           0       -1.645327    2.563570    6.704643
     19          1           0        1.220060    4.440959    7.615186
 ---------------------------------------------------------------------

 SCF Done:  E(UB3LYP) =  -535.626665937     A.U. after    1 cycles

 Alpha  occ. eigenvalues --  -19.10581 -19.08552 -19.08104 -10.22549 -10.22225
 Alpha  occ. eigenvalues --  -10.22140 -10.17485 -10.16704 -10.16632 -10.16538
 Alpha  occ. eigenvalues --  -10.15692  -1.01809  -0.99795  -0.99262  -0.82969
 Alpha  occ. eigenvalues --   -0.77212  -0.72646  -0.68758  -0.63033  -0.58282
 Alpha  occ. eigenvalues --   -0.56295  -0.50348  -0.47768  -0.47596  -0.45815
 Alpha  occ. eigenvalues --   -0.43494  -0.41115  -0.40708  -0.39985  -0.38325
 Alpha  occ. eigenvalues --   -0.38122  -0.37995  -0.36435  -0.35901  -0.34207
 Alpha  occ. eigenvalues --   -0.28655  -0.27288  -0.26016  -0.24889  -0.24057
 Alpha  occ. eigenvalues --   -0.16924
 Alpha virt. eigenvalues --   -0.01508   0.00076   0.01073   0.01371   0.01901
 Alpha virt. eigenvalues --    0.02777   0.03159   0.03666   0.04841   0.05742
 Alpha virt. eigenvalues --    0.06601   0.06801   0.07186   0.08449   0.09935

  Beta  occ. eigenvalues --  -19.10576 -19.07896 -19.07361 -10.22354 -10.22147
  Beta  occ. eigenvalues --  -10.22108 -10.17405 -10.16611 -10.16501 -10.16420
  Beta  occ. eigenvalues --  -10.15692  -1.01480  -0.98555  -0.98325  -0.82375
  Beta  occ. eigenvalues --   -0.77013  -0.72475  -0.67739  -0.62704  -0.57957
  Beta  occ. eigenvalues --   -0.55986  -0.50257  -0.47414  -0.47309  -0.45546
  Beta  occ. eigenvalues --   -0.43295  -0.40144  -0.39845  -0.39230  -0.38123
  Beta  occ. eigenvalues --   -0.37948  -0.36531  -0.35822  -0.35136  -0.33470
  Beta  occ. eigenvalues --   -0.27290  -0.25307  -0.25105  -0.24268  -0.23450
  Beta virt. eigenvalues --   -0.09584  -0.00534   0.00417   0.01149   0.01583
  Beta virt. eigenvalues --    0.02549   0.03026   0.03473   0.04523   0.04929
  Beta virt. eigenvalues --    0.05782   0.06670   0.06923   0.07401   0.08505

 Mulliken charges and spin densities:
               1          2
     1  C   -0.676698   0.103796
     2  C    0.101304   0.068961
     3  C    0.098761   0.106444
     4  C   -0.419234   0.126967
     5  C   -1.201283   0.038275
     6  C    1.648384   0.051190
     7  O   -0.485214   0.233790
     8  O   -0.497906   0.260001
     9  C   -0.266769   0.030295
    10  C   -0.501952  -0.002345
    11  O   -0.311446   0.003063
    12  H    0.188677  -0.006504
    13  H    0.190200  -0.008124
    14  H    0.166185  -0.007690
    15  H    0.188660   0.005550
    16  H    0.152677  -0.000840
    17  H    0.164279  -0.000099
    18  H    0.159599   0.000117
    19  H    0.301777  -0.002847
 Sum of Mulliken charges =  -1.00000   1.00000

 Dipole moment (field-independent basis, Debye):
    X=             -6.8515    Y=            -13.2886    Z=            -24.3675  Tot=             28.5886
 Quadrupole moment (field-independent basis, Debye-Ang):
   XX=            -78.9132   YY=           -121.7127   ZZ=           -221.7768
   XY=            -26.5343   XZ=            -38.2885   YZ=            -86.6612

  Exact polarizability: 166.892  21.389 165.491   6.932  73.805 183.518
 Approx polarizability: 175.821  30.476 187.421  18.383  83.525 202.707

                      1                      2                      3
                      A                      A                      A
 Frequencies --     69.8802               112.1110               151.5752
 Red. masses --      4.2797                 6.1049                 5.1670
 Frc consts  --      0.0123                 0.0452                 0.0699
 IR Inten    --      6.3534                10.6376                 7.7151

                      4                      5                      6
                      A                      A                      A
 Frequencies --    204.7038               264.9098               306.8691
 Red. masses --      4.3227                 1.0877                 5.9542
 Frc consts  --      0.1067                 0.0450                 0.3304
 IR Inten    --      2.2110                 0.6588                 5.0427

                      7                      8                      9
                      A                      A                      A
 Frequencies --    330.2674               368.4614               411.2789
 Red. masses --      5.1641                 4.3816                 5.0624
 Frc consts  --      0.3319                 0.3505                 0.5045
 IR Inten    --     22.5672                 3.5724                20.2424

                     10                     11                     12
                      A                      A                      A
 Frequencies --    426.5346               455.9119               488.9292
 Red. masses --      4.1392                 4.5864                 6.3839
 Frc consts  --      0.4437                 0.5617                 0.8991
 IR Inten    --     24.0322                 6.3940                 0.5720

                     13                     14                     15
                      A                      A                      A
 Frequencies --    535.0810               588.7941               662.2387
 Red. masses --      2.9808                 3.6581                 3.8597
 Frc consts  --      0.5028                 0.7472                 0.9973
 IR Inten    --      9.7256                 7.0996                14.1100

                     16                     17                     18
                      A                      A                      A
 Frequencies --    704.7506               719.4777               761.3533
 Red. masses --      1.4725                 2.3874                 2.4909
 Frc consts  --      0.4309                 0.7281                 0.8507
 IR Inten    --    116.5951                96.2967                14.5735

                     19                     20                     21
                      A                      A                      A
 Frequencies --    812.6320               825.2249               873.1249
 Red. masses --      5.1097                 2.1575                 2.9692
 Frc consts  --      1.9881                 0.8657                 1.3336
 IR Inten    --    101.6051                59.9607                57.3230

                     22                     23                     24
                      A                      A                      A
 Frequencies --    892.0171               920.9538               956.3020
 Red. masses --      1.5548                 2.7675                 1.2784
 Frc consts  --      0.7289                 1.3830                 0.6888
 IR Inten    --     47.2610                25.0788                 0.6195

                     25                     26                     27
                      A                      A                      A
 Frequencies --   1011.9727              1075.6359              1107.2416
 Red. masses --      2.2884                 1.9263                 2.0574
 Frc consts  --      1.3807                 1.3131                 1.4862
 IR Inten    --     19.6649                 4.5816                56.3941

                     28                     29                     30
                      A                      A                      A
 Frequencies --   1109.1633              1151.3095              1227.3298
 Red. masses --      1.9057                 1.8437                 2.8244
 Frc consts  --      1.3813                 1.4399                 2.5067
 IR Inten    --     97.7899                53.3650                 6.7284

                     31                     32                     33
                      A                      A                      A
 Frequencies --   1263.3750              1305.6458              1335.4875
 Red. masses --      1.5768                 1.2529                 1.3530
 Frc consts  --      1.4828                 1.2584                 1.4217
 IR Inten    --     10.5386               145.5256                49.7615

                     34                     35                     36
                      A                      A                      A
 Frequencies --   1359.0296              1396.4496              1415.1428
 Red. masses --      1.5797                 1.2837                 3.0063
 Frc consts  --      1.7190                 1.4749                 3.5472
 IR Inten    --      9.3809               114.4069               541.0673

                     37                     38                     39
                      A                      A                      A
 Frequencies --   1458.2761              1470.4607              1485.1530
 Red. masses --      3.8719                 2.9283                 1.0737
 Frc consts  --      4.8513                 3.7306                 1.3953
 IR Inten    --     20.8711                65.1442                12.8354

                     40                     41                     42
                      A                      A                      A
 Frequencies --   1488.1111              1508.0184              1520.0579
 Red. masses --      1.1006                 3.7407                 5.3003
 Frc consts  --      1.4359                 5.0121                 7.2155
 IR Inten    --      2.6979               940.0956                33.9393

                     43                     44                     45
                      A                      A                      A
 Frequencies --   1645.2371              2946.3492              3033.0871
 Red. masses --      6.8095                 1.0814                 1.0357
 Frc consts  --     10.8598                 5.5310                 5.6140
 IR Inten    --      1.8753                84.1465                27.2778

                     46                     47                     48
                      A                      A                      A
 Frequencies --   3098.9474              3106.6527              3147.7980
 Red. masses --      1.1020                 1.1016                 1.0861
 Frc consts  --      6.2351                 6.2639                 6.3408
 IR Inten    --     50.4626                35.5163                30.0906

                     49                     50                     51
                      A                      A                      A
 Frequencies --   3166.0424              3169.5201              3515.7347
 Red. masses --      1.0942                 1.0904                 1.0665
 Frc consts  --      6.4622                 6.4542                 7.7670
 IR Inten    --     41.1768                10.8547               442.1693

 - Thermochemistry -
 -------------------
 Temperature   298.150 Kelvin.  Pressure   1.00000 Atm.
 Atom     1 has atomic number  6 and mass  12.00000

 Molecular mass:   152.04734 amu.
 Principal axes and moments of inertia in atomic units:
                           1         2         3
     Eigenvalues --  1026.855542005.270632946.53030
           X           -0.35144   0.91682  -0.18955
           Y            0.50850   0.35692   0.78360
           Z            0.78608   0.17901  -0.59164
 This molecule is an asymmetric top.
 Rotational symmetry number  1.
 Warning -- assumption of classical behavior for rotation
           may cause significant error
 Rotational temperatures (Kelvin)      0.08435     0.04319     0.02940
 Rotational constants (GHZ):           1.75754     0.90000     0.61250
 Zero-point vibrational energy     378980.6 (Joules/Mol)
                                   90.57854 (Kcal/Mol)
 Warning -- explicit consideration of  14 degrees of freedom as
           vibrations may cause significant error
 Vibrational temperatures:    100.54   161.30   218.08   294.52   381.15
          (Kelvin)            441.52   475.18   530.13   591.74   613.69
                              655.96   703.46   769.86   847.14   952.81
                             1013.98  1035.17  1095.42  1169.20  1187.31
                             1256.23  1283.41  1325.05  1375.91  1456.00
                             1547.60  1593.07  1595.84  1656.48  1765.85
                             1817.71  1878.53  1921.47  1955.34  2009.18
                             2036.07  2098.13  2115.66  2136.80  2141.06
                             2169.70  2187.02  2367.13  4239.14  4363.94
                             4458.69  4469.78  4528.98  4555.23  4560.23
                             5058.36

 Zero-point correction=                           0.144346 (Hartree/Particle)
 Thermal correction to Energy=                    0.153948
 Thermal correction to Enthalpy=                  0.154892
 Thermal correction to Gibbs Free Energy=         0.108801
 Sum of electronic and zero-point Energies=           -535.482320
 Sum of electronic and thermal Energies=              -535.472718
 Sum of electronic and thermal Enthalpies=            -535.471774
 Sum of electronic and thermal Free Energies=         -535.517865

                     E (Thermal)             CV                S
                      KCal/Mol        Cal/Mol-Kelvin    Cal/Mol-Kelvin
 Total                   96.604             37.210             97.006
 Electronic               0.000              0.000              1.377
 Translational            0.889              2.981             40.967
 Rotational               0.889              2.981             30.185
 Vibrational             94.826             31.248             24.476
 Vibration     1          0.598              1.968              4.157
 Vibration     2          0.607              1.939              3.232
 Vibration     3          0.619              1.901              2.652
 Vibration     4          0.640              1.833              2.090
 Vibration     5          0.671              1.737              1.629
 Vibration     6          0.697              1.661              1.379
 Vibration     7          0.713              1.615              1.259
 Vibration     8          0.741              1.537              1.086
 Vibration     9          0.775              1.446              0.922
 Vibration    10          0.788              1.412              0.870
 Vibration    11          0.814              1.348              0.778
 Vibration    12          0.845              1.275              0.686
 Vibration    13          0.890              1.172              0.576
 Vibration    14          0.946              1.056              0.469

 Optimization completed.
    -- Stationary point found.
 Normal termination of Gaussian 16 at Sat Feb 10 11:34:56 2024.
