 Gaussian 16, Revision A.03,
 Gaussian 16:  ES64L-G16RevA.03 25-Dec-2016

 ----------------------------------------------------------------
 #P UB3LYP/6-311++G(d,p) SCRF=(PCM,Solvent=n,n-DiMethylFormamide)
 ----------------------------------------------------------------

 ------------------
 Quinone PCM in DMF
 ------------------
 Symbolic Z-matrix:
 Charge =  0 Multiplicity = 1

                         Standard orientation:
 ---------------------------------------------------------------------
 Center     Atomic      Atomic             Coordinates (Angstroms)
 Number     Number       Type             X           Y           Z
 ---------------------------------------------------------------------
      1          6           0       -3.912457   -1.819421   -0.011668
      2          6           0       -5.244340   -1.437071    0.093528
      3          6           0       -5.580222   -0.084240    0.199039
      4          6           0       -2.902353   -0.852497   -0.013133
      5          6           0       -3.240320    0.509409    0.092595
      6          6           0       -4.583629    0.884078    0.198697
      7          6           0       -1.482923   -1.292409   -0.127943
      8          6           0       -0.431909   -0.228506   -0.133901
      9          6           0       -0.766649    1.131913   -0.029088
     10          6           0       -2.193579    1.569306    0.095212
     11          6           0        0.907647   -0.608696   -0.248825
     12          6           0        0.238034    2.104225   -0.041554
     13          6           0        1.571016    1.732374   -0.152896
     14          8           0       -1.182853   -2.470209   -0.212897
     15          8           0       -2.477940    2.750376    0.193485
     16          1           0       -3.630297   -2.861660   -0.094214
     17          1           0       -6.023861   -2.190288    0.093619
     18          1           0       -6.619996    0.210954    0.280914
     19          1           0        2.360996    2.472338   -0.174566
     20          1           0       -4.821890    1.937356    0.279447
     21          1           0        1.159344   -1.657559   -0.341319
     22          1           0       -0.046543    3.145984    0.035450
     23          6           0        1.884286    0.375833   -0.252416
     24         16           0        3.606187   -0.105778   -0.395996
     25          8           0        3.710349   -1.381772   -1.088826
     26          8           0        4.391749    1.035980   -0.844172
     27          8           0        3.884158   -0.348450    1.202480
     28          6           0        5.202506   -0.844918    1.548329
     29          1           0        5.374871   -1.815897    1.081616
     30          1           0        5.185720   -0.944479    2.631146
     31          1           0        5.968323   -0.127990    1.247430
 ---------------------------------------------------------------------

 SCF Done:  E(UB3LYP) =  -1352.16698298     A.U. after   16 cycles

 The electronic state is 1-A.
 Alpha  occ. eigenvalues --  -89.10398 -19.19100 -19.15211 -19.15175 -19.14174
 Alpha  occ. eigenvalues --  -19.14093 -10.29356 -10.29328 -10.24848 -10.23933
 Alpha  occ. eigenvalues --  -10.22823 -10.22712 -10.22542 -10.22492 -10.21596
 Alpha  occ. eigenvalues --  -10.21556 -10.21546 -10.20378 -10.20345 -10.20304
 Alpha  occ. eigenvalues --  -10.20286  -8.16495  -6.12859  -6.12691  -6.12566
 Alpha  occ. eigenvalues --   -1.17325  -1.07730  -1.07549  -1.06300  -1.04665
 Alpha  occ. eigenvalues --   -0.91526  -0.89375  -0.83612  -0.80484  -0.78979
 Alpha  occ. eigenvalues --   -0.78467  -0.75506  -0.70516  -0.69059  -0.66558
 Alpha  occ. eigenvalues --   -0.63783  -0.62825  -0.59887  -0.58238  -0.57340
 Alpha  occ. eigenvalues --   -0.54692  -0.53389  -0.51996  -0.50854  -0.49990
 Alpha  occ. eigenvalues --   -0.49688  -0.47498  -0.47251  -0.47016  -0.46794
 Alpha  occ. eigenvalues --   -0.46576  -0.45787  -0.45628  -0.45348  -0.43201
 Alpha  occ. eigenvalues --   -0.42927  -0.41992  -0.40905  -0.39918  -0.38836
 Alpha  occ. eigenvalues --   -0.38159  -0.37471  -0.37035  -0.36604  -0.35394
 Alpha  occ. eigenvalues --   -0.35034  -0.31824  -0.30697  -0.29839  -0.29815
 Alpha  occ. eigenvalues --   -0.28710  -0.28562  -0.28410
 Alpha virt. eigenvalues --   -0.13017  -0.09018  -0.05825  -0.03964  -0.01312
 Alpha virt. eigenvalues --   -0.00345   0.00302   0.00834   0.01255   0.01613
 Alpha virt. eigenvalues --    0.02040   0.02488   0.02742   0.03297   0.03506

  Beta  occ. eigenvalues --  -89.10398 -19.19100 -19.15211 -19.15175 -19.14174
  Beta  occ. eigenvalues --  -19.14093 -10.29356 -10.29328 -10.24848 -10.23933
  Beta  occ. eigenvalues --  -10.22823 -10.22712 -10.22542 -10.22492 -10.21596
  Beta  occ. eigenvalues --  -10.21556 -10.21546 -10.20378 -10.20345 -10.20304
  Beta  occ. eigenvalues --  -10.20286  -8.16495  -6.12859  -6.12691  -6.12566
  Beta  occ. eigenvalues --   -1.17325  -1.07730  -1.07549  -1.06300  -1.04665
  Beta  occ. eigenvalues --   -0.91526  -0.89375  -0.83612  -0.80484  -0.78979
  Beta  occ. eigenvalues --   -0.78467  -0.75506  -0.70516  -0.69059  -0.66558
  Beta  occ. eigenvalues --   -0.63783  -0.62825  -0.59887  -0.58238  -0.57340
  Beta  occ. eigenvalues --   -0.54692  -0.53389  -0.51996  -0.50854  -0.49990
  Beta  occ. eigenvalues --   -0.49688  -0.47498  -0.47251  -0.47016  -0.46794
  Beta  occ. eigenvalues --   -0.46576  -0.45787  -0.45628  -0.45348  -0.43201
  Beta  occ. eigenvalues --   -0.42927  -0.41992  -0.40905  -0.39918  -0.38836
  Beta  occ. eigenvalues --   -0.38159  -0.37471  -0.37035  -0.36604  -0.35394
  Beta  occ. eigenvalues --   -0.35034  -0.31824  -0.30697  -0.29839  -0.29815
  Beta  occ. eigenvalues --   -0.28710  -0.28562  -0.28410
  Beta virt. eigenvalues --   -0.13017  -0.09018  -0.05825  -0.03964  -0.01312
  Beta virt. eigenvalues --   -0.00345   0.00302   0.00834   0.01255   0.01613
  Beta virt. eigenvalues --    0.02040   0.02488   0.02742   0.03297   0.03506

 Mulliken charges and spin densities:
               1          2
     1  C    0.109645  -0.000000
     2  C   -0.394313  -0.000000
     3  C   -0.452496   0.000000
     4  C    0.357405   0.000000
     5  C    0.326204  -0.000000
     6  C    0.160223  -0.000000
     7  C   -0.765524   0.000000
     8  C    0.480510   0.000000
     9  C    0.679639  -0.000000
    10  C   -0.477701   0.000000
    11  C    0.076301   0.000000
    12  C    0.085912  -0.000000
    13  C   -0.337932  -0.000000
    14  O   -0.245670   0.000000
    15  O   -0.246172  -0.000000
    16  H    0.186691  -0.000000
    17  H    0.213199  -0.000000
    18  H    0.211360   0.000000
    19  H    0.264264   0.000000
    20  H    0.189238  -0.000000
    21  H    0.231770  -0.000000
    22  H    0.198279   0.000000
    23  C   -1.141122   0.000000
    24  S    0.330689   0.000000
    25  O   -0.207971   0.000000
    26  O   -0.180925  -0.000000
    27  O   -0.058827   0.000000
    28  C   -0.144580   0.000000
    29  H    0.179003  -0.000000
    30  H    0.193521   0.000000
    31  H    0.179377  -0.000000
 Sum of Mulliken charges =  -0.00000  -0.00000

 Dipole moment (field-independent basis, Debye):
    X=             -4.0392    Y=              0.2175    Z=              3.2569  Tot=              5.1932
 Quadrupole moment (field-independent basis, Debye-Ang):
   XX=            -99.9882   YY=           -137.7426   ZZ=           -129.6627
   XY=              6.0192   XZ=             16.5975   YZ=             -4.0693

 Normal termination of Gaussian 16 at Tue Jan 16 05:18:52 2024.
