 Q-Chem 5.4, Q-Chem, Inc., Pleasanton, CA (2021)
 Q-Chem 5.4.0 for Intel X86 EM64T Linux

User input:
--------------------------------------------------------------
$molecule
-2 1
C                 -4.6669330000      0.2851680000     -0.0836420000
C                 -3.2005000000     -0.0720180000     -0.0282860000
C                 -2.8173040000     -1.4475410000     -0.0613090000
C                 -1.4849920000     -1.8080800000     -0.0132010000
O                 -1.1385140000     -3.1226100000     -0.0454700000
C                 -0.4458520000     -0.8114360000      0.0712490000
C                  0.9168750000     -1.1997900000      0.1195300000
O                  1.2732450000     -2.5052570000      0.0875190000
C                  1.8954630000     -0.1747720000      0.2025200000
C                  3.2970090000     -0.5097260000      0.2546160000
O                  3.6678700000     -1.8190230000      0.2232900000
C                  4.2625650000      0.4758070000      0.3354600000
C                  3.8776990000      1.8454950000      0.3684900000
C                  2.5486130000      2.2010250000      0.3206230000
C                  1.5215190000      1.2216190000      0.2371350000
C                  0.1341890000      1.6468490000      0.1891840000
O                 -0.2033640000      2.8833900000      0.2196200000
C                 -0.8394280000      0.5774600000      0.1046440000
C                 -2.2260550000      0.8963670000      0.0524470000
H                 -5.1469640000     -0.0847230000     -1.0034350000
H                 -5.2297850000     -0.1513560000      0.7565480000
H                 -4.8051790000      1.3704690000     -0.0490400000
H                 -3.5653710000     -2.2347120000     -0.1243200000
H                 -0.1159750000     -3.1149180000      0.0016740000
H                  2.7835750000     -2.3296040000      0.1636280000
H                  5.3075340000      0.1796930000      0.3725780000
H                  4.6482400000      2.6125280000      0.4322860000
H                  2.2316590000      3.2379970000      0.3445130000
H                 -2.4798380000      1.9516990000      0.0796440000
$end

$rem
BASIS  =  6-311++G(d,p)
GUI  =  2
JOB_TYPE  =  SP
METHOD  =  B3LYP
SCF_CONVERGENCE  = 8
SOLVENT_METHOD = sm12
$end

$smx
solvent dimethylformamide
charges CM5
$end

--------------------------------------------------------------

             Standard Nuclear Orientation (Angstroms)
    I     Atom           X                Y                Z
 ----------------------------------------------------------------
    1      C      -4.6669330000     0.2851680000    -0.0836420000
    2      C      -3.2005000000    -0.0720180000    -0.0282860000
    3      C      -2.8173040000    -1.4475410000    -0.0613090000
    4      C      -1.4849920000    -1.8080800000    -0.0132010000
    5      O      -1.1385140000    -3.1226100000    -0.0454700000
    6      C      -0.4458520000    -0.8114360000     0.0712490000
    7      C       0.9168750000    -1.1997900000     0.1195300000
    8      O       1.2732450000    -2.5052570000     0.0875190000
    9      C       1.8954630000    -0.1747720000     0.2025200000
   10      C       3.2970090000    -0.5097260000     0.2546160000
   11      O       3.6678700000    -1.8190230000     0.2232900000
   12      C       4.2625650000     0.4758070000     0.3354600000
   13      C       3.8776990000     1.8454950000     0.3684900000
   14      C       2.5486130000     2.2010250000     0.3206230000
   15      C       1.5215190000     1.2216190000     0.2371350000
   16      C       0.1341890000     1.6468490000     0.1891840000
   17      O      -0.2033640000     2.8833900000     0.2196200000
   18      C      -0.8394280000     0.5774600000     0.1046440000
   19      C      -2.2260550000     0.8963670000     0.0524470000
   20      H      -5.1469640000    -0.0847230000    -1.0034350000
   21      H      -5.2297850000    -0.1513560000     0.7565480000
   22      H      -4.8051790000     1.3704690000    -0.0490400000
   23      H      -3.5653710000    -2.2347120000    -0.1243200000
   24      H      -0.1159750000    -3.1149180000     0.0016740000
   25      H       2.7835750000    -2.3296040000     0.1636280000
   26      H       5.3075340000     0.1796930000     0.3725780000
   27      H       4.6482400000     2.6125280000     0.4322860000
   28      H       2.2316590000     3.2379970000     0.3445130000
   29      H      -2.4798380000     1.9516990000     0.0796440000
 ----------------------------------------------------------------

   18    -878.7958319822      4.98e-09  Convergence criterion met
 Total energy in the final basis set =     -879.0699435538

                    Orbital Energies (a.u.)
 --------------------------------------------------------------

 Alpha MOs
 -- Occupied --
-19.1181 -19.1171 -19.0672 -19.0310 -10.2272 -10.2264 -10.2013 -10.1925
-10.1749 -10.1739 -10.1722 -10.1630 -10.1617 -10.1595 -10.1584 -10.1558
-10.1554 -10.1545 -10.1522  -1.0382  -1.0315  -0.9604  -0.9492  -0.8443
 -0.8347  -0.7849  -0.7443  -0.7321  -0.7277  -0.6942  -0.6550  -0.6252
 -0.6060  -0.5773  -0.5642  -0.5233  -0.5094  -0.4999  -0.4830  -0.4640
 -0.4551  -0.4546  -0.4263  -0.4242  -0.4123  -0.4097  -0.4003  -0.3954
 -0.3905  -0.3852  -0.3767  -0.3718  -0.3601  -0.3516  -0.3477  -0.3387
 -0.3364  -0.3218  -0.3188  -0.2963  -0.2489  -0.2432  -0.2339  -0.2176
 -0.2152  -0.2057  -0.1273

          Ground-State Mulliken Net Atomic Charges

     Atom                 Charge (a.u.)
  ----------------------------------------
      1 C                     2.879512
      2 C                     2.475174
      3 C                     0.839119
      4 C                     0.721387
      5 O                    -0.291435
      6 C                    -1.559892
      7 C                    -1.793664
      8 O                    -0.444670
      9 C                    -0.835891
     10 C                     0.218421
     11 O                    -0.278311
     12 C                     1.448313
     13 C                     1.230934
     14 C                    -0.752832
     15 C                    -2.073199
     16 C                    -2.148690
     17 O                    -0.350704
     18 C                    -3.229887
     19 C                    -0.781628
     20 H                     0.275498
     21 H                     0.275370
     22 H                     0.372157
     23 H                     0.221631
     24 H                     0.455478
     25 H                     0.458508
     26 H                     0.305247
     27 H                     0.374581
     28 H                     0.082845
     29 H                    -0.093371
  ----------------------------------------
  Sum of atomic charges =    -2.000000

                    Cartesian Multipole Moments
 -----------------------------------------------------------------
    Charge (ESU x 10^10)
                -9.6064
    Dipole Moment (Debye)
         X      -6.0318      Y      -1.0670      Z      -1.4895
       Tot       6.3039
    Quadrupole Moments (Debye-Ang)
        XX    -170.1992     XY       1.2283     YY    -174.8783
        XZ      -2.8157     YZ      -1.9645     ZZ    -124.1266

 Total job time:  824.70s(wall), 6483.48s(cpu)
        *  Thank you very much for using Q-Chem.  Have a nice day.  *
