 Gaussian 16, Revision A.03,
 Gaussian 16:  ES64L-G16RevA.03 25-Dec-2016

 --------------------------------------
 #P UB3LYP/6-311++G(d,p) nosym opt freq
 --------------------------------------

 -------
 Reduced
 -------
 Symbolic Z-matrix:
 Charge = -2 Multiplicity = 1

 SCF Done:  E(UB3LYP) =  -878.803297853     A.U. after   23 cycles
 Optimization completed.
    -- Stationary point found.
 Normal termination of Gaussian 16 at Sun Jan  7 05:04:21 2024.

 ----------------------------------------------------------------------
 #P Geom=AllCheck Guess=TCheck SCRF=Check GenChk UB3LYP/6-311++G(d,p) F
 req
 ----------------------------------------------------------------------

 Structure from the checkpoint file:  "196-an.chk"
 -------
 Reduced
 -------
 Charge = -2 Multiplicity = 1

                          Input orientation:
 ---------------------------------------------------------------------
 Center     Atomic      Atomic             Coordinates (Angstroms)
 Number     Number       Type             X           Y           Z
 ---------------------------------------------------------------------
      1          6           0       -4.666933    0.285168   -0.083642
      2          6           0       -3.200500   -0.072018   -0.028286
      3          6           0       -2.817304   -1.447541   -0.061309
      4          6           0       -1.484992   -1.808080   -0.013201
      5          8           0       -1.138514   -3.122610   -0.045470
      6          6           0       -0.445852   -0.811436    0.071249
      7          6           0        0.916875   -1.199790    0.119530
      8          8           0        1.273245   -2.505257    0.087519
      9          6           0        1.895463   -0.174772    0.202520
     10          6           0        3.297009   -0.509726    0.254616
     11          8           0        3.667870   -1.819023    0.223290
     12          6           0        4.262565    0.475807    0.335460
     13          6           0        3.877699    1.845495    0.368490
     14          6           0        2.548613    2.201025    0.320623
     15          6           0        1.521519    1.221619    0.237135
     16          6           0        0.134189    1.646849    0.189184
     17          8           0       -0.203364    2.883390    0.219620
     18          6           0       -0.839428    0.577460    0.104644
     19          6           0       -2.226055    0.896367    0.052447
     20          1           0       -5.146964   -0.084723   -1.003435
     21          1           0       -5.229785   -0.151356    0.756548
     22          1           0       -4.805179    1.370469   -0.049040
     23          1           0       -3.565371   -2.234712   -0.124320
     24          1           0       -0.115975   -3.114918    0.001674
     25          1           0        2.783575   -2.329604    0.163628
     26          1           0        5.307534    0.179693    0.372578
     27          1           0        4.648240    2.612528    0.432286
     28          1           0        2.231659    3.237997    0.344513
     29          1           0       -2.479838    1.951699    0.079644
 ---------------------------------------------------------------------

 SCF Done:  E(UB3LYP) =  -878.803297853     A.U. after    2 cycles

 Alpha  occ. eigenvalues --  -18.87619 -18.87564 -18.82039 -18.78037  -9.98238
 Alpha  occ. eigenvalues --   -9.98119  -9.96342  -9.95124  -9.94349  -9.93520
 Alpha  occ. eigenvalues --   -9.92737  -9.91633  -9.91436  -9.91422  -9.91305
 Alpha  occ. eigenvalues --   -9.91127  -9.90964  -9.90608  -9.90477  -0.79583
 Alpha  occ. eigenvalues --   -0.78951  -0.71343  -0.69883  -0.60132  -0.59010
 Alpha  occ. eigenvalues --   -0.54428  -0.50691  -0.48644  -0.48298  -0.45909
 Alpha  occ. eigenvalues --   -0.40985  -0.37965  -0.36658  -0.33429  -0.31915
 Alpha  occ. eigenvalues --   -0.27994  -0.26367  -0.26045  -0.23814  -0.22736
 Alpha  occ. eigenvalues --   -0.21349  -0.21030  -0.20909  -0.18963  -0.17430
 Alpha  occ. eigenvalues --   -0.16905  -0.16072  -0.15800  -0.14934  -0.14266
 Alpha  occ. eigenvalues --   -0.13666  -0.12921  -0.11268  -0.11028  -0.10403
 Alpha  occ. eigenvalues --   -0.09446  -0.09018  -0.07551  -0.07470  -0.05368
 Alpha  occ. eigenvalues --   -0.00184   0.00115   0.01340   0.02812   0.02934
 Alpha  occ. eigenvalues --    0.04361   0.12094
 Alpha virt. eigenvalues --    0.15077   0.16591   0.17994   0.18276   0.18500
 Alpha virt. eigenvalues --    0.19756   0.20976   0.21176   0.21318   0.22351
 Alpha virt. eigenvalues --    0.22800   0.23833   0.25363   0.25449   0.26149

  Beta  occ. eigenvalues --  -18.87619 -18.87564 -18.82039 -18.78037  -9.98238
  Beta  occ. eigenvalues --   -9.98119  -9.96342  -9.95124  -9.94349  -9.93520
  Beta  occ. eigenvalues --   -9.92737  -9.91633  -9.91436  -9.91422  -9.91305
  Beta  occ. eigenvalues --   -9.91127  -9.90964  -9.90608  -9.90477  -0.79583
  Beta  occ. eigenvalues --   -0.78951  -0.71343  -0.69883  -0.60132  -0.59010
  Beta  occ. eigenvalues --   -0.54428  -0.50691  -0.48644  -0.48298  -0.45909
  Beta  occ. eigenvalues --   -0.40985  -0.37965  -0.36658  -0.33429  -0.31915
  Beta  occ. eigenvalues --   -0.27994  -0.26367  -0.26045  -0.23814  -0.22736
  Beta  occ. eigenvalues --   -0.21349  -0.21030  -0.20909  -0.18963  -0.17430
  Beta  occ. eigenvalues --   -0.16905  -0.16072  -0.15800  -0.14934  -0.14266
  Beta  occ. eigenvalues --   -0.13666  -0.12921  -0.11268  -0.11028  -0.10403
  Beta  occ. eigenvalues --   -0.09446  -0.09018  -0.07551  -0.07470  -0.05368
  Beta  occ. eigenvalues --   -0.00184   0.00115   0.01340   0.02812   0.02934
  Beta  occ. eigenvalues --    0.04361   0.12094
  Beta virt. eigenvalues --    0.15077   0.16591   0.17994   0.18276   0.18500
  Beta virt. eigenvalues --    0.19756   0.20976   0.21176   0.21318   0.22351
  Beta virt. eigenvalues --    0.22800   0.23833   0.25363   0.25449   0.26149

 Mulliken charges and spin densities:
               1          2
     1  C   -0.353164  -0.000000
     2  C    0.576740   0.000000
     3  C   -0.332358   0.000000
     4  C   -0.074988   0.000000
     5  O   -0.440089  -0.000000
     6  C    0.365833  -0.000000
     7  C   -0.491321   0.000000
     8  O   -0.690419  -0.000000
     9  C    0.489333  -0.000000
    10  C   -0.200430   0.000000
    11  O   -0.441142  -0.000000
    12  C   -0.205381   0.000000
    13  C   -0.355020   0.000000
    14  C   -0.267058   0.000000
    15  C    0.444725  -0.000000
    16  C   -0.777957   0.000000
    17  O   -0.488223  -0.000000
    18  C    0.022061  -0.000000
    19  C   -0.402961  -0.000000
    20  H    0.093415  -0.000000
    21  H    0.093446  -0.000000
    22  H    0.132841   0.000000
    23  H    0.084219  -0.000000
    24  H    0.427714  -0.000000
    25  H    0.424897  -0.000000
    26  H    0.086276  -0.000000
    27  H    0.081405  -0.000000
    28  H    0.115340  -0.000000
    29  H    0.082264   0.000000
 Sum of Mulliken charges =  -2.00000   0.00000

 Dipole moment (field-independent basis, Debye):
    X=             -4.7687    Y=             -0.0002    Z=             -1.3905  Tot=              4.9673
 Quadrupole moment (field-independent basis, Debye-Ang):
   XX=           -184.7277   YY=           -175.5805   ZZ=           -123.7755
   XY=              0.3622   XZ=             -3.3925   YZ=             -1.9193

  Exact polarizability: 472.759  49.356 261.296  17.065   6.595 145.574
 Approx polarizability: 736.199  64.705 484.723  27.048  13.431 204.695

                      1                      2                      3
                      A                      A                      A
 Frequencies --     51.3702                76.0559               107.7657
 Red. masses --      5.4357                 6.7301                 7.9174
 Frc consts  --      0.0085                 0.0229                 0.0542
 IR Inten    --      2.5738                 0.1335                 0.4649

                      4                      5                      6
                      A                      A                      A
 Frequencies --    130.9569               157.6513               185.3872
 Red. masses --      1.3233                 3.6487                 4.1445
 Frc consts  --      0.0134                 0.0534                 0.0839
 IR Inten    --      1.0335                 0.4532                 1.9812

                      7                      8                      9
                      A                      A                      A
 Frequencies --    195.5432               211.2492               257.8865
 Red. masses --      4.1910                 4.5576                 4.8439
 Frc consts  --      0.0944                 0.1198                 0.1898
 IR Inten    --      2.3862                 0.0907                 0.2821

                     10                     11                     12
                      A                      A                      A
 Frequencies --    279.5235               318.0514               340.1945
 Red. masses --      4.9222                 5.3741                 6.7273
 Frc consts  --      0.2266                 0.3203                 0.4587
 IR Inten    --      0.7010                 0.8663                 9.4623

                     13                     14                     15
                      A                      A                      A
 Frequencies --    349.9477               365.3327               393.7531
 Red. masses --      5.5606                 6.5111                 7.4269
 Frc consts  --      0.4012                 0.5120                 0.6784
 IR Inten    --      7.8056                 0.1288                 0.3837

                     16                     17                     18
                      A                      A                      A
 Frequencies --    432.9665               457.0170               498.2032
 Red. masses --      7.7650                 8.6753                 4.3609
 Frc consts  --      0.8576                 1.0676                 0.6377
 IR Inten    --     48.2839                14.1349                 2.4797

                     19                     20                     21
                      A                      A                      A
 Frequencies --    499.3029               503.4109               544.6037
 Red. masses --     10.4081                 5.6318                 5.0216
 Frc consts  --      1.5288                 0.8409                 0.8775
 IR Inten    --      1.4260                 6.6280                 6.3414

                     22                     23                     24
                      A                      A                      A
 Frequencies --    549.4633               564.4284               598.5508
 Red. masses --      8.1752                 7.0469                 4.3278
 Frc consts  --      1.4542                 1.3227                 0.9135
 IR Inten    --      4.1256                23.5276                 2.2600

                     25                     26                     27
                      A                      A                      A
 Frequencies --    613.1076               615.0273               670.6556
 Red. masses --      3.5263                 5.0376                 5.6542
 Frc consts  --      0.7810                 1.1227                 1.4984
 IR Inten    --      7.2243                 5.8126                28.4927

                     28                     29                     30
                      A                      A                      A
 Frequencies --    702.4066               731.4462               737.3120
 Red. masses --      1.6135                 3.3764                 6.4449
 Frc consts  --      0.4690                 1.0643                 2.0643
 IR Inten    --     22.1121                 6.8540                 6.4918

                     31                     32                     33
                      A                      A                      A
 Frequencies --    743.1138               776.8212               793.6524
 Red. masses --      2.1296                 2.1561                 1.7539
 Frc consts  --      0.6929                 0.7666                 0.6509
 IR Inten    --     61.3245                13.1303                12.6105

                     34                     35                     36
                      A                      A                      A
 Frequencies --    807.4011               814.7817               888.8516
 Red. masses --      5.6233                 8.0182                 1.3797
 Frc consts  --      2.1598                 3.1362                 0.6423
 IR Inten    --      1.3007                22.1567                 7.6408

                     37                     38                     39
                      A                      A                      A
 Frequencies --    907.1349               927.9494               965.6328
 Red. masses --      5.6498                 1.2590                 4.5563
 Frc consts  --      2.7392                 0.6387                 2.5032
 IR Inten    --     17.5162                 2.6162                16.1286

                     40                     41                     42
                      A                      A                      A
 Frequencies --    980.6314               994.6692              1008.7477
 Red. masses --      1.0636                 1.8036                 3.8732
 Frc consts  --      0.6026                 1.0513                 2.3221
 IR Inten    --    121.6182                12.4897               193.8150

                     43                     44                     45
                      A                      A                      A
 Frequencies --   1015.7115              1042.4059              1045.4186
 Red. masses --      1.0397                 1.4273                 2.1401
 Frc consts  --      0.6320                 0.9138                 1.3780
 IR Inten    --      0.3051                 4.3201                81.3852

                     46                     47                     48
                      A                      A                      A
 Frequencies --   1074.2861              1103.0768              1137.7626
 Red. masses --      3.1723                 4.5225                 1.6108
 Frc consts  --      2.1571                 3.2422                 1.2285
 IR Inten    --     11.2156                81.0532                65.9070

                     49                     50                     51
                      A                      A                      A
 Frequencies --   1147.3553              1207.1002              1225.6740
 Red. masses --      1.4265                 2.0296                 2.8898
 Frc consts  --      1.1064                 1.7424                 2.5578
 IR Inten    --    124.5585               151.8294               175.7749

                     52                     53                     54
                      A                      A                      A
 Frequencies --   1258.0627              1277.2650              1312.1348
 Red. masses --      2.8897                 5.8915                 2.4428
 Frc consts  --      2.6947                 5.6628                 2.4780
 IR Inten    --     28.9444                20.4489                 3.2937

                     55                     56                     57
                      A                      A                      A
 Frequencies --   1315.1683              1365.0908              1376.3614
 Red. masses --      5.1371                 6.6001                 2.0668
 Frc consts  --      5.2352                 7.2465                 2.3068
 IR Inten    --    117.0694               213.9950               215.5020

                     58                     59                     60
                      A                      A                      A
 Frequencies --   1390.2411              1394.6339              1410.9108
 Red. masses --      2.1317                 4.8086                 3.6794
 Frc consts  --      2.4275                 5.5105                 4.3154
 IR Inten    --     57.8624                53.7404               134.3979

                     61                     62                     63
                      A                      A                      A
 Frequencies --   1442.9961              1468.7840              1486.5011
 Red. masses --      2.9917                 1.0485                 1.4127
 Frc consts  --      3.6703                 1.3327                 1.8392
 IR Inten    --      8.9394                 1.1714                13.7145

                     64                     65                     66
                      A                      A                      A
 Frequencies --   1493.6045              1506.2226              1534.4137
 Red. masses --      4.9512                 3.8079                 5.8261
 Frc consts  --      6.5077                 5.0900                 8.0819
 IR Inten    --    829.9593                53.3625                45.5188

                     67                     68                     69
                      A                      A                      A
 Frequencies --   1568.5487              1589.0496              1589.5473
 Red. masses --      2.8738                 6.0807                 2.7952
 Frc consts  --      4.1658                 9.0465                 4.1611
 IR Inten    --     85.4040                96.1236               165.5658

                     70                     71                     72
                      A                      A                      A
 Frequencies --   1643.0149              1700.6685              2606.4666
 Red. masses --      1.9897                 1.5248                 1.0786
 Frc consts  --      3.1646                 2.5984                 4.3175
 IR Inten    --    300.9943                 8.2010              1048.4820

                     73                     74                     75
                      A                      A                      A
 Frequencies --   2749.6456              2937.7578              2939.8262
 Red. masses --      1.0808                 1.0990                 1.0412
 Frc consts  --      4.8146                 5.5883                 5.3020
 IR Inten    --     27.0173               336.4218               701.4375

                     76                     77                     78
                      A                      A                      A
 Frequencies --   3055.6726              3096.1992              3124.3164
 Red. masses --      1.0915                 1.0848                 1.0880
 Frc consts  --      6.0049                 6.1269                 6.2575
 IR Inten    --     44.9314                69.8518                61.6824

                     79                     80                     81
                      A                      A                      A
 Frequencies --   3137.8529              3153.8595              3169.0612
 Red. masses --      1.0904                 1.0886                 1.0908
 Frc consts  --      6.3258                 6.3795                 6.4544
 IR Inten    --     97.0244                24.7364                38.5129

 - Thermochemistry -
 -------------------
 Temperature   298.150 Kelvin.  Pressure   1.00000 Atm.
 Atom     1 has atomic number  6 and mass  12.00000

 Molecular mass:   254.05791 amu.
 Principal axes and moments of inertia in atomic units:
                           1         2         3
     Eigenvalues --  2598.726255998.753288586.29053
           X            0.99031  -0.13105  -0.04598
           Y            0.12942   0.99090  -0.03692
           Z            0.05040   0.03061   0.99826
 This molecule is an asymmetric top.
 Rotational symmetry number  1.
 Warning -- assumption of classical behavior for rotation
           may cause significant error
 Rotational temperatures (Kelvin)      0.03333     0.01444     0.01009
 Rotational constants (GHZ):           0.69447     0.30085     0.21019
 Zero-point vibrational energy     549328.9 (Joules/Mol)
                                  131.29277 (Kcal/Mol)
 Warning -- explicit consideration of  26 degrees of freedom as
           vibrations may cause significant error
 Vibrational temperatures:     73.91   109.43   155.05   188.42   226.83
          (Kelvin)            266.73   281.34   303.94   371.04   402.17
                              457.61   489.46   503.50   525.63   566.52
                              622.94   657.55   716.80   718.39   724.30
                              783.56   790.56   812.09   861.18   882.13
                              884.89   964.92  1010.61  1052.39  1060.83
                             1069.17  1117.67  1141.89  1161.67  1172.29
                             1278.86  1305.16  1335.11  1389.33  1410.91
                             1431.11  1451.36  1461.38  1499.79  1504.12
                             1545.66  1587.08  1636.99  1650.79  1736.75
                             1763.47  1810.07  1837.70  1887.87  1892.23
                             1964.06  1980.28  2000.25  2006.57  2029.99
                             2076.15  2113.25  2138.74  2148.96  2167.12
                             2207.68  2256.79  2286.29  2287.00  2363.93
                             2446.88  3750.12  3956.13  4226.78  4229.75
                             4396.43  4454.74  4495.19  4514.67  4537.70
                             4559.57

 Zero-point correction=                           0.209228 (Hartree/Particle)
 Thermal correction to Energy=                    0.223864
 Thermal correction to Enthalpy=                  0.224808
 Thermal correction to Gibbs Free Energy=         0.168135
 Sum of electronic and zero-point Energies=           -878.594070
 Sum of electronic and thermal Energies=              -878.579434
 Sum of electronic and thermal Enthalpies=            -878.578490
 Sum of electronic and thermal Free Energies=         -878.635163

                     E (Thermal)             CV                S
                      KCal/Mol        Cal/Mol-Kelvin    Cal/Mol-Kelvin
 Total                  140.477             59.434            119.277
 Electronic               0.000              0.000              0.000
 Translational            0.889              2.981             42.497
 Rotational               0.889              2.981             33.259
 Vibrational            138.699             53.472             43.521
 Vibration     1          0.596              1.977              4.764
 Vibration     2          0.599              1.965              3.990
 Vibration     3          0.606              1.943              3.309
 Vibration     4          0.612              1.922              2.932
 Vibration     5          0.621              1.894              2.578
 Vibration     6          0.631              1.860              2.273
 Vibration     7          0.636              1.846              2.175
 Vibration     8          0.643              1.824              2.033
 Vibration     9          0.667              1.749              1.676
 Vibration    10          0.680              1.711              1.537
 Vibration    11          0.704              1.639              1.320
 Vibration    12          0.720              1.595              1.211
 Vibration    13          0.727              1.575              1.166
 Vibration    14          0.739              1.544              1.099
 Vibration    15          0.761              1.484              0.986
 Vibration    16          0.794              1.398              0.849
 Vibration    17          0.815              1.345              0.775
 Vibration    18          0.854              1.254              0.663
 Vibration    19          0.855              1.252              0.660
 Vibration    20          0.859              1.242              0.650
 Vibration    21          0.900              1.152              0.555
 Vibration    22          0.905              1.141              0.545
 Vibration    23          0.920              1.108              0.515
 Vibration    24          0.957              1.035              0.452
 Vibration    25          0.972              1.004              0.428
 Vibration    26          0.975              1.000              0.425

 Optimization completed.
    -- Stationary point found.
 Normal termination of Gaussian 16 at Sun Jan  7 06:07:57 2024.
