 Gaussian 16, Revision A.03,
 Gaussian 16:  ES64L-G16RevA.03 25-Dec-2016

 ----------------------------------------------------------------
 #P UB3LYP/6-311++G(d,p) SCRF=(PCM,Solvent=n,n-DiMethylFormamide)
 ----------------------------------------------------------------

 ------------------
 Radical PCM in DMF
 ------------------
 Symbolic Z-matrix:
 Charge = -1 Multiplicity = 2

                         Standard orientation:
 ---------------------------------------------------------------------
 Center     Atomic      Atomic             Coordinates (Angstroms)
 Number     Number       Type             X           Y           Z
 ---------------------------------------------------------------------
      1          8           0        0.404686    2.767551    0.000003
      2          6           0        0.426339    1.512936   -0.000139
      3          6           0       -0.809615    0.703150   -0.000083
      4          6           0       -2.054433    1.359091   -0.000066
      5          6           0       -3.242716    0.647573    0.000056
      6          6           0       -3.219807   -0.761677    0.000128
      7          6           0       -2.009431   -1.431382    0.000048
      8          6           0       -0.789752   -0.724488   -0.000031
      9          6           0        0.476594   -1.433822   -0.000052
     10          8           0        0.620893   -2.700026   -0.000120
     11          6           0        1.653366   -0.619350   -0.000024
     12          8           0        2.845474   -1.304387    0.000070
     13          6           0        1.656673    0.755814   -0.000016
     14          8           0        2.846707    1.441106    0.000102
     15          1           0       -2.045370    2.443231   -0.000165
     16          1           0       -4.192169    1.174895    0.000089
     17          1           0       -4.151315   -1.320226    0.000232
     18          1           0       -1.963689   -2.514791    0.000041
     19          1           0        2.542532   -2.237926    0.000134
     20          1           0        3.544618    0.773782    0.000298
 ---------------------------------------------------------------------

 SCF Done:  E(UB3LYP) =  -685.918516262     A.U. after   20 cycles

 The electronic state is 2-A.
 Alpha  occ. eigenvalues --  -19.15433 -19.15200 -19.08685 -19.08022 -10.22888
 Alpha  occ. eigenvalues --  -10.22590 -10.22473 -10.22147 -10.17697 -10.17626
 Alpha  occ. eigenvalues --  -10.17334 -10.17274 -10.17226 -10.17079  -1.07783
 Alpha  occ. eigenvalues --   -1.05371  -1.00400  -0.99764  -0.86043  -0.80279
 Alpha  occ. eigenvalues --   -0.75323  -0.73607  -0.68277  -0.62790  -0.61956
 Alpha  occ. eigenvalues --   -0.57866  -0.55710  -0.52560  -0.51254  -0.47665
 Alpha  occ. eigenvalues --   -0.46301  -0.44791  -0.43625  -0.42658  -0.41903
 Alpha  occ. eigenvalues --   -0.41844  -0.39729  -0.39447  -0.38685  -0.37607
 Alpha  occ. eigenvalues --   -0.35575  -0.35155  -0.34487  -0.34041  -0.26827
 Alpha  occ. eigenvalues --   -0.26164  -0.25950  -0.24734  -0.22154  -0.15298
 Alpha virt. eigenvalues --   -0.03270  -0.00798  -0.00688   0.00407   0.01503
 Alpha virt. eigenvalues --    0.02714   0.03027   0.04477   0.04938   0.05395
 Alpha virt. eigenvalues --    0.05414   0.06553   0.07081   0.07724   0.07899

  Beta  occ. eigenvalues --  -19.15385 -19.15174 -19.08106 -19.07420 -10.22714
  Beta  occ. eigenvalues --  -10.22367 -10.22335 -10.22099 -10.17653 -10.17541
  Beta  occ. eigenvalues --  -10.17303 -10.17214 -10.17193 -10.17084  -1.07656
  Beta  occ. eigenvalues --   -1.05209  -0.99363  -0.98786  -0.85798  -0.79840
  Beta  occ. eigenvalues --   -0.75081  -0.73436  -0.67386  -0.62582  -0.61717
  Beta  occ. eigenvalues --   -0.57632  -0.55521  -0.52396  -0.51045  -0.47439
  Beta  occ. eigenvalues --   -0.46108  -0.43770  -0.43498  -0.42575  -0.41579
  Beta  occ. eigenvalues --   -0.41306  -0.39279  -0.38141  -0.38042  -0.37426
  Beta  occ. eigenvalues --   -0.35434  -0.33916  -0.33717  -0.32991  -0.25640
  Beta  occ. eigenvalues --   -0.25183  -0.24931  -0.24162  -0.21269
  Beta virt. eigenvalues --   -0.08805  -0.02491  -0.00759   0.00410   0.00413
  Beta virt. eigenvalues --    0.01521   0.02729   0.03044   0.04881   0.04980
  Beta virt. eigenvalues --    0.05422   0.06575   0.07116   0.07247   0.07771

 Mulliken charges and spin densities:
               1          2
     1  O   -0.484003   0.222647
     2  C   -0.558956   0.086112
     3  C    0.451823   0.043752
     4  C    0.189823   0.023978
     5  C   -0.448111   0.052487
     6  C   -0.358558   0.020307
     7  C    0.088625   0.051011
     8  C    0.429105   0.027859
     9  C   -0.693341   0.121304
    10  O   -0.526094   0.210938
    11  C    0.065022   0.041758
    12  O   -0.339888   0.008496
    13  C    0.206630   0.090724
    14  O   -0.320360   0.012564
    15  H    0.160568  -0.001459
    16  H    0.182208  -0.003941
    17  H    0.187016  -0.001957
    18  H    0.161873  -0.002814
    19  H    0.300384  -0.003099
    20  H    0.306237  -0.000666
 Sum of Mulliken charges =  -1.00000   1.00000

 Dipole moment (field-independent basis, Debye):
    X=             -3.1695    Y=             -2.7294    Z=              0.0007  Tot=              4.1828
 Quadrupole moment (field-independent basis, Debye-Ang):
   XX=            -83.3774   YY=           -119.2465   ZZ=            -85.7470
   XY=             -4.7095   XZ=              0.0014   YZ=             -0.0018

 Normal termination of Gaussian 16 at Thu Jan 25 05:46:07 2024.
