 Q-Chem 5.4, Q-Chem, Inc., Pleasanton, CA (2021)
 Q-Chem 5.4.0 for Intel X86 EM64T Linux

User input:
--------------------------------------------------------------
$molecule
-2 1
C                  0.2563670000      1.4871960000     -0.7800330000
C                 -0.9325920000      0.6761780000     -0.7779550000
C                 -0.8874510000     -0.7243690000     -0.8663000000
C                  0.3520390000     -1.4529850000     -0.9304040000
C                  1.5409890000     -0.6419700000     -0.9325260000
C                  1.4958460000      0.7585810000     -0.8441830000
O                  0.2127650000      2.7914110000     -0.7535880000
O                  0.3956540000     -2.7572040000     -0.9565980000
C                  2.7679820000      1.5754790000     -0.8563380000
C                  2.8642220000     -1.3708590000     -0.9909070000
C                 -2.2558320000      1.4050670000     -0.7195630000
C                 -2.1595780000     -1.5412690000     -0.8541440000
H                  3.5227570000      1.1883370000     -0.1590930000
H                  2.5182020000      2.6064900000     -0.5934800000
H                  3.2525920000      1.5985730000     -1.8528380000
H                  2.6709210000     -2.4166960000     -1.2426200000
H                  3.4021670000     -1.3603350000     -0.0218700000
H                  3.5526120000     -0.9341690000     -1.7264700000
H                 -2.0624600000      2.4510170000     -0.4683760000
H                 -2.9439970000      0.9687240000      0.0164270000
H                 -2.7940690000      1.3940380000     -1.6884240000
H                 -2.9146090000     -1.1537220000     -1.5508780000
H                 -2.6438060000     -1.5649460000      0.1425350000
H                 -1.9099190000     -2.5721470000     -1.1176330000
$end
$rem
MAX_SCF_CYCLES=200
BASIS  =  6-311++G(d,p)
GUI  =  2
JOB_TYPE  =  SP
METHOD  =  B3LYP
SOLVENT_METHOD = PCM
$end
$pcm
theory = CPCM
$end
$solvent
dielectric 37.219
opticaldielectric 1.43
$end

--------------------------------------------------------------

             Standard Nuclear Orientation (Angstroms)
    I     Atom           X                Y                Z
 ----------------------------------------------------------------
    1      C       0.2563670000     1.4871960000    -0.7800330000
    2      C      -0.9325920000     0.6761780000    -0.7779550000
    3      C      -0.8874510000    -0.7243690000    -0.8663000000
    4      C       0.3520390000    -1.4529850000    -0.9304040000
    5      C       1.5409890000    -0.6419700000    -0.9325260000
    6      C       1.4958460000     0.7585810000    -0.8441830000
    7      O       0.2127650000     2.7914110000    -0.7535880000
    8      O       0.3956540000    -2.7572040000    -0.9565980000
    9      C       2.7679820000     1.5754790000    -0.8563380000
   10      C       2.8642220000    -1.3708590000    -0.9909070000
   11      C      -2.2558320000     1.4050670000    -0.7195630000
   12      C      -2.1595780000    -1.5412690000    -0.8541440000
   13      H       3.5227570000     1.1883370000    -0.1590930000
   14      H       2.5182020000     2.6064900000    -0.5934800000
   15      H       3.2525920000     1.5985730000    -1.8528380000
   16      H       2.6709210000    -2.4166960000    -1.2426200000
   17      H       3.4021670000    -1.3603350000    -0.0218700000
   18      H       3.5526120000    -0.9341690000    -1.7264700000
   19      H      -2.0624600000     2.4510170000    -0.4683760000
   20      H      -2.9439970000     0.9687240000     0.0164270000
   21      H      -2.7940690000     1.3940380000    -1.6884240000
   22      H      -2.9146090000    -1.1537220000    -1.5508780000
   23      H      -2.6438060000    -1.5649460000     0.1425350000
   24      H      -1.9099190000    -2.5721470000    -1.1176330000
 ----------------------------------------------------------------

    9    -539.1242317579      3.52e-06  Convergence criterion met
 Total energy in the final basis set =     -539.1242317579

                    Orbital Energies (a.u.)
 --------------------------------------------------------------

 Alpha MOs
 -- Occupied --
-19.0054 -19.0053 -10.1526 -10.1525 -10.1301 -10.1301 -10.1301 -10.1301
-10.1152 -10.1152 -10.1147 -10.1147  -0.9181  -0.9146  -0.7797  -0.7494
 -0.6900  -0.6878  -0.6608  -0.5943  -0.5917  -0.5021  -0.4948  -0.4565
 -0.4025  -0.4023  -0.3900  -0.3820  -0.3721  -0.3689  -0.3644  -0.3591
 -0.3523  -0.3407  -0.3383  -0.3279  -0.3164  -0.2947  -0.2925  -0.2896
 -0.2090  -0.1920  -0.1843  -0.1782  -0.1060

          Ground-State Mulliken Net Atomic Charges

     Atom                 Charge (a.u.)
  ----------------------------------------
      1 C                    -1.313896
      2 C                     0.663539
      3 C                     0.667493
      4 C                    -1.313406
      5 C                     0.663831
      6 C                     0.667200
      7 O                    -0.757771
      8 O                    -0.757772
      9 C                    -0.557967
     10 C                    -0.556822
     11 C                    -0.556900
     12 C                    -0.557980
     13 H                     0.130870
     14 H                     0.159176
     15 H                     0.137698
     16 H                     0.158918
     17 H                     0.137697
     18 H                     0.130863
     19 H                     0.158937
     20 H                     0.130888
     21 H                     0.137688
     22 H                     0.130849
     23 H                     0.137719
     24 H                     0.159147
  ----------------------------------------
  Sum of atomic charges =    -2.000000

                    Cartesian Multipole Moments
 -----------------------------------------------------------------
    Charge (ESU x 10^10)
                -9.6064
    Dipole Moment (Debye)
         X      -2.9224      Y      -0.1643      Z       8.2148
       Tot       8.7207
    Quadrupole Moments (Debye-Ang)
        XX     -89.5548     XY       1.8850     YY    -147.5630
        XZ       2.7479     YZ      -2.2682     ZZ     -89.5917

 Total job time:  28.75s(wall), 189.68s(cpu)
        *  Thank you very much for using Q-Chem.  Have a nice day.  *
