 Q-Chem 5.4, Q-Chem, Inc., Pleasanton, CA (2021)
 Q-Chem 5.4.0 for Intel X86 EM64T Linux

User input:
--------------------------------------------------------------
$molecule
-2 1
C                 -0.8014290000      3.7904200000     -0.1332010000
C                 -1.8533490000      3.1112850000      0.4496360000
C                 -1.6826620000      1.7610260000      0.8649680000
C                  0.4701140000      3.1884060000     -0.3406010000
C                  0.6385420000      1.8034320000      0.0726640000
C                 -0.4563840000      1.1443430000      0.6704780000
C                  1.5346760000      3.9386680000     -0.9448370000
C                  2.7534860000      3.2209840000     -1.0914600000
C                  2.9174200000      1.8580640000     -0.7422480000
C                  1.8941450000      1.0897280000     -0.1141740000
O                  1.4270430000      5.1751860000     -1.3624710000
O                  2.0603470000     -0.1423520000      0.2600920000
N                  3.8357260000      3.9603520000     -1.6286110000
H                 -0.9054550000      4.8224010000     -0.4564170000
H                 -2.8122640000      3.6091690000      0.5947040000
H                 -2.5067590000      1.2193670000      1.3276440000
H                 -0.2903450000      0.1132370000      0.9709520000
H                  3.4426420000      4.7666270000     -2.1127750000
H                  4.4473840000      3.3789240000     -2.1899510000
N                  4.2123410000      1.2602200000     -1.0464260000
C                  5.0241780000      1.0368400000      0.1470930000
C                  4.1252850000      0.0609050000     -1.8764220000
H                  5.1323930000      1.9847460000      0.6811750000
H                  6.0309520000      0.6924120000     -0.1436640000
H                  4.5751860000      0.2940220000      0.8263550000
H                  3.5753060000      0.3042790000     -2.7912190000
H                  3.6047800000     -0.7649930000     -1.3691830000
H                  5.1411290000     -0.2581420000     -2.1630260000
$end
$rem
MAX_SCF_CYCLES=200
BASIS  =  6-311++G(d,p)
GUI  =  2
JOB_TYPE  =  SP
METHOD  =  B3LYP
SOLVENT_METHOD = PCM
$end
$pcm
theory = CPCM
$end
$solvent
dielectric 37.219
opticaldielectric 1.43
$end

--------------------------------------------------------------

             Standard Nuclear Orientation (Angstroms)
    I     Atom           X                Y                Z
 ----------------------------------------------------------------
    1      C      -0.8014290000     3.7904200000    -0.1332010000
    2      C      -1.8533490000     3.1112850000     0.4496360000
    3      C      -1.6826620000     1.7610260000     0.8649680000
    4      C       0.4701140000     3.1884060000    -0.3406010000
    5      C       0.6385420000     1.8034320000     0.0726640000
    6      C      -0.4563840000     1.1443430000     0.6704780000
    7      C       1.5346760000     3.9386680000    -0.9448370000
    8      C       2.7534860000     3.2209840000    -1.0914600000
    9      C       2.9174200000     1.8580640000    -0.7422480000
   10      C       1.8941450000     1.0897280000    -0.1141740000
   11      O       1.4270430000     5.1751860000    -1.3624710000
   12      O       2.0603470000    -0.1423520000     0.2600920000
   13      N       3.8357260000     3.9603520000    -1.6286110000
   14      H      -0.9054550000     4.8224010000    -0.4564170000
   15      H      -2.8122640000     3.6091690000     0.5947040000
   16      H      -2.5067590000     1.2193670000     1.3276440000
   17      H      -0.2903450000     0.1132370000     0.9709520000
   18      H       3.4426420000     4.7666270000    -2.1127750000
   19      H       4.4473840000     3.3789240000    -2.1899510000
   20      N       4.2123410000     1.2602200000    -1.0464260000
   21      C       5.0241780000     1.0368400000     0.1470930000
   22      C       4.1252850000     0.0609050000    -1.8764220000
   23      H       5.1323930000     1.9847460000     0.6811750000
   24      H       6.0309520000     0.6924120000    -0.1436640000
   25      H       4.5751860000     0.2940220000     0.8263550000
   26      H       3.5753060000     0.3042790000    -2.7912190000
   27      H       3.6047800000    -0.7649930000    -1.3691830000
   28      H       5.1411290000    -0.2581420000    -2.1630260000
 ----------------------------------------------------------------

    9    -724.8916058464      9.31e-06  Convergence criterion met
 Total energy in the final basis set =     -724.8916058464

                    Orbital Energies (a.u.)
 --------------------------------------------------------------

 Alpha MOs
 -- Occupied --
-19.0181 -19.0163 -14.2832 -14.2794 -10.1709 -10.1654 -10.1615 -10.1607
-10.1566 -10.1472 -10.1458 -10.1440 -10.1434 -10.1422 -10.1354 -10.1327
 -0.9365  -0.9292  -0.8927  -0.8593  -0.8203  -0.7507  -0.7198  -0.6921
 -0.6824  -0.6414  -0.6107  -0.5732  -0.5554  -0.5256  -0.5020  -0.4767
 -0.4573  -0.4344  -0.4300  -0.4273  -0.4152  -0.4044  -0.3938  -0.3825
 -0.3771  -0.3666  -0.3631  -0.3568  -0.3447  -0.3372  -0.3300  -0.3204
 -0.3108  -0.3001  -0.2759  -0.2274  -0.2208  -0.2186  -0.2008  -0.1865
 -0.1788  -0.1098

          Ground-State Mulliken Net Atomic Charges

     Atom                 Charge (a.u.)
  ----------------------------------------
      1 C                    -0.201352
      2 C                    -0.385415
      3 C                    -0.423802
      4 C                     0.761142
      5 C                     0.155228
      6 C                    -0.071523
      7 C                    -0.662993
      8 C                     0.106598
      9 C                    -0.244170
     10 C                    -0.831924
     11 O                    -0.766771
     12 O                    -0.659212
     13 N                    -0.505460
     14 H                     0.135629
     15 H                     0.168120
     16 H                     0.169027
     17 H                     0.137771
     18 H                     0.275934
     19 H                     0.281425
     20 N                     0.160922
     21 C                    -0.243419
     22 C                    -0.204033
     23 H                     0.133271
     24 H                     0.140530
     25 H                     0.152754
     26 H                     0.138372
     27 H                     0.153971
     28 H                     0.129381
  ----------------------------------------
  Sum of atomic charges =    -2.000000

                    Cartesian Multipole Moments
 -----------------------------------------------------------------
    Charge (ESU x 10^10)
                -9.6064
    Dipole Moment (Debye)
         X     -14.5791      Y     -25.5150      Z       3.4979
       Tot      29.5940
    Quadrupole Moments (Debye-Ang)
        XX    -140.9087     XY     -36.4243     YY    -224.7231
        XZ       4.5091     YZ      23.4978     ZZ    -110.5935

 Total job time:  59.44s(wall), 327.05s(cpu)
        *  Thank you very much for using Q-Chem.  Have a nice day.  *
