 Gaussian 16, Revision A.03,
 Gaussian 16:  ES64L-G16RevA.03 25-Dec-2016

 --------------------------------------
 #P UB3LYP/6-311++G(d,p) nosym opt freq
 --------------------------------------

 -------
 Reduced
 -------
 Symbolic Z-matrix:
 Charge = -2 Multiplicity = 1

 SCF Done:  E(UB3LYP) =  -724.613212919     A.U. after   41 cycles
 SCF Done:  E(UB3LYP) =  -724.613408745     A.U. after   45 cycles
 SCF Done:  E(UB3LYP) =  -724.613422106     A.U. after   28 cycles
 SCF Done:  E(UB3LYP) =  -724.613458853     A.U. after   29 cycles
 SCF Done:  E(UB3LYP) =  -724.613463341     A.U. after   29 cycles
 SCF Done:  E(UB3LYP) =  -724.613464157     A.U. after   36 cycles
 SCF Done:  E(UB3LYP) =  -724.613464457     A.U. after   25 cycles
 SCF Done:  E(UB3LYP) =  -724.613464616     A.U. after   26 cycles
 Optimization completed.
    -- Stationary point found.
 Normal termination of Gaussian 16 at Mon Jan  8 02:50:13 2024.

 ----------------------------------------------------------------------
 #P Geom=AllCheck Guess=TCheck SCRF=Check GenChk UB3LYP/6-311++G(d,p) F
 req
 ----------------------------------------------------------------------

 Structure from the checkpoint file:  "273-an.chk"
 -------
 Reduced
 -------
 Charge = -2 Multiplicity = 1

                          Input orientation:
 ---------------------------------------------------------------------
 Center     Atomic      Atomic             Coordinates (Angstroms)
 Number     Number       Type             X           Y           Z
 ---------------------------------------------------------------------
      1          6           0       -0.801429    3.790420   -0.133201
      2          6           0       -1.853349    3.111285    0.449636
      3          6           0       -1.682662    1.761026    0.864968
      4          6           0        0.470114    3.188406   -0.340601
      5          6           0        0.638542    1.803432    0.072664
      6          6           0       -0.456384    1.144343    0.670478
      7          6           0        1.534676    3.938668   -0.944837
      8          6           0        2.753486    3.220984   -1.091460
      9          6           0        2.917420    1.858064   -0.742248
     10          6           0        1.894145    1.089728   -0.114174
     11          8           0        1.427043    5.175186   -1.362471
     12          8           0        2.060347   -0.142352    0.260092
     13          7           0        3.835726    3.960352   -1.628611
     14          1           0       -0.905455    4.822401   -0.456417
     15          1           0       -2.812264    3.609169    0.594704
     16          1           0       -2.506759    1.219367    1.327644
     17          1           0       -0.290345    0.113237    0.970952
     18          1           0        3.442642    4.766627   -2.112775
     19          1           0        4.447384    3.378924   -2.189951
     20          7           0        4.212341    1.260220   -1.046426
     21          6           0        5.024178    1.036840    0.147093
     22          6           0        4.125285    0.060905   -1.876422
     23          1           0        5.132393    1.984746    0.681175
     24          1           0        6.030952    0.692412   -0.143664
     25          1           0        4.575186    0.294022    0.826355
     26          1           0        3.575306    0.304279   -2.791219
     27          1           0        3.604780   -0.764993   -1.369183
     28          1           0        5.141129   -0.258142   -2.163026
 ---------------------------------------------------------------------

 SCF Done:  E(UB3LYP) =  -724.613464616     A.U. after    3 cycles

 Alpha  occ. eigenvalues --  -18.75976 -18.75440 -14.05777 -14.03867  -9.95059
 Alpha  occ. eigenvalues --   -9.94771  -9.91983  -9.91124  -9.90744  -9.90739
 Alpha  occ. eigenvalues --   -9.90645  -9.90143  -9.89994  -9.89921  -9.88416
 Alpha  occ. eigenvalues --   -9.88312  -0.68617  -0.66834  -0.65613  -0.61547
 Alpha  occ. eigenvalues --   -0.57520  -0.50486  -0.47486  -0.46598  -0.45263
 Alpha  occ. eigenvalues --   -0.39907  -0.37400  -0.33090  -0.31907  -0.28120
 Alpha  occ. eigenvalues --   -0.26001  -0.24291  -0.22326  -0.20906  -0.20398
 Alpha  occ. eigenvalues --   -0.18811  -0.17800  -0.16359  -0.15686  -0.15191
 Alpha  occ. eigenvalues --   -0.13739  -0.13050  -0.12949  -0.11746  -0.09905
 Alpha  occ. eigenvalues --   -0.09117  -0.08474  -0.07430  -0.05726  -0.04979
 Alpha  occ. eigenvalues --   -0.02338   0.01849   0.02090   0.03547   0.06146
 Alpha  occ. eigenvalues --    0.06477   0.06821   0.14763
 Alpha virt. eigenvalues --    0.16252   0.16983   0.17932   0.18630   0.19403
 Alpha virt. eigenvalues --    0.20152   0.21367   0.22116   0.22389   0.22664
 Alpha virt. eigenvalues --    0.23232   0.24181   0.24640   0.25797   0.26570

  Beta  occ. eigenvalues --  -18.75976 -18.75440 -14.05777 -14.03867  -9.95059
  Beta  occ. eigenvalues --   -9.94771  -9.91983  -9.91124  -9.90744  -9.90739
  Beta  occ. eigenvalues --   -9.90645  -9.90143  -9.89994  -9.89921  -9.88416
  Beta  occ. eigenvalues --   -9.88312  -0.68617  -0.66834  -0.65613  -0.61547
  Beta  occ. eigenvalues --   -0.57520  -0.50486  -0.47486  -0.46598  -0.45263
  Beta  occ. eigenvalues --   -0.39907  -0.37400  -0.33090  -0.31907  -0.28120
  Beta  occ. eigenvalues --   -0.26001  -0.24291  -0.22326  -0.20906  -0.20398
  Beta  occ. eigenvalues --   -0.18811  -0.17800  -0.16359  -0.15686  -0.15191
  Beta  occ. eigenvalues --   -0.13739  -0.13050  -0.12949  -0.11746  -0.09905
  Beta  occ. eigenvalues --   -0.09117  -0.08474  -0.07430  -0.05726  -0.04979
  Beta  occ. eigenvalues --   -0.02338   0.01849   0.02090   0.03547   0.06146
  Beta  occ. eigenvalues --    0.06477   0.06821   0.14763
  Beta virt. eigenvalues --    0.16252   0.16983   0.17932   0.18630   0.19403
  Beta virt. eigenvalues --    0.20152   0.21367   0.22116   0.22389   0.22664
  Beta virt. eigenvalues --    0.23232   0.24181   0.24640   0.25797   0.26570

 Mulliken charges and spin densities:
               1          2
     1  C   -0.278635  -0.000000
     2  C   -0.239240   0.000000
     3  C   -0.317195  -0.000000
     4  C    1.246888   0.000000
     5  C    0.496694  -0.000000
     6  C   -0.118696  -0.000000
     7  C   -1.184592  -0.000000
     8  C    0.199646   0.000000
     9  C   -0.168971  -0.000000
    10  C   -1.300938   0.000000
    11  O   -0.587119  -0.000000
    12  O   -0.495402  -0.000000
    13  N   -0.440810  -0.000000
    14  H    0.110558  -0.000000
    15  H    0.062973   0.000000
    16  H    0.065335  -0.000000
    17  H    0.116537   0.000000
    18  H    0.234009  -0.000000
    19  H    0.215998  -0.000000
    20  N    0.235910   0.000000
    21  C   -0.231517  -0.000000
    22  C   -0.191835   0.000000
    23  H    0.104439   0.000000
    24  H    0.010480   0.000000
    25  H    0.159194  -0.000000
    26  H    0.099819  -0.000000
    27  H    0.162026   0.000000
    28  H    0.034445  -0.000000
 Sum of Mulliken charges =  -2.00000  -0.00000

 Dipole moment (field-independent basis, Debye):
    X=            -14.5703    Y=            -24.2113    Z=              3.6145  Tot=             28.4877
 Quadrupole moment (field-independent basis, Debye-Ang):
   XX=           -167.0088   YY=           -218.1553   ZZ=           -116.2576
   XY=            -30.2279   XZ=             11.6743   YZ=             21.4172

  Exact polarizability: 435.348 -52.820 250.000-188.987   3.595 113.590
 Approx polarizability: 658.552 -42.596 394.166 -82.671 -58.155 312.954

                      1                      2                      3
                      A                      A                      A
 Frequencies --     55.4153                66.4821               116.0738
 Red. masses --      3.0112                 4.5714                 4.2770
 Frc consts  --      0.0054                 0.0119                 0.0340
 IR Inten    --      1.1563                 3.2854                 4.0014

                      4                      5                      6
                      A                      A                      A
 Frequencies --    143.2220               161.1577               184.6137
 Red. masses --      4.2272                 2.9268                 4.6453
 Frc consts  --      0.0511                 0.0448                 0.0933
 IR Inten    --      6.6394                 3.4566                 6.2925

                      7                      8                      9
                      A                      A                      A
 Frequencies --    210.8196               230.2664               241.1208
 Red. masses --      1.1849                 2.5180                 1.4824
 Frc consts  --      0.0310                 0.0787                 0.0508
 IR Inten    --      4.3792                 1.0042                 1.1173

                     10                     11                     12
                      A                      A                      A
 Frequencies --    255.7239               279.4390               320.2757
 Red. masses --      3.2290                 3.2238                 2.6206
 Frc consts  --      0.1244                 0.1483                 0.1584
 IR Inten    --      5.7294                 1.3666                15.2967

                     13                     14                     15
                      A                      A                      A
 Frequencies --    349.8399               360.7232               404.6095
 Red. masses --      6.5121                 8.4456                 3.3053
 Frc consts  --      0.4696                 0.6475                 0.3188
 IR Inten    --      6.6995                 7.3573                35.9840

                     16                     17                     18
                      A                      A                      A
 Frequencies --    424.9497               434.6115               457.2067
 Red. masses --      4.6822                 6.6013                 2.3329
 Frc consts  --      0.4982                 0.7347                 0.2873
 IR Inten    --      1.4246                 6.4012                 4.6577

                     19                     20                     21
                      A                      A                      A
 Frequencies --    463.5120               480.2225               514.1153
 Red. masses --      2.3181                 2.9238                 7.2854
 Frc consts  --      0.2934                 0.3973                 1.1346
 IR Inten    --     12.4407                14.8923                 4.4439

                     22                     23                     24
                      A                      A                      A
 Frequencies --    569.1331               599.6733               658.9156
 Red. masses --      5.0220                 5.4384                 6.1101
 Frc consts  --      0.9584                 1.1523                 1.5630
 IR Inten    --      9.7017                27.0386                 5.2012

                     25                     26                     27
                      A                      A                      A
 Frequencies --    672.7898               694.9102               710.7311
 Red. masses --      2.0746                 2.5445                 5.8477
 Frc consts  --      0.5533                 0.7239                 1.7404
 IR Inten    --     78.4991                34.6936                 9.9490

                     28                     29                     30
                      A                      A                      A
 Frequencies --    734.4082               762.0778               805.0538
 Red. masses --      2.2926                 1.9264                 2.3964
 Frc consts  --      0.7286                 0.6592                 0.9151
 IR Inten    --     26.9239                 3.1374                98.3975

                     31                     32                     33
                      A                      A                      A
 Frequencies --    822.6007               853.9682               882.4636
 Red. masses --      2.7530                 3.6970                 5.4109
 Frc consts  --      1.0976                 1.5885                 2.4826
 IR Inten    --    137.4997                52.6578                13.8541

                     34                     35                     36
                      A                      A                      A
 Frequencies --    938.4755               948.9007               967.1284
 Red. masses --      1.2643                 1.3353                 3.7667
 Frc consts  --      0.6561                 0.7084                 2.0758
 IR Inten    --      3.5110                 1.7095                22.9926

                     37                     38                     39
                      A                      A                      A
 Frequencies --   1009.8648              1041.9020              1044.3370
 Red. masses --      2.1060                 2.9430                 2.0445
 Frc consts  --      1.2654                 1.8823                 1.3138
 IR Inten    --    100.3564               100.6492                44.3705

                     40                     41                     42
                      A                      A                      A
 Frequencies --   1087.8146              1093.8009              1115.9026
 Red. masses --      2.1288                 1.2230                 1.4636
 Frc consts  --      1.4842                 0.8621                 1.0738
 IR Inten    --     13.5769                 0.6539               162.7252

                     43                     44                     45
                      A                      A                      A
 Frequencies --   1157.1030              1162.9625              1175.2783
 Red. masses --      2.4264                 1.6251                 2.0137
 Frc consts  --      1.9141                 1.2950                 1.6388
 IR Inten    --      4.5537                17.9577                14.7886

                     46                     47                     48
                      A                      A                      A
 Frequencies --   1202.3251              1223.5430              1233.2465
 Red. masses --      1.8420                 3.1042                 2.5591
 Frc consts  --      1.5688                 2.7380                 2.2932
 IR Inten    --    170.2561                31.5875               255.1715

                     49                     50                     51
                      A                      A                      A
 Frequencies --   1279.9329              1293.5646              1327.5510
 Red. masses --      2.1064                 2.7443                 5.7166
 Frc consts  --      2.0332                 2.7055                 5.9360
 IR Inten    --     19.5130                 7.3142                87.4452

                     52                     53                     54
                      A                      A                      A
 Frequencies --   1383.0752              1397.4293              1408.5612
 Red. masses --      3.3761                 1.2044                 3.8767
 Frc consts  --      3.8050                 1.3857                 4.5318
 IR Inten    --    559.1684                41.9843               222.3344

                     55                     56                     57
                      A                      A                      A
 Frequencies --   1429.3382              1430.4704              1452.2148
 Red. masses --      3.6488                 1.5553                 2.0883
 Frc consts  --      4.3921                 1.8751                 2.5948
 IR Inten    --    123.9220                27.1306                39.7896

                     58                     59                     60
                      A                      A                      A
 Frequencies --   1457.4149              1467.9266              1492.3007
 Red. masses --      1.1341                 1.1272                 3.0079
 Frc consts  --      1.4193                 1.4311                 3.9466
 IR Inten    --     52.7526                12.8919                70.5341

                     61                     62                     63
                      A                      A                      A
 Frequencies --   1506.6007              1508.4197              1520.3480
 Red. masses --      1.0695                 3.8305                 1.0755
 Frc consts  --      1.4303                 5.1352                 1.4646
 IR Inten    --      5.8068               175.7146                 9.5092

                     64                     65                     66
                      A                      A                      A
 Frequencies --   1537.6422              1569.2263              1584.7109
 Red. masses --      1.5081                 5.1454                 5.5282
 Frc consts  --      2.1009                 7.4651                 8.1796
 IR Inten    --     45.2635                11.2487               138.8759

                     67                     68                     69
                      A                      A                      A
 Frequencies --   2920.9084              2932.5695              2962.3291
 Red. masses --      1.0401                 1.0447                 1.0976
 Frc consts  --      5.2283                 5.2932                 5.6748
 IR Inten    --      5.6628               512.6746               147.9225

                     70                     71                     72
                      A                      A                      A
 Frequencies --   2982.0241              3046.2473              3063.5427
 Red. masses --      1.0952                 1.0936                 1.0918
 Frc consts  --      5.7382                 5.9794                 6.0375
 IR Inten    --    223.5670               145.2859                61.9503

                     73                     74                     75
                      A                      A                      A
 Frequencies --   3076.4679              3102.9721              3145.1034
 Red. masses --      1.0821                 1.0898                 1.0901
 Frc consts  --      6.0343                 6.1826                 6.3531
 IR Inten    --     46.6596               153.8241                44.6308

                     76                     77                     78
                      A                      A                      A
 Frequencies --   3149.5509              3431.5835              3570.3937
 Red. masses --      1.0908                 1.0479                 1.0939
 Frc consts  --      6.3753                 7.2704                 8.2161
 IR Inten    --     65.6855               295.3409               127.1806

 - Thermochemistry -
 -------------------
 Temperature   298.150 Kelvin.  Pressure   1.00000 Atm.
 Atom     1 has atomic number  6 and mass  12.00000

 Molecular mass:   216.08988 amu.
 Principal axes and moments of inertia in atomic units:
                           1         2         3
     Eigenvalues --  2070.359574023.021715738.16574
           X            0.93077   0.20609   0.30199
           Y           -0.29586   0.90983   0.29098
           Z           -0.21479  -0.36018   0.90782
 This molecule is an asymmetric top.
 Rotational symmetry number  1.
 Warning -- assumption of classical behavior for rotation
           may cause significant error
 Rotational temperatures (Kelvin)      0.04184     0.02153     0.01509
 Rotational constants (GHZ):           0.87170     0.44860     0.31452
 Zero-point vibrational energy     566755.6 (Joules/Mol)
                                  135.45783 (Kcal/Mol)
 Warning -- explicit consideration of  23 degrees of freedom as
           vibrations may cause significant error
 Vibrational temperatures:     79.73    95.65   167.00   206.06   231.87
          (Kelvin)            265.62   303.32   331.30   346.92   367.93
                              402.05   460.81   503.34   519.00   582.14
                              611.41   625.31   657.82   666.89   690.93
                              739.70   818.86   862.80   948.03   967.99
                              999.82  1022.58  1056.65  1096.46  1158.29
                             1183.54  1228.67  1269.67  1350.26  1365.26
                             1391.48  1452.97  1499.06  1502.57  1565.12
                             1573.74  1605.53  1664.81  1673.24  1690.96
                             1729.88  1760.41  1774.37  1841.54  1861.15
                             1910.05  1989.94  2010.59  2026.61  2056.50
                             2058.13  2089.41  2096.89  2112.02  2147.09
                             2167.66  2170.28  2187.44  2212.32  2257.77
                             2280.05  4202.54  4219.31  4262.13  4290.47
                             4382.87  4407.75  4426.35  4464.48  4525.10
                             4531.50  4937.28  5137.00

 Zero-point correction=                           0.215866 (Hartree/Particle)
 Thermal correction to Energy=                    0.230116
 Thermal correction to Enthalpy=                  0.231060
 Thermal correction to Gibbs Free Energy=         0.175604
 Sum of electronic and zero-point Energies=           -724.397599
 Sum of electronic and thermal Energies=              -724.383348
 Sum of electronic and thermal Enthalpies=            -724.382404
 Sum of electronic and thermal Free Energies=         -724.437861

                     E (Thermal)             CV                S
                      KCal/Mol        Cal/Mol-Kelvin    Cal/Mol-Kelvin
 Total                  144.400             56.115            116.718
 Electronic               0.000              0.000              0.000
 Translational            0.889              2.981             42.015
 Rotational               0.889              2.981             32.236
 Vibrational            142.623             50.153             42.467
 Vibration     1          0.596              1.975              4.614
 Vibration     2          0.598              1.970              4.255
 Vibration     3          0.608              1.936              3.165
 Vibration     4          0.616              1.910              2.760
 Vibration     5          0.622              1.890              2.536
 Vibration     6          0.631              1.861              2.281
 Vibration     7          0.643              1.824              2.037
 Vibration     8          0.652              1.795              1.877
 Vibration     9          0.658              1.777              1.795
 Vibration    10          0.666              1.753              1.691
 Vibration    11          0.680              1.712              1.537
 Vibration    12          0.706              1.635              1.309
 Vibration    13          0.727              1.576              1.167
 Vibration    14          0.735              1.553              1.119
 Vibration    15          0.770              1.460              0.946
 Vibration    16          0.787              1.416              0.875
 Vibration    17          0.795              1.395              0.844
 Vibration    18          0.815              1.345              0.774
 Vibration    19          0.821              1.331              0.756
 Vibration    20          0.837              1.294              0.709
 Vibration    21          0.869              1.219              0.624
 Vibration    22          0.925              1.098              0.506
 Vibration    23          0.958              1.032              0.450

 Optimization completed.
    -- Stationary point found.
 Normal termination of Gaussian 16 at Mon Jan  8 03:39:03 2024.
