 Gaussian 16, Revision A.03,
 Gaussian 16:  ES64L-G16RevA.03 25-Dec-2016

 ----------------------------------------------------------------
 #P UB3LYP/6-311++G(d,p) SCRF=(PCM,Solvent=n,n-DiMethylFormamide)
 ----------------------------------------------------------------

 ------------------
 Quinone PCM in DMF
 ------------------
 Symbolic Z-matrix:
 Charge =  0 Multiplicity = 1

                         Standard orientation:
 ---------------------------------------------------------------------
 Center     Atomic      Atomic             Coordinates (Angstroms)
 Number     Number       Type             X           Y           Z
 ---------------------------------------------------------------------
      1          6           0        0.987162   -0.603073    1.096546
      2          6           0        2.370533   -1.090225    0.914417
      3          6           0        3.234027   -0.542641    0.040645
      4          6           0        2.779982    0.617437   -0.792377
      5          6           0        1.398625    1.122150   -0.603019
      6          8           0        0.238608   -1.113884    1.913461
      7          8           0        3.523903    1.135651   -1.608545
      8          1           0        2.648765   -1.925929    1.548596
      9          6           0        0.541590    0.552491    0.256971
     10          6           0       -0.848154    1.119521    0.478662
     11          6           0       -2.030495    0.341848    0.020986
     12          6           0       -3.308757    0.796829    0.375526
     13          6           0       -1.902898   -0.807197   -0.768782
     14          6           0       -4.437330    0.108546   -0.049137
     15          6           0       -4.302329   -1.035762   -0.838808
     16          6           0       -3.035671   -1.491184   -1.200378
     17          8           0       -0.945184    2.209712    1.007671
     18          1           0       -3.391946    1.687973    0.985356
     19          1           0       -0.921565   -1.165878   -1.056178
     20          1           0       -5.423353    0.459708    0.232581
     21          1           0       -5.184603   -1.571561   -1.170721
     22          1           0       -2.930979   -2.377685   -1.814972
     23          6           0        4.640621   -1.015401   -0.157471
     24          1           0        1.125237    1.978610   -1.210311
     25          1           0        4.864519   -1.863306    0.490562
     26          1           0        5.348832   -0.208572    0.050622
     27          1           0        4.805034   -1.305228   -1.198914
 ---------------------------------------------------------------------

 SCF Done:  E(UB3LYP) =  -765.373016136     A.U. after   15 cycles

 The electronic state is 1-A.
 Alpha  occ. eigenvalues --  -19.15083 -19.14966 -19.14161 -10.29712 -10.29441
 Alpha  occ. eigenvalues --  -10.29369 -10.23046 -10.22700 -10.22305 -10.20984
 Alpha  occ. eigenvalues --  -10.20393 -10.19995 -10.19652 -10.19576 -10.19218
 Alpha  occ. eigenvalues --  -10.19178 -10.18176  -1.08333  -1.08055  -1.07496
 Alpha  occ. eigenvalues --   -0.88237  -0.87562  -0.82440  -0.78343  -0.76878
 Alpha  occ. eigenvalues --   -0.73755  -0.71665  -0.66105  -0.63798  -0.62852
 Alpha  occ. eigenvalues --   -0.61137  -0.57140  -0.54158  -0.53936  -0.50737
 Alpha  occ. eigenvalues --   -0.49365  -0.48168  -0.47959  -0.46776  -0.45969
 Alpha  occ. eigenvalues --   -0.45472  -0.45166  -0.44399  -0.44257  -0.43111
 Alpha  occ. eigenvalues --   -0.41968  -0.41438  -0.41412  -0.39744  -0.38174
 Alpha  occ. eigenvalues --   -0.37880  -0.36336  -0.32355  -0.30398  -0.30062
 Alpha  occ. eigenvalues --   -0.29599  -0.27946  -0.27650  -0.27410
 Alpha virt. eigenvalues --   -0.14333  -0.08743  -0.03822  -0.03112  -0.01161
 Alpha virt. eigenvalues --   -0.00777   0.00007   0.01070   0.01378   0.01437
 Alpha virt. eigenvalues --    0.01650   0.02960   0.03319   0.03541   0.04303

  Beta  occ. eigenvalues --  -19.15083 -19.14966 -19.14161 -10.29712 -10.29441
  Beta  occ. eigenvalues --  -10.29369 -10.23046 -10.22700 -10.22305 -10.20984
  Beta  occ. eigenvalues --  -10.20393 -10.19995 -10.19652 -10.19576 -10.19218
  Beta  occ. eigenvalues --  -10.19178 -10.18176  -1.08333  -1.08055  -1.07496
  Beta  occ. eigenvalues --   -0.88237  -0.87562  -0.82440  -0.78343  -0.76878
  Beta  occ. eigenvalues --   -0.73755  -0.71665  -0.66105  -0.63798  -0.62852
  Beta  occ. eigenvalues --   -0.61137  -0.57140  -0.54158  -0.53936  -0.50737
  Beta  occ. eigenvalues --   -0.49365  -0.48168  -0.47959  -0.46776  -0.45969
  Beta  occ. eigenvalues --   -0.45472  -0.45166  -0.44399  -0.44257  -0.43111
  Beta  occ. eigenvalues --   -0.41968  -0.41438  -0.41412  -0.39744  -0.38174
  Beta  occ. eigenvalues --   -0.37880  -0.36336  -0.32355  -0.30398  -0.30062
  Beta  occ. eigenvalues --   -0.29599  -0.27946  -0.27650  -0.27410
  Beta virt. eigenvalues --   -0.14333  -0.08743  -0.03822  -0.03112  -0.01161
  Beta virt. eigenvalues --   -0.00777   0.00007   0.01070   0.01378   0.01437
  Beta virt. eigenvalues --    0.01650   0.02960   0.03319   0.03541   0.04303

 Mulliken charges and spin densities:
               1          2
     1  C   -0.886528  -0.000000
     2  C   -0.425409   0.000000
     3  C    0.994475  -0.000000
     4  C   -0.953078   0.000000
     5  C    0.474298  -0.000000
     6  O   -0.259460   0.000000
     7  O   -0.259109  -0.000000
     8  H    0.233345   0.000000
     9  C    1.139014   0.000000
    10  C   -0.617493   0.000000
    11  C    0.936943  -0.000000
    12  C    0.351050   0.000000
    13  C   -0.773610  -0.000000
    14  C   -0.466663  -0.000000
    15  C   -0.271222   0.000000
    16  C   -0.326811   0.000000
    17  O   -0.250104  -0.000000
    18  H    0.216844   0.000000
    19  H    0.177183  -0.000000
    20  H    0.205257  -0.000000
    21  H    0.190961   0.000000
    22  H    0.219023  -0.000000
    23  C   -0.483690  -0.000000
    24  H    0.277288  -0.000000
    25  H    0.170685   0.000000
    26  H    0.193512  -0.000000
    27  H    0.193299  -0.000000
 Sum of Mulliken charges =  -0.00000  -0.00000

 Dipole moment (field-independent basis, Debye):
    X=             -0.2006    Y=             -3.9766    Z=             -2.3473  Tot=              4.6221
 Quadrupole moment (field-independent basis, Debye-Ang):
   XX=            -78.4725   YY=           -102.6339   ZZ=           -107.1673
   XY=             -5.6364   XZ=             11.7273   YZ=              4.6209

 Normal termination of Gaussian 16 at Wed Jan 24 22:50:27 2024.
