 Gaussian 16, Revision A.03,
 Gaussian 16:  ES64L-G16RevA.03 25-Dec-2016

 ----------------------------------------------------------------
 #P UB3LYP/6-311++G(d,p) SCRF=(PCM,Solvent=n,n-DiMethylFormamide)
 ----------------------------------------------------------------

 -------
 Reduced
 -------
 Symbolic Z-matrix:
 Charge = -2 Multiplicity = 1

                         Standard orientation:
 ---------------------------------------------------------------------
 Center     Atomic      Atomic             Coordinates (Angstroms)
 Number     Number       Type             X           Y           Z
 ---------------------------------------------------------------------
      1          6           0        0.362131   -0.513432   -0.371326
      2          6           0        1.597548    0.154349   -0.063522
      3          6           0        1.628508    1.546421    0.092809
      4          6           0        0.487625    2.405685   -0.058140
      5          6           0       -0.730240    1.717724   -0.378962
      6          6           0       -0.797259    0.334614   -0.509448
      7          8           0        0.238208   -1.808881   -0.533668
      8          8           0        0.561941    3.689817    0.060653
      9          7           0       -2.000142   -0.367823   -0.859094
     10          6           0       -3.113790   -0.464707    0.127578
     11          6           0       -4.020143   -1.609254   -0.360005
     12          6           0       -3.934240    0.836030    0.154759
     13          6           0       -2.613604   -0.787017    1.553680
     14          1           0       -1.605936    2.331106   -0.570129
     15          1           0       -1.652754   -1.321248   -1.005317
     16          1           0       -3.471516   -2.557235   -0.373834
     17          1           0       -4.375297   -1.405260   -1.375690
     18          1           0       -4.891988   -1.734141    0.293061
     19          1           0       -4.264860    1.093447   -0.856712
     20          1           0       -3.336914    1.664568    0.539037
     21          1           0       -4.817684    0.721119    0.796102
     22          1           0       -2.022466   -1.707278    1.544739
     23          1           0       -3.454216   -0.908816    2.250395
     24          1           0       -1.969486    0.017683    1.917424
     25          6           0        2.870917   -0.701708    0.106705
     26          6           0        3.152880   -1.476640   -1.204427
     27          6           0        4.124945    0.130926    0.437489
     28          6           0        2.662530   -1.716957    1.257004
     29          1           0        2.557102    2.058892    0.325158
     30          1           0        2.274443   -2.070407   -1.464602
     31          1           0        4.026752   -2.137796   -1.089792
     32          1           0        3.360363   -0.773960   -2.019739
     33          1           0        4.350614    0.853254   -0.353153
     34          1           0        4.989821   -0.537985    0.545549
     35          1           0        4.006247    0.686432    1.372780
     36          1           0        1.772359   -2.314849    1.051312
     37          1           0        2.522014   -1.186858    2.206059
     38          1           0        3.536355   -2.379599    1.359969
 ---------------------------------------------------------------------

 SCF Done:  E(UB3LYP) =  -751.776759122     A.U. after   18 cycles

 The electronic state is 1-A.
 Alpha  occ. eigenvalues --  -19.00549 -19.00167 -14.26733 -10.19258 -10.15789
 Alpha  occ. eigenvalues --  -10.15698 -10.14972 -10.14642 -10.14183 -10.14149
 Alpha  occ. eigenvalues --  -10.13966 -10.13732 -10.12921 -10.12895 -10.11989
 Alpha  occ. eigenvalues --  -10.10452 -10.10298  -0.92207  -0.91751  -0.87482
 Alpha  occ. eigenvalues --   -0.79504  -0.77161  -0.73859  -0.68007  -0.67145
 Alpha  occ. eigenvalues --   -0.66744  -0.66228  -0.65754  -0.62325  -0.56745
 Alpha  occ. eigenvalues --   -0.53999  -0.51089  -0.49084  -0.45622  -0.44427
 Alpha  occ. eigenvalues --   -0.43024  -0.42699  -0.42309  -0.41343  -0.41117
 Alpha  occ. eigenvalues --   -0.40104  -0.39324  -0.37912  -0.37244  -0.36602
 Alpha  occ. eigenvalues --   -0.36410  -0.35309  -0.34940  -0.34536  -0.34248
 Alpha  occ. eigenvalues --   -0.33351  -0.32647  -0.32314  -0.31893  -0.30680
 Alpha  occ. eigenvalues --   -0.30510  -0.30203  -0.29434  -0.28722  -0.24150
 Alpha  occ. eigenvalues --   -0.20839  -0.18685  -0.18118  -0.17661  -0.10299
 Alpha virt. eigenvalues --   -0.00222   0.00565   0.01531   0.01775   0.02482
 Alpha virt. eigenvalues --    0.02645   0.02862   0.03432   0.03935   0.04115
 Alpha virt. eigenvalues --    0.04329   0.04522   0.05008   0.05233   0.06022

  Beta  occ. eigenvalues --  -19.00549 -19.00167 -14.26733 -10.19258 -10.15789
  Beta  occ. eigenvalues --  -10.15698 -10.14972 -10.14642 -10.14183 -10.14149
  Beta  occ. eigenvalues --  -10.13966 -10.13732 -10.12921 -10.12895 -10.11989
  Beta  occ. eigenvalues --  -10.10452 -10.10298  -0.92207  -0.91751  -0.87482
  Beta  occ. eigenvalues --   -0.79504  -0.77161  -0.73859  -0.68007  -0.67145
  Beta  occ. eigenvalues --   -0.66744  -0.66228  -0.65754  -0.62325  -0.56745
  Beta  occ. eigenvalues --   -0.53999  -0.51089  -0.49084  -0.45622  -0.44427
  Beta  occ. eigenvalues --   -0.43024  -0.42699  -0.42309  -0.41343  -0.41117
  Beta  occ. eigenvalues --   -0.40104  -0.39324  -0.37912  -0.37244  -0.36602
  Beta  occ. eigenvalues --   -0.36410  -0.35309  -0.34940  -0.34536  -0.34248
  Beta  occ. eigenvalues --   -0.33351  -0.32647  -0.32314  -0.31893  -0.30680
  Beta  occ. eigenvalues --   -0.30510  -0.30203  -0.29434  -0.28722  -0.24150
  Beta  occ. eigenvalues --   -0.20839  -0.18685  -0.18118  -0.17661  -0.10299
  Beta virt. eigenvalues --   -0.00222   0.00565   0.01531   0.01775   0.02482
  Beta virt. eigenvalues --    0.02645   0.02862   0.03432   0.03935   0.04115
  Beta virt. eigenvalues --    0.04329   0.04522   0.05008   0.05233   0.06022

 Mulliken charges and spin densities:
               1          2
     1  C   -1.137610   0.000000
     2  C    0.886740  -0.000000
     3  C   -0.540118   0.000000
     4  C   -0.554538   0.000000
     5  C    0.082240  -0.000000
     6  C    0.403287  -0.000000
     7  O   -0.650895   0.000000
     8  O   -0.746736  -0.000000
     9  N    0.055583  -0.000000
    10  C   -0.016409   0.000000
    11  C   -0.496207  -0.000000
    12  C   -0.547866  -0.000000
    13  C   -0.487738   0.000000
    14  H    0.123378  -0.000000
    15  H    0.255224   0.000000
    16  H    0.142093  -0.000000
    17  H    0.141762   0.000000
    18  H    0.135334  -0.000000
    19  H    0.145648   0.000000
    20  H    0.139547   0.000000
    21  H    0.129932  -0.000000
    22  H    0.146703   0.000000
    23  H    0.152710  -0.000000
    24  H    0.138660  -0.000000
    25  C    0.616158   0.000000
    26  C   -0.698642  -0.000000
    27  C   -0.482781   0.000000
    28  C   -0.711422   0.000000
    29  H    0.131155  -0.000000
    30  H    0.180261  -0.000000
    31  H    0.125417   0.000000
    32  H    0.119131  -0.000000
    33  H    0.122614   0.000000
    34  H    0.153185   0.000000
    35  H    0.124373   0.000000
    36  H    0.179350  -0.000000
    37  H    0.116435  -0.000000
    38  H    0.124042   0.000000
 Sum of Mulliken charges =  -2.00000  -0.00000

 Dipole moment (field-independent basis, Debye):
    X=             -3.8548    Y=            -10.4028    Z=              3.1787  Tot=             11.5404
 Quadrupole moment (field-independent basis, Debye-Ang):
   XX=           -129.1653   YY=           -187.2720   ZZ=           -123.2883
   XY=             -5.2723   XZ=             -3.6253   YZ=             -3.5596

 Normal termination of Gaussian 16 at Wed Jan 24 22:58:21 2024.
