 Q-Chem 5.4, Q-Chem, Inc., Pleasanton, CA (2021)
 Q-Chem 5.4.0 for Intel X86 EM64T Linux

User input:
--------------------------------------------------------------
$molecule
0 1
C                 -2.2584920000     -2.2169530000      5.0088080000
C                 -1.2824720000     -3.2329270000      4.5138500000
C                 -1.2504470000     -3.4481980000      3.1856690000
C                 -2.1163820000     -2.7482350000      2.1912630000
C                 -3.0577130000     -1.7655130000      2.6734900000
C                 -3.1386560000     -1.4848470000      4.0065260000
O                 -2.3895300000     -1.9395190000      6.1911290000
O                 -1.9961870000     -3.0368420000      1.0011370000
N                 -3.9450620000     -0.5757030000      4.5923210000
C                 -4.9253390000      0.2660050000      3.9105010000
C                 -6.2227860000     -0.5011670000      3.6127780000
C                 -5.1796560000      1.5162840000      4.7542810000
H                 -3.6779860000     -1.2775680000      1.9331240000
H                 -3.8754190000     -0.5366950000      5.6023990000
H                 -4.4754630000      0.5768220000      2.9607990000
H                 -6.9093160000      0.1214230000      3.0324380000
H                 -6.7212990000     -0.7855080000      4.5439610000
H                 -6.0234690000     -1.4102200000      3.0418530000
H                 -5.8954590000      2.1722170000      4.2543720000
H                 -4.2560590000      2.0763250000      4.9176490000
H                 -5.5995320000      1.2486770000      5.7297150000
C                 -0.3851010000     -3.9662480000      5.5202410000
C                 -1.2572970000     -4.7611530000      6.5232070000
C                  0.5483790000     -4.9627180000      4.8081680000
C                  0.4964430000     -2.9457350000      6.2818120000
H                 -0.5761300000     -4.1656670000      2.7359360000
H                 -1.9000490000     -4.1046930000      7.1080440000
H                 -0.6103210000     -5.3109040000      7.2131780000
H                 -1.8839300000     -5.4900040000      6.0006650000
H                  1.1717470000     -5.4636710000      5.5529200000
H                  1.2165990000     -4.4649290000      4.1000720000
H                 -0.0087770000     -5.7354200000      4.2713340000
H                 -0.1044660000     -2.2466330000      6.8617510000
H                  1.1217300000     -2.3772580000      5.5869760000
H                  1.1603750000     -3.4784550000      6.9690150000
$end

$rem
BASIS  =  6-311++G(d,p)
GUI  =  2
JOB_TYPE  =  SP
METHOD  =  B3LYP
SCF_CONVERGENCE  = 8
SOLVENT_METHOD = sm12
$end

$smx
solvent dimethylformamide
charges CM5
$end

--------------------------------------------------------------

             Standard Nuclear Orientation (Angstroms)
    I     Atom           X                Y                Z
 ----------------------------------------------------------------
    1      C      -2.2584920000    -2.2169530000     5.0088080000
    2      C      -1.2824720000    -3.2329270000     4.5138500000
    3      C      -1.2504470000    -3.4481980000     3.1856690000
    4      C      -2.1163820000    -2.7482350000     2.1912630000
    5      C      -3.0577130000    -1.7655130000     2.6734900000
    6      C      -3.1386560000    -1.4848470000     4.0065260000
    7      O      -2.3895300000    -1.9395190000     6.1911290000
    8      O      -1.9961870000    -3.0368420000     1.0011370000
    9      N      -3.9450620000    -0.5757030000     4.5923210000
   10      C      -4.9253390000     0.2660050000     3.9105010000
   11      C      -6.2227860000    -0.5011670000     3.6127780000
   12      C      -5.1796560000     1.5162840000     4.7542810000
   13      H      -3.6779860000    -1.2775680000     1.9331240000
   14      H      -3.8754190000    -0.5366950000     5.6023990000
   15      H      -4.4754630000     0.5768220000     2.9607990000
   16      H      -6.9093160000     0.1214230000     3.0324380000
   17      H      -6.7212990000    -0.7855080000     4.5439610000
   18      H      -6.0234690000    -1.4102200000     3.0418530000
   19      H      -5.8954590000     2.1722170000     4.2543720000
   20      H      -4.2560590000     2.0763250000     4.9176490000
   21      H      -5.5995320000     1.2486770000     5.7297150000
   22      C      -0.3851010000    -3.9662480000     5.5202410000
   23      C      -1.2572970000    -4.7611530000     6.5232070000
   24      C       0.5483790000    -4.9627180000     4.8081680000
   25      C       0.4964430000    -2.9457350000     6.2818120000
   26      H      -0.5761300000    -4.1656670000     2.7359360000
   27      H      -1.9000490000    -4.1046930000     7.1080440000
   28      H      -0.6103210000    -5.3109040000     7.2131780000
   29      H      -1.8839300000    -5.4900040000     6.0006650000
   30      H       1.1717470000    -5.4636710000     5.5529200000
   31      H       1.2165990000    -4.4649290000     4.1000720000
   32      H      -0.0087770000    -5.7354200000     4.2713340000
   33      H      -0.1044660000    -2.2466330000     6.8617510000
   34      H       1.1217300000    -2.3772580000     5.5869760000
   35      H       1.1603750000    -3.4784550000     6.9690150000
 ----------------------------------------------------------------

   15    -712.2212529069      9.42e-09  Convergence criterion met
 Total energy in the final basis set =     -712.2366088883

                    Orbital Energies (a.u.)
 --------------------------------------------------------------

 Alpha MOs
 -- Occupied --
-19.1441 -19.1089 -14.3504 -10.2911 -10.2608 -10.2461 -10.2211 -10.2108
-10.2023 -10.1998 -10.1730 -10.1635 -10.1621 -10.1606 -10.1601 -10.1600
 -1.0797  -1.0388  -0.9628  -0.8604  -0.8211  -0.7890  -0.7528  -0.6995
 -0.6941  -0.6901  -0.6851  -0.6444  -0.6100  -0.6007  -0.5485  -0.5328
 -0.5177  -0.4988  -0.4794  -0.4706  -0.4607  -0.4508  -0.4427  -0.4408
 -0.4345  -0.4238  -0.4114  -0.4072  -0.4067  -0.3924  -0.3886  -0.3827
 -0.3810  -0.3703  -0.3644  -0.3569  -0.3506  -0.3428  -0.3375  -0.3300
 -0.2915  -0.2847  -0.2622  -0.2302

          Ground-State Mulliken Net Atomic Charges

     Atom                 Charge (a.u.)
  ----------------------------------------
      1 C                    -1.332903
      2 C                     1.015673
      3 C                    -0.625231
      4 C                    -1.688373
      5 C                     0.542690
      6 C                     0.589805
      7 O                    -0.187163
      8 O                    -0.412824
      9 N                     0.011765
     10 C                     0.123718
     11 C                    -0.474656
     12 C                    -0.214003
     13 H                     0.168539
     14 H                     0.389107
     15 H                     0.182611
     16 H                     0.188262
     17 H                     0.133892
     18 H                     0.139614
     19 H                     0.200256
     20 H                     0.163138
     21 H                     0.163083
     22 C                     0.737331
     23 C                    -0.638214
     24 C                    -0.173566
     25 C                    -0.647076
     26 H                     0.226907
     27 H                     0.134043
     28 H                     0.184201
     29 H                     0.138365
     30 H                     0.216894
     31 H                     0.142824
     32 H                     0.143430
     33 H                     0.132356
     34 H                     0.141516
     35 H                     0.183988
  ----------------------------------------
  Sum of atomic charges =     0.000000

                    Cartesian Multipole Moments
 -----------------------------------------------------------------
    Charge (ESU x 10^10)
                -0.0000
    Dipole Moment (Debye)
         X      -1.9539      Y       2.4305      Z       3.6214
       Tot       4.7790
    Quadrupole Moments (Debye-Ang)
        XX     -78.0050     XY     -12.7642     YY     -99.5456
        XZ     -13.7518     YZ      -3.3954     ZZ     -88.4638

 Total job time:  924.33s(wall), 7259.40s(cpu)
        *  Thank you very much for using Q-Chem.  Have a nice day.  *
