 Gaussian 16, Revision A.03,
 Gaussian 16:  ES64L-G16RevA.03 25-Dec-2016

 --------------------------------------
 #P UB3LYP/6-311++G(d,p) nosym opt freq
 --------------------------------------

 --------
 Oxidized
 --------
 Symbolic Z-matrix:
 Charge =  0 Multiplicity = 1

 SCF Done:  E(UB3LYP) =  -712.222658567     A.U. after   16 cycles
 Optimization completed.
    -- Stationary point found.
 Normal termination of Gaussian 16 at Wed Jan 10 16:56:38 2024.

 ----------------------------------------------------------------------
 #P Geom=AllCheck Guess=TCheck SCRF=Check GenChk UB3LYP/6-311++G(d,p) F
 req
 ----------------------------------------------------------------------

 Structure from the checkpoint file:  "104.chk"
 --------
 Oxidized
 --------
 Charge =  0 Multiplicity = 1

                          Input orientation:
 ---------------------------------------------------------------------
 Center     Atomic      Atomic             Coordinates (Angstroms)
 Number     Number       Type             X           Y           Z
 ---------------------------------------------------------------------
      1          6           0       -2.258492   -2.216953    5.008808
      2          6           0       -1.282472   -3.232927    4.513850
      3          6           0       -1.250447   -3.448198    3.185669
      4          6           0       -2.116382   -2.748235    2.191263
      5          6           0       -3.057713   -1.765513    2.673490
      6          6           0       -3.138656   -1.484847    4.006526
      7          8           0       -2.389530   -1.939519    6.191129
      8          8           0       -1.996187   -3.036842    1.001137
      9          7           0       -3.945062   -0.575703    4.592321
     10          6           0       -4.925339    0.266005    3.910501
     11          6           0       -6.222786   -0.501167    3.612778
     12          6           0       -5.179656    1.516284    4.754281
     13          1           0       -3.677986   -1.277568    1.933124
     14          1           0       -3.875419   -0.536695    5.602399
     15          1           0       -4.475463    0.576822    2.960799
     16          1           0       -6.909316    0.121423    3.032438
     17          1           0       -6.721299   -0.785508    4.543961
     18          1           0       -6.023469   -1.410220    3.041853
     19          1           0       -5.895459    2.172217    4.254372
     20          1           0       -4.256059    2.076325    4.917649
     21          1           0       -5.599532    1.248677    5.729715
     22          6           0       -0.385101   -3.966248    5.520241
     23          6           0       -1.257297   -4.761153    6.523207
     24          6           0        0.548379   -4.962718    4.808168
     25          6           0        0.496443   -2.945735    6.281812
     26          1           0       -0.576130   -4.165667    2.735936
     27          1           0       -1.900049   -4.104693    7.108044
     28          1           0       -0.610321   -5.310904    7.213178
     29          1           0       -1.883930   -5.490004    6.000665
     30          1           0        1.171747   -5.463671    5.552920
     31          1           0        1.216599   -4.464929    4.100072
     32          1           0       -0.008777   -5.735420    4.271334
     33          1           0       -0.104466   -2.246633    6.861751
     34          1           0        1.121730   -2.377258    5.586976
     35          1           0        1.160375   -3.478455    6.969015
 ---------------------------------------------------------------------

 SCF Done:  E(UB3LYP) =  -712.222658567     A.U. after    1 cycles

 Alpha  occ. eigenvalues --  -19.14353 -19.10593 -14.35383 -10.29086 -10.25725
 Alpha  occ. eigenvalues --  -10.24679 -10.23538 -10.21059 -10.20485 -10.19893
 Alpha  occ. eigenvalues --  -10.18362 -10.17727 -10.17436 -10.16673 -10.16203
 Alpha  occ. eigenvalues --  -10.16202  -1.07944  -1.03452  -0.96792  -0.86118
 Alpha  occ. eigenvalues --   -0.82618  -0.79703  -0.75521  -0.71127  -0.70174
 Alpha  occ. eigenvalues --   -0.69208  -0.68847  -0.64948  -0.61255  -0.60802
 Alpha  occ. eigenvalues --   -0.55088  -0.53555  -0.52227  -0.49933  -0.48487
 Alpha  occ. eigenvalues --   -0.47657  -0.46794  -0.45774  -0.44715  -0.44216
 Alpha  occ. eigenvalues --   -0.43461  -0.43197  -0.41405  -0.41093  -0.40814
 Alpha  occ. eigenvalues --   -0.40317  -0.39542  -0.39193  -0.38750  -0.37959
 Alpha  occ. eigenvalues --   -0.37179  -0.36708  -0.35802  -0.34623  -0.34033
 Alpha  occ. eigenvalues --   -0.33666  -0.29002  -0.28479  -0.25653  -0.23220
 Alpha virt. eigenvalues --   -0.11836  -0.01723  -0.00981  -0.00685   0.00356
 Alpha virt. eigenvalues --    0.00809   0.01164   0.01351   0.01757   0.01950
 Alpha virt. eigenvalues --    0.02866   0.03256   0.03671   0.03895   0.04286

  Beta  occ. eigenvalues --  -19.14353 -19.10593 -14.35383 -10.29086 -10.25725
  Beta  occ. eigenvalues --  -10.24679 -10.23538 -10.21059 -10.20485 -10.19893
  Beta  occ. eigenvalues --  -10.18362 -10.17727 -10.17436 -10.16673 -10.16203
  Beta  occ. eigenvalues --  -10.16202  -1.07944  -1.03452  -0.96792  -0.86118
  Beta  occ. eigenvalues --   -0.82618  -0.79703  -0.75521  -0.71127  -0.70174
  Beta  occ. eigenvalues --   -0.69208  -0.68847  -0.64948  -0.61255  -0.60802
  Beta  occ. eigenvalues --   -0.55088  -0.53555  -0.52227  -0.49933  -0.48487
  Beta  occ. eigenvalues --   -0.47657  -0.46794  -0.45774  -0.44715  -0.44216
  Beta  occ. eigenvalues --   -0.43461  -0.43197  -0.41405  -0.41093  -0.40814
  Beta  occ. eigenvalues --   -0.40317  -0.39542  -0.39193  -0.38750  -0.37959
  Beta  occ. eigenvalues --   -0.37179  -0.36708  -0.35802  -0.34623  -0.34033
  Beta  occ. eigenvalues --   -0.33666  -0.29002  -0.28479  -0.25653  -0.23220
  Beta virt. eigenvalues --   -0.11836  -0.01723  -0.00981  -0.00685   0.00356
  Beta virt. eigenvalues --    0.00809   0.01164   0.01351   0.01757   0.01950
  Beta virt. eigenvalues --    0.02866   0.03256   0.03671   0.03895   0.04286

 Mulliken charges and spin densities:
               1          2
     1  C   -1.518476  -0.000000
     2  C    1.231287   0.000000
     3  C   -0.461314  -0.000000
     4  C   -0.607492  -0.000000
     5  C    1.100249   0.000000
     6  C   -0.251713  -0.000000
     7  O   -0.194442   0.000000
     8  O   -0.259593   0.000000
     9  N   -0.032792  -0.000000
    10  C   -0.062871  -0.000000
    11  C   -0.452334  -0.000000
    12  C   -0.521829   0.000000
    13  H    0.222714   0.000000
    14  H    0.343372   0.000000
    15  H    0.151575  -0.000000
    16  H    0.141432  -0.000000
    17  H    0.156861  -0.000000
    18  H    0.149437   0.000000
    19  H    0.161402  -0.000000
    20  H    0.159659  -0.000000
    21  H    0.142316  -0.000000
    22  C    0.507030  -0.000000
    23  C   -0.645550   0.000000
    24  C   -0.438312  -0.000000
    25  C   -0.654929   0.000000
    26  H    0.227120   0.000000
    27  H    0.191435   0.000000
    28  H    0.152575  -0.000000
    29  H    0.139293  -0.000000
    30  H    0.172129  -0.000000
    31  H    0.134466   0.000000
    32  H    0.134628  -0.000000
    33  H    0.188644   0.000000
    34  H    0.141152  -0.000000
    35  H    0.152870  -0.000000
 Sum of Mulliken charges =  -0.00000  -0.00000

 Dipole moment (field-independent basis, Debye):
    X=             -1.5525    Y=              1.8873    Z=              2.7939  Tot=              3.7119
 Quadrupole moment (field-independent basis, Debye-Ang):
   XX=            -82.0673   YY=            -99.2440   ZZ=            -93.2809
   XY=            -10.3215   XZ=            -10.4089   YZ=             -3.3251

  Exact polarizability: 168.369 -41.658 164.219  -0.064  12.909 196.363
 Approx polarizability: 218.961 -38.545 227.302 -27.105  53.688 378.814

                      1                      2                      3
                      A                      A                      A
 Frequencies --     34.2893                50.8535                63.2231
 Red. masses --      3.7883                 2.6879                 3.9899
 Frc consts  --      0.0026                 0.0041                 0.0094
 IR Inten    --      1.8241                 0.4197                 0.4498

                      4                      5                      6
                      A                      A                      A
 Frequencies --     83.3356               104.7519               138.2474
 Red. masses --      4.5722                 3.5449                 4.3218
 Frc consts  --      0.0187                 0.0229                 0.0487
 IR Inten    --      0.0677                 0.4112                 3.9781

                      7                      8                      9
                      A                      A                      A
 Frequencies --    171.7119               192.1798               214.4246
 Red. masses --      4.4086                 3.8055                 1.2464
 Frc consts  --      0.0766                 0.0828                 0.0338
 IR Inten    --      0.1376                 0.3974                 0.4510

                     10                     11                     12
                      A                      A                      A
 Frequencies --    225.1198               245.5764               254.8973
 Red. masses --      1.0292                 1.6542                 1.1444
 Frc consts  --      0.0307                 0.0588                 0.0438
 IR Inten    --      0.1266                 0.1973                 0.0226

                     13                     14                     15
                      A                      A                      A
 Frequencies --    262.6674               271.4455               279.9377
 Red. masses --      1.6079                 2.5009                 3.1032
 Frc consts  --      0.0654                 0.1086                 0.1433
 IR Inten    --      0.0371                 0.0043                 0.9775

                     16                     17                     18
                      A                      A                      A
 Frequencies --    326.9254               330.3058               354.3544
 Red. masses --      1.0621                 2.9079                 3.3477
 Frc consts  --      0.0669                 0.1869                 0.2477
 IR Inten    --      0.0381                 2.4112                 0.9291

                     19                     20                     21
                      A                      A                      A
 Frequencies --    375.9476               405.2238               416.0514
 Red. masses --      2.4394                 2.8315                 2.7287
 Frc consts  --      0.2031                 0.2739                 0.2783
 IR Inten    --      0.0911                 4.6899                 0.7163

                     22                     23                     24
                      A                      A                      A
 Frequencies --    424.8470               453.8915               466.1837
 Red. masses --      3.3733                 6.2903                 7.4544
 Frc consts  --      0.3587                 0.7635                 0.9545
 IR Inten    --      0.1307                32.3632                 6.1776

                     25                     26                     27
                      A                      A                      A
 Frequencies --    480.0581               517.9295               546.6498
 Red. masses --      3.1209                 2.9202                 1.4116
 Frc consts  --      0.4238                 0.4615                 0.2485
 IR Inten    --      9.8220                 2.4831                56.3387

                     28                     29                     30
                      A                      A                      A
 Frequencies --    585.3121               622.5427               690.1591
 Red. masses --      2.1330                 4.7450                 4.7640
 Frc consts  --      0.4305                 1.0835                 1.3370
 IR Inten    --      7.4563                 0.3692                 0.3648

                     31                     32                     33
                      A                      A                      A
 Frequencies --    696.3706               782.6738               790.8581
 Red. masses --      3.7323                 3.8506                 5.5794
 Frc consts  --      1.0664                 1.3898                 2.0561
 IR Inten    --      2.0256                 0.9289                 1.5272

                     34                     35                     36
                      A                      A                      A
 Frequencies --    817.2121               830.4399               850.5945
 Red. masses --      7.0937                 1.5740                 2.5133
 Frc consts  --      2.7912                 0.6396                 1.0714
 IR Inten    --      0.1020                27.6330                 6.2871

                     37                     38                     39
                      A                      A                      A
 Frequencies --    903.1360               925.2307               934.6314
 Red. masses --      2.7819                 1.8477                 1.6033
 Frc consts  --      1.3369                 0.9319                 0.8252
 IR Inten    --     22.6291                 4.6462                 1.0309

                     40                     41                     42
                      A                      A                      A
 Frequencies --    937.8769               940.6968               945.3812
 Red. masses --      1.4190                 1.4790                 1.7177
 Frc consts  --      0.7354                 0.7711                 0.9045
 IR Inten    --      2.3938                17.3874                 1.0195

                     43                     44                     45
                      A                      A                      A
 Frequencies --    961.7075               964.7831              1008.9445
 Red. masses --      1.7252                 1.1991                 2.3358
 Frc consts  --      0.9401                 0.6576                 1.4009
 IR Inten    --      2.9996                 0.0454                34.7050

                     46                     47                     48
                      A                      A                      A
 Frequencies --   1049.4405              1052.8650              1139.0288
 Red. masses --      1.3845                 1.4375                 2.1130
 Frc consts  --      0.8984                 0.9389                 1.6152
 IR Inten    --      0.0270                 1.4257                12.4749

                     49                     50                     51
                      A                      A                      A
 Frequencies --   1154.4926              1186.5046              1199.6625
 Red. masses --      2.1462                 1.9355                 2.3612
 Frc consts  --      1.6854                 1.6054                 2.0022
 IR Inten    --      5.9849                 3.6333               120.7220

                     52                     53                     54
                      A                      A                      A
 Frequencies --   1219.1984              1226.8184              1264.1276
 Red. masses --      2.6878                 2.6295                 2.0899
 Frc consts  --      2.3539                 2.3317                 1.9677
 IR Inten    --      3.0857                 1.2770                77.8951

                     55                     56                     57
                      A                      A                      A
 Frequencies --   1268.4800              1300.1396              1349.5182
 Red. masses --      2.4406                 1.8026                 2.0970
 Frc consts  --      2.3138                 1.7953                 2.2502
 IR Inten    --     56.2935                78.3192                16.5789

                     58                     59                     60
                      A                      A                      A
 Frequencies --   1358.5425              1359.6275              1388.1307
 Red. masses --      2.1549                 1.9747                 1.4322
 Frc consts  --      2.3433                 2.1507                 1.6260
 IR Inten    --     51.2585                42.5348                 5.3350

                     61                     62                     63
                      A                      A                      A
 Frequencies --   1393.4664              1398.6332              1402.3972
 Red. masses --      1.2009                 1.2380                 1.2474
 Frc consts  --      1.3739                 1.4269                 1.4454
 IR Inten    --      9.6687                17.1813                13.1443

                     64                     65                     66
                      A                      A                      A
 Frequencies --   1422.9019              1428.5758              1481.0626
 Red. masses --      1.2456                 1.2213                 1.0463
 Frc consts  --      1.4858                 1.4685                 1.3522
 IR Inten    --     16.1426                 7.2131                 0.0305

                     67                     68                     69
                      A                      A                      A
 Frequencies --   1487.7972              1488.6303              1495.6204
 Red. masses --      1.0528                 1.0436                 1.0476
 Frc consts  --      1.3730                 1.3626                 1.3807
 IR Inten    --      9.7626                 0.6027                 0.5000

                     70                     71                     72
                      A                      A                      A
 Frequencies --   1497.8482              1499.3460              1504.0458
 Red. masses --      1.0448                 1.0711                 1.0540
 Frc consts  --      1.3811                 1.4186                 1.4048
 IR Inten    --      0.4245                25.2998                14.8444

                     73                     74                     75
                      A                      A                      A
 Frequencies --   1510.2432              1512.1020              1529.1684
 Red. masses --      1.0521                 1.0493                 1.0600
 Frc consts  --      1.4138                 1.4136                 1.4604
 IR Inten    --     10.8236                 7.3507                16.7117

                     76                     77                     78
                      A                      A                      A
 Frequencies --   1545.0727              1630.0107              1668.3188
 Red. masses --      1.8052                 8.2570                10.8325
 Frc consts  --      2.5391                12.9257                17.7639
 IR Inten    --    244.1493               424.7668                 8.8977

                     79                     80                     81
                      A                      A                      A
 Frequencies --   1681.9889              1712.7355              3019.2364
 Red. masses --      7.6940                11.4300                 1.0766
 Frc consts  --     12.8247                19.7550                 5.7823
 IR Inten    --    345.0764               184.9105                 9.9411

                     82                     83                     84
                      A                      A                      A
 Frequencies --   3022.9355              3024.7667              3024.8792
 Red. masses --      1.0356                 1.0380                 1.0401
 Frc consts  --      5.5758                 5.5956                 5.6071
 IR Inten    --     13.6441                33.9876                16.3623

                     85                     86                     87
                      A                      A                      A
 Frequencies --   3030.1820              3030.9108              3080.8838
 Red. masses --      1.0404                 1.0384                 1.1022
 Frc consts  --      5.6286                 5.6203                 6.1642
 IR Inten    --     28.2108                27.6637                 7.9651

                     88                     89                     90
                      A                      A                      A
 Frequencies --   3082.3693              3088.4072              3090.8774
 Red. masses --      1.1017                 1.1001                 1.1022
 Frc consts  --      6.1673                 6.1820                 6.2041
 IR Inten    --     20.1909                 5.2219                31.8245

                     91                     92                     93
                      A                      A                      A
 Frequencies --   3094.0454              3095.7266              3106.3461
 Red. masses --      1.1008                 1.1009                 1.1017
 Frc consts  --      6.2091                 6.2159                 6.2633
 IR Inten    --     59.0891                41.6013                14.7561

                     94                     95                     96
                      A                      A                      A
 Frequencies --   3108.8532              3130.8869              3133.5189
 Red. masses --      1.1023                 1.0983                 1.0976
 Frc consts  --      6.2771                 6.3430                 6.3496
 IR Inten    --     29.5707                 0.1003                17.4595

                     97                     98                     99
                      A                      A                      A
 Frequencies --   3198.6172              3203.0831              3558.4097
 Red. masses --      1.0907                 1.0905                 1.0759
 Frc consts  --      6.5746                 6.5920                 8.0267
 IR Inten    --      9.0074                 1.5693                69.7524

 - Thermochemistry -
 -------------------
 Temperature   298.150 Kelvin.  Pressure   1.00000 Atm.
 Atom     1 has atomic number  6 and mass  12.00000

 Molecular mass:   221.14158 amu.
 Principal axes and moments of inertia in atomic units:
                           1         2         3
     Eigenvalues --  2135.646745667.446497118.25278
           X            0.73477  -0.04708   0.67668
           Y           -0.64984   0.23715   0.72213
           Z            0.19447   0.97033  -0.14366
 This molecule is an asymmetric top.
 Rotational symmetry number  1.
 Warning -- assumption of classical behavior for rotation
           may cause significant error
 Rotational temperatures (Kelvin)      0.04056     0.01528     0.01217
 Rotational constants (GHZ):           0.84506     0.31844     0.25354
 Zero-point vibrational energy     782423.9 (Joules/Mol)
                                  187.00380 (Kcal/Mol)
 Warning -- explicit consideration of  28 degrees of freedom as
           vibrations may cause significant error
 Vibrational temperatures:     49.33    73.17    90.96   119.90   150.71
          (Kelvin)            198.91   247.06   276.50   308.51   323.90
                              353.33   366.74   377.92   390.55   402.77
                              470.37   475.24   509.84   540.90   583.03
                              598.61   611.26   653.05   670.73   690.70
                              745.19   786.51   842.13   895.70   992.99
                             1001.92  1126.09  1137.87  1175.79  1194.82
                             1223.82  1299.41  1331.20  1344.73  1349.40
                             1353.45  1360.19  1383.68  1388.11  1451.65
                             1509.91  1514.84  1638.81  1661.06  1707.12
                             1726.05  1754.15  1765.12  1818.80  1825.06
                             1870.61  1941.66  1954.64  1956.20  1997.21
                             2004.89  2012.32  2017.74  2047.24  2055.40
                             2130.92  2140.61  2141.81  2151.86  2155.07
                             2157.22  2163.99  2172.90  2175.58  2200.13
                             2223.02  2345.22  2400.34  2420.01  2464.24
                             4344.01  4349.33  4351.96  4352.13  4359.76
                             4360.80  4432.70  4434.84  4443.53  4447.08
                             4451.64  4454.06  4469.34  4472.95  4504.65
                             4508.43  4602.10  4608.52  5119.76

 Zero-point correction=                           0.298010 (Hartree/Particle)
 Thermal correction to Energy=                    0.315257
 Thermal correction to Enthalpy=                  0.316201
 Thermal correction to Gibbs Free Energy=         0.253662
 Sum of electronic and zero-point Energies=           -711.924649
 Sum of electronic and thermal Energies=              -711.907402
 Sum of electronic and thermal Enthalpies=            -711.906458
 Sum of electronic and thermal Free Energies=         -711.968997

                     E (Thermal)             CV                S
                      KCal/Mol        Cal/Mol-Kelvin    Cal/Mol-Kelvin
 Total                  197.826             65.946            131.624
 Electronic               0.000              0.000              0.000
 Translational            0.889              2.981             42.084
 Rotational               0.889              2.981             32.821
 Vibrational            196.049             59.984             56.719
 Vibration     1          0.594              1.983              5.564
 Vibration     2          0.595              1.977              4.784
 Vibration     3          0.597              1.972              4.354
 Vibration     4          0.600              1.961              3.811
 Vibration     5          0.605              1.945              3.364
 Vibration     6          0.614              1.915              2.828
 Vibration     7          0.626              1.877              2.417
 Vibration     8          0.634              1.851              2.207
 Vibration     9          0.644              1.819              2.006
 Vibration    10          0.650              1.803              1.918
 Vibration    11          0.660              1.770              1.762
 Vibration    12          0.665              1.755              1.696
 Vibration    13          0.670              1.741              1.644
 Vibration    14          0.675              1.726              1.587
 Vibration    15          0.680              1.711              1.534
 Vibration    16          0.711              1.622              1.275
 Vibration    17          0.713              1.615              1.259
 Vibration    18          0.730              1.566              1.147
 Vibration    19          0.747              1.521              1.055
 Vibration    20          0.770              1.459              0.944
 Vibration    21          0.779              1.435              0.905
 Vibration    22          0.787              1.416              0.876
 Vibration    23          0.812              1.352              0.784
 Vibration    24          0.824              1.325              0.748
 Vibration    25          0.836              1.294              0.710
 Vibration    26          0.873              1.210              0.615
 Vibration    27          0.902              1.147              0.551
 Vibration    28          0.942              1.063              0.476

 Optimization completed.
    -- Stationary point found.
 Normal termination of Gaussian 16 at Wed Jan 10 18:44:54 2024.
