 Q-Chem 5.4, Q-Chem, Inc., Pleasanton, CA (2021)
 Q-Chem 5.4.0 for Intel X86 EM64T Linux

User input:
--------------------------------------------------------------
$molecule
-1 2
C                 -1.8263900000      3.1489940000      0.2471810000
C                 -2.9569260000      2.4399920000     -0.1141610000
C                 -2.8509500000      1.0839200000     -0.4844030000
C                 -0.5562670000      2.5324910000      0.2516320000
C                 -0.4470420000      1.1622330000     -0.1225220000
C                 -1.6117930000      0.4639340000     -0.4856490000
C                  0.6268750000      3.2752790000      0.6300900000
C                  1.8807750000      2.5581460000      0.6021210000
C                  2.0221440000      1.2317410000      0.2521790000
C                  0.8573150000      0.4652820000     -0.1366270000
O                  0.6433600000      4.5009380000      0.9817940000
O                  0.9389300000     -0.7451830000     -0.4714540000
H                 -1.8823840000      4.1925800000      0.5359050000
H                 -3.9277910000      2.9272950000     -0.1131230000
H                 -3.7394280000      0.5275860000     -0.7681590000
H                 -1.5005570000     -0.5773620000     -0.7663510000
C                  3.3705300000      0.5577210000      0.2462250000
O                  2.9511580000      3.3227930000      0.9670350000
C                  4.0625190000      0.6047020000     -1.1290430000
H                  3.2281550000     -0.4891190000      0.5293370000
H                  4.0170400000      1.0309810000      0.9913250000
H                  2.5249180000      4.1875200000      1.1586830000
H                  3.4407920000      0.1141590000     -1.8821510000
H                  5.0325270000      0.0931270000     -1.1009190000
H                  4.2333310000      1.6384990000     -1.4435040000
$end

$rem
BASIS  =  6-311++G(d,p)
GUI  =  2
JOB_TYPE  =  SP
METHOD  =  B3LYP
SCF_CONVERGENCE  = 8
SOLVENT_METHOD = sm12
$end

$smx
solvent dimethylformamide
charges CM5
$end

--------------------------------------------------------------

             Standard Nuclear Orientation (Angstroms)
    I     Atom           X                Y                Z
 ----------------------------------------------------------------
    1      C      -1.8263900000     3.1489940000     0.2471810000
    2      C      -2.9569260000     2.4399920000    -0.1141610000
    3      C      -2.8509500000     1.0839200000    -0.4844030000
    4      C      -0.5562670000     2.5324910000     0.2516320000
    5      C      -0.4470420000     1.1622330000    -0.1225220000
    6      C      -1.6117930000     0.4639340000    -0.4856490000
    7      C       0.6268750000     3.2752790000     0.6300900000
    8      C       1.8807750000     2.5581460000     0.6021210000
    9      C       2.0221440000     1.2317410000     0.2521790000
   10      C       0.8573150000     0.4652820000    -0.1366270000
   11      O       0.6433600000     4.5009380000     0.9817940000
   12      O       0.9389300000    -0.7451830000    -0.4714540000
   13      H      -1.8823840000     4.1925800000     0.5359050000
   14      H      -3.9277910000     2.9272950000    -0.1131230000
   15      H      -3.7394280000     0.5275860000    -0.7681590000
   16      H      -1.5005570000    -0.5773620000    -0.7663510000
   17      C       3.3705300000     0.5577210000     0.2462250000
   18      O       2.9511580000     3.3227930000     0.9670350000
   19      C       4.0625190000     0.6047020000    -1.1290430000
   20      H       3.2281550000    -0.4891190000     0.5293370000
   21      H       4.0170400000     1.0309810000     0.9913250000
   22      H       2.5249180000     4.1875200000     1.1586830000
   23      H       3.4407920000     0.1141590000    -1.8821510000
   24      H       5.0325270000     0.0931270000    -1.1009190000
   25      H       4.2333310000     1.6384990000    -1.4435040000
 ----------------------------------------------------------------

   18    -689.2444839240      9.82e-09  Convergence criterion met
 Total energy in the final basis set =     -689.3292563500

                    Orbital Energies (a.u.)
 --------------------------------------------------------------

 Alpha MOs
 -- Occupied --
-19.1459 -19.0874 -19.0748 -10.2259 -10.2256 -10.2230 -10.1825 -10.1815
-10.1812 -10.1797 -10.1793 -10.1783 -10.1698 -10.1669 -10.1632  -1.0655
 -1.0000  -0.9968  -0.8650  -0.8160  -0.7747  -0.7583  -0.7282  -0.6778
 -0.6411  -0.6208  -0.5907  -0.5748  -0.5425  -0.5092  -0.4882  -0.4680
 -0.4615  -0.4446  -0.4349  -0.4337  -0.4220  -0.4147  -0.3989  -0.3913
 -0.3860  -0.3831  -0.3686  -0.3595  -0.3516  -0.3465  -0.3392  -0.3373
 -0.2719  -0.2647  -0.2601  -0.2398  -0.2333  -0.1536

 Beta MOs
 -- Occupied --
-19.1454 -19.0807 -19.0692 -10.2248 -10.2246 -10.2203 -10.1825 -10.1812
-10.1803 -10.1792 -10.1788 -10.1779 -10.1699 -10.1661 -10.1631  -1.0634
 -0.9904  -0.9854  -0.8627  -0.8128  -0.7723  -0.7562  -0.7267  -0.6694
 -0.6395  -0.6189  -0.5887  -0.5723  -0.5409  -0.5070  -0.4856  -0.4664
 -0.4604  -0.4409  -0.4344  -0.4273  -0.4180  -0.4089  -0.3953  -0.3835
 -0.3809  -0.3802  -0.3665  -0.3518  -0.3459  -0.3394  -0.3356  -0.3280
 -0.2576  -0.2541  -0.2516  -0.2345  -0.2232

          Ground-State Mulliken Net Atomic Charges

     Atom                 Charge (a.u.)    Spin (a.u.)
  --------------------------------------------------------
      1 C                     0.282513       0.076956
      2 C                     0.882653       0.001553
      3 C                     0.812021       0.073472
      4 C                    -0.672042      -0.007647
      5 C                    -0.678173       0.088650
      6 C                    -0.176918      -0.004342
      7 C                    -1.352854       0.153234
      8 C                    -0.743583       0.054765
      9 C                     1.011329       0.037100
     10 C                    -1.884166       0.051432
     11 O                    -0.369014       0.249323
     12 O                    -0.309187       0.207697
     13 H                     0.182924      -0.003670
     14 H                     0.359363      -0.000542
     15 H                     0.344321      -0.005283
     16 H                     0.157942      -0.000000
     17 C                     0.416287       0.005008
     18 O                    -0.151033       0.016508
     19 C                    -0.244048       0.004583
     20 H                     0.144160       0.002024
     21 H                     0.193403      -0.000063
     22 H                     0.300519      -0.003486
     23 H                     0.134441      -0.001125
     24 H                     0.226723       0.002572
     25 H                     0.132420       0.001281
  --------------------------------------------------------
  Sum of atomic charges =    -1.000000

                    Cartesian Multipole Moments
 -----------------------------------------------------------------
    Charge (ESU x 10^10)
                -4.8032
    Dipole Moment (Debye)
         X      -4.3347      Y      -8.3618      Z      -0.9998
       Tot       9.4715
    Quadrupole Moments (Debye-Ang)
        XX    -103.1517     XY      -6.3188     YY    -133.5866
        XZ      -0.4426     YZ      -8.6929     ZZ     -97.0798

 Total job time:  587.13s(wall), 3930.77s(cpu)
        *  Thank you very much for using Q-Chem.  Have a nice day.  *
