 Gaussian 16, Revision A.03,
 Gaussian 16:  ES64L-G16RevA.03 25-Dec-2016

 ----------------------------------------------------------------------
 #P UB3LYP/6-311++G(d,p) nosym opt freq SCRF=(PCM,Solvent=n,n-DiMethylF
 ormamide)
 ----------------------------------------------------------------------

 --------
 Oxidized
 --------
 Symbolic Z-matrix:
 Charge =  0 Multiplicity = 1

 SCF Done:  E(UB3LYP) =  -799.734497756     A.U. after   14 cycles
 SCF Done:  E(UB3LYP) =  -799.734786286     A.U. after   12 cycles
 SCF Done:  E(UB3LYP) =  -799.734809958     A.U. after   11 cycles
 SCF Done:  E(UB3LYP) =  -799.734721424     A.U. after   12 cycles
 SCF Done:  E(UB3LYP) =  -799.734863629     A.U. after   12 cycles
 SCF Done:  E(UB3LYP) =  -799.734872435     A.U. after   10 cycles
 SCF Done:  E(UB3LYP) =  -799.734878828     A.U. after   10 cycles
 SCF Done:  E(UB3LYP) =  -799.734879640     A.U. after    9 cycles
 SCF Done:  E(UB3LYP) =  -799.734879768     A.U. after    8 cycles
 Optimization completed.
    -- Stationary point found.
 Normal termination of Gaussian 16 at Sat Feb 10 16:45:46 2024.

 ----------------------------------------------------------------------
 #P Geom=AllCheck Guess=TCheck SCRF=Check GenChk UB3LYP/6-311++G(d,p) F
 req
 ----------------------------------------------------------------------

 Structure from the checkpoint file:  "168.chk"
 --------
 Oxidized
 --------
 Charge =  0 Multiplicity = 1

                          Input orientation:
 ---------------------------------------------------------------------
 Center     Atomic      Atomic             Coordinates (Angstroms)
 Number     Number       Type             X           Y           Z
 ---------------------------------------------------------------------
      1          7           0       -5.018485   -0.746553   -0.447146
      2          6           0       -3.763364   -0.245380   -0.220148
      3          6           0       -3.586293    0.986888    0.447814
      4          6           0       -2.317018    1.462592    0.712462
      5          6           0       -1.172209    0.744492    0.331003
      6          6           0        0.163707    1.279552    0.629890
      7          8           0        0.322301    2.351866    1.212879
      8          6           0        1.344589    0.465214    0.197225
      9          6           0        2.618250    0.945898    0.467629
     10          6           0        3.763214    0.222060    0.083089
     11          7           0        5.018062    0.679847    0.390649
     12          6           0        3.586273   -1.009364   -0.586445
     13          6           0        2.317033   -1.483241   -0.854798
     14          6           0        1.172143   -0.765505   -0.472964
     15          6           0       -0.163818   -1.298548   -0.775643
     16          8           0       -0.322315   -2.368060   -1.363741
     17          6           0       -1.344738   -0.486511   -0.338732
     18          6           0       -2.618477   -0.968245   -0.606791
     19          1           0       -5.809401   -0.125385   -0.372195
     20          1           0       -5.127785   -1.499726   -1.108767
     21          1           0       -4.456509    1.557974    0.752084
     22          1           0       -2.189532    2.408888    1.223704
     23          1           0        2.719995    1.893641    0.982752
     24          1           0        5.810471    0.275957   -0.084813
     25          1           0        5.128912    1.645985    0.657698
     26          1           0        4.456407   -1.581358   -0.889401
     27          1           0        2.189731   -2.426899   -1.370939
     28          1           0       -2.721144   -1.916079   -1.121543
 ---------------------------------------------------------------------

 SCF Done:  E(UB3LYP) =  -799.734879768     A.U. after    1 cycles

 Alpha  occ. eigenvalues --  -19.11876 -19.11872 -14.33927 -14.33921 -10.27264
 Alpha  occ. eigenvalues --  -10.27260 -10.24316 -10.24314 -10.20440 -10.20439
 Alpha  occ. eigenvalues --  -10.19447 -10.19445 -10.19166 -10.19163 -10.18906
 Alpha  occ. eigenvalues --  -10.18903 -10.18826 -10.18825  -1.05117  -1.04923
 Alpha  occ. eigenvalues --   -0.94527  -0.94516  -0.87770  -0.86187  -0.79446
 Alpha  occ. eigenvalues --   -0.77456  -0.76741  -0.74929  -0.68340  -0.66527
 Alpha  occ. eigenvalues --   -0.63922  -0.62337  -0.58573  -0.57116  -0.55997
 Alpha  occ. eigenvalues --   -0.53835  -0.52447  -0.52309  -0.49308  -0.48387
 Alpha  occ. eigenvalues --   -0.46834  -0.45191  -0.44842  -0.44771  -0.44424
 Alpha  occ. eigenvalues --   -0.43547  -0.43441  -0.41908  -0.40980  -0.40720
 Alpha  occ. eigenvalues --   -0.39543  -0.38805  -0.37294  -0.35962  -0.33481
 Alpha  occ. eigenvalues --   -0.32533  -0.28054  -0.27901  -0.27419  -0.26817
 Alpha  occ. eigenvalues --   -0.23543  -0.22443
 Alpha virt. eigenvalues --   -0.10814  -0.06527  -0.02037  -0.01989  -0.00843
 Alpha virt. eigenvalues --   -0.00376   0.00850   0.01027   0.01828   0.03153
 Alpha virt. eigenvalues --    0.03636   0.03731   0.03758   0.03955   0.05204

  Beta  occ. eigenvalues --  -19.11876 -19.11872 -14.33927 -14.33921 -10.27264
  Beta  occ. eigenvalues --  -10.27260 -10.24316 -10.24314 -10.20440 -10.20439
  Beta  occ. eigenvalues --  -10.19447 -10.19445 -10.19166 -10.19163 -10.18906
  Beta  occ. eigenvalues --  -10.18903 -10.18826 -10.18825  -1.05117  -1.04923
  Beta  occ. eigenvalues --   -0.94527  -0.94516  -0.87770  -0.86187  -0.79446
  Beta  occ. eigenvalues --   -0.77456  -0.76741  -0.74929  -0.68340  -0.66527
  Beta  occ. eigenvalues --   -0.63922  -0.62337  -0.58573  -0.57116  -0.55997
  Beta  occ. eigenvalues --   -0.53835  -0.52447  -0.52309  -0.49308  -0.48387
  Beta  occ. eigenvalues --   -0.46834  -0.45191  -0.44842  -0.44771  -0.44424
  Beta  occ. eigenvalues --   -0.43547  -0.43441  -0.41908  -0.40980  -0.40720
  Beta  occ. eigenvalues --   -0.39543  -0.38805  -0.37294  -0.35962  -0.33481
  Beta  occ. eigenvalues --   -0.32533  -0.28054  -0.27901  -0.27419  -0.26817
  Beta  occ. eigenvalues --   -0.23543  -0.22443
  Beta virt. eigenvalues --   -0.10814  -0.06527  -0.02037  -0.01989  -0.00843
  Beta virt. eigenvalues --   -0.00376   0.00850   0.01027   0.01828   0.03153
  Beta virt. eigenvalues --    0.03636   0.03731   0.03758   0.03955   0.05204

 Mulliken charges and spin densities:
               1          2
     1  N   -0.329174   0.000000
     2  C   -0.523197  -0.000000
     3  C   -0.063785   0.000000
     4  C    0.217436   0.000000
     5  C    0.205202   0.000000
     6  C   -0.779578  -0.000000
     7  O   -0.314125   0.000000
     8  C    0.478500  -0.000000
     9  C   -0.036882  -0.000000
    10  C   -0.525442  -0.000000
    11  N   -0.328532   0.000000
    12  C   -0.062683   0.000000
    13  C    0.216677  -0.000000
    14  C    0.203013  -0.000000
    15  C   -0.779464  -0.000000
    16  O   -0.314073   0.000000
    17  C    0.479576   0.000000
    18  C   -0.037143   0.000000
    19  H    0.293048   0.000000
    20  H    0.289590  -0.000000
    21  H    0.207261   0.000000
    22  H    0.184984   0.000000
    23  H    0.172334   0.000000
    24  H    0.292692   0.000000
    25  H    0.289277  -0.000000
    26  H    0.207242   0.000000
    27  H    0.184986  -0.000000
    28  H    0.172260   0.000000
 Sum of Mulliken charges =  -0.00000   0.00000

 Dipole moment (field-independent basis, Debye):
    X=             -0.0072    Y=              0.7690    Z=             -1.4302  Tot=              1.6238
 Quadrupole moment (field-independent basis, Debye-Ang):
   XX=            -32.2015   YY=           -114.4600   ZZ=           -110.6025
   XY=              2.8139   XZ=              1.9171   YZ=             -2.9568

  Exact polarizability: 482.593  44.699 266.072  26.641  76.421 167.738
 Approx polarizability: 519.532  68.193 341.237  39.537 105.835 205.159

                      1                      2                      3
                      A                      A                      A
 Frequencies --     34.4239                87.1396                97.6397
 Red. masses --      7.0213                 4.4194                 5.8011
 Frc consts  --      0.0049                 0.0198                 0.0326
 IR Inten    --     17.1132                 0.1550                 0.7511

                      4                      5                      6
                      A                      A                      A
 Frequencies --    139.7706               168.8123               171.8417
 Red. masses --      6.2805                 4.7792                 4.9202
 Frc consts  --      0.0723                 0.0802                 0.0856
 IR Inten    --      0.3656                 8.0483                 1.6192

                      7                      8                      9
                      A                      A                      A
 Frequencies --    242.0781               260.2728               290.1662
 Red. masses --      5.5260                 4.5144                 4.6321
 Frc consts  --      0.1908                 0.1802                 0.2298
 IR Inten    --      1.0253                16.8134                15.3341

                     10                     11                     12
                      A                      A                      A
 Frequencies --    314.7690               341.4626               352.4657
 Red. masses --      6.6229                 1.3251                 1.3291
 Frc consts  --      0.3866                 0.0910                 0.0973
 IR Inten    --     31.1822               893.8057               587.6343

                     13                     14                     15
                      A                      A                      A
 Frequencies --    372.7598               389.5839               399.1722
 Red. masses --      6.8791                 5.1983                 3.6856
 Frc consts  --      0.5632                 0.4649                 0.3460
 IR Inten    --     25.2928                 0.5162                 7.9325

                     16                     17                     18
                      A                      A                      A
 Frequencies --    418.0148               420.0826               430.9491
 Red. masses --      1.1820                 1.0945                 2.4734
 Frc consts  --      0.1217                 0.1138                 0.2706
 IR Inten    --      4.6597                28.8342                 0.4379

                     19                     20                     21
                      A                      A                      A
 Frequencies --    449.3542               450.1032               477.1867
 Red. masses --      4.2012                 3.1417                10.1568
 Frc consts  --      0.4998                 0.3750                 1.3627
 IR Inten    --      1.3097                 2.1358                 1.2702

                     22                     23                     24
                      A                      A                      A
 Frequencies --    523.8906               560.0502               578.6553
 Red. masses --      6.5500                 5.6806                 3.5498
 Frc consts  --      1.0592                 1.0498                 0.7003
 IR Inten    --      7.1417                39.0498                32.3149

                     25                     26                     27
                      A                      A                      A
 Frequencies --    653.4098               669.3352               685.6870
 Red. masses --      6.5094                 6.5796                 3.2871
 Frc consts  --      1.6374                 1.7368                 0.9106
 IR Inten    --      0.3306                19.3825                 1.5780

                     28                     29                     30
                      A                      A                      A
 Frequencies --    704.2653               716.3483               737.4935
 Red. masses --      6.8502                 3.7748                 6.5296
 Frc consts  --      2.0018                 1.1413                 2.0924
 IR Inten    --      0.0128                 7.9156                36.7251

                     31                     32                     33
                      A                      A                      A
 Frequencies --    765.3933               782.2765               825.5938
 Red. masses --      7.0835                 4.5360                 5.9178
 Frc consts  --      2.4449                 1.6355                 2.3765
 IR Inten    --     65.1059                 0.1008                 0.0151

                     34                     35                     36
                      A                      A                      A
 Frequencies --    848.4195               849.3026               890.7965
 Red. masses --      1.5463                 1.6291                 6.6913
 Frc consts  --      0.6558                 0.6924                 3.1284
 IR Inten    --     41.3621                12.1925               102.8328

                     37                     38                     39
                      A                      A                      A
 Frequencies --    902.4941               904.3373               984.3294
 Red. masses --      1.5085                 1.5368                 3.7192
 Frc consts  --      0.7239                 0.7405                 2.1232
 IR Inten    --      6.6611                40.6319                 0.0802

                     40                     41                     42
                      A                      A                      A
 Frequencies --    991.1424               993.1932              1008.7506
 Red. masses --      1.3205                 1.3402                 2.3609
 Frc consts  --      0.7643                 0.7789                 1.4154
 IR Inten    --      0.0341                 2.5805                52.7247

                     43                     44                     45
                      A                      A                      A
 Frequencies --   1073.5057              1080.1744              1106.5694
 Red. masses --      1.5546                 1.5356                 2.9657
 Frc consts  --      1.0556                 1.0557                 2.1396
 IR Inten    --      0.4410                34.2924               112.7908

                     46                     47                     48
                      A                      A                      A
 Frequencies --   1137.1468              1168.6528              1178.0739
 Red. masses --      1.7325                 1.6427                 1.4047
 Frc consts  --      1.3200                 1.3218                 1.1486
 IR Inten    --      0.1431                 0.2951               158.5772

                     49                     50                     51
                      A                      A                      A
 Frequencies --   1241.3833              1263.9732              1294.1039
 Red. masses --      1.5948                 1.6823                 4.3954
 Frc consts  --      1.4480                 1.5836                 4.3370
 IR Inten    --      0.1653               153.2350                 0.1821

                     52                     53                     54
                      A                      A                      A
 Frequencies --   1303.1418              1342.9305              1352.6919
 Red. masses --      3.2549                 3.2933                 2.2774
 Frc consts  --      3.2567                 3.4993                 2.4552
 IR Inten    --   1568.9524              1472.9812                 0.0587

                     55                     56                     57
                      A                      A                      A
 Frequencies --   1370.0801              1384.5673              1474.3646
 Red. masses --      5.8311                 6.9227                 3.6956
 Frc consts  --      6.4490                 7.8190                 4.7331
 IR Inten    --     97.2774                 0.1053                93.4893

                     58                     59                     60
                      A                      A                      A
 Frequencies --   1487.0151              1519.0012              1527.5104
 Red. masses --      4.1316                 3.4459                 3.3093
 Frc consts  --      5.3827                 4.6846                 4.5494
 IR Inten    --      0.1213                 8.7703                 0.0968

                     61                     62                     63
                      A                      A                      A
 Frequencies --   1584.4933              1590.1418              1597.7267
 Red. masses --      6.5809                 7.0532                 6.1967
 Frc consts  --      9.7345                10.5077                 9.3200
 IR Inten    --    245.4257                 0.0213              2440.2524

                     64                     65                     66
                      A                      A                      A
 Frequencies --   1624.4152              1652.7646              1655.1158
 Red. masses --      5.7359                 1.2336                 1.2185
 Frc consts  --      8.9175                 1.9854                 1.9667
 IR Inten    --      0.9082               199.9428               249.2923

                     67                     68                     69
                      A                      A                      A
 Frequencies --   1665.4274              1687.0579              3170.8865
 Red. masses --      6.4199                 9.5814                 1.0898
 Frc consts  --     10.4914                16.0671                 6.4562
 IR Inten    --      1.2859               419.5289                16.9283

                     70                     71                     72
                      A                      A                      A
 Frequencies --   3172.9179              3186.4533              3188.1983
 Red. masses --      1.0895                 1.0903                 1.0901
 Frc consts  --      6.4624                 6.5222                 6.5284
 IR Inten    --     16.2324                14.3208                12.1552

                     73                     74                     75
                      A                      A                      A
 Frequencies --   3197.6259              3197.9406              3582.2934
 Red. masses --      1.0928                 1.0929                 1.0468
 Frc consts  --      6.5831                 6.5851                 7.9148
 IR Inten    --     21.1048                 1.9142               213.4042

                     76                     77                     78
                      A                      A                      A
 Frequencies --   3583.3133              3689.7915              3691.1738
 Red. masses --      1.0468                 1.1030                 1.1030
 Frc consts  --      7.9190                 8.8478                 8.8545
 IR Inten    --    168.4200                60.6646                61.9613

 - Thermochemistry -
 -------------------
 Temperature   298.150 Kelvin.  Pressure   1.00000 Atm.
 Atom     1 has atomic number  7 and mass  14.00307

 Molecular mass:   238.07423 amu.
 Principal axes and moments of inertia in atomic units:
                           1         2         3
     Eigenvalues --  1752.116086840.324238591.05954
           X            0.99928  -0.03737  -0.00577
           Y            0.03007   0.87800  -0.47772
           Z            0.02291   0.47721   0.87849
 This molecule is an asymmetric top.
 Rotational symmetry number  1.
 Warning -- assumption of classical behavior for rotation
           may cause significant error
 Rotational temperatures (Kelvin)      0.04943     0.01266     0.01008
 Rotational constants (GHZ):           1.03004     0.26384     0.21007
 Zero-point vibrational energy     555700.3 (Joules/Mol)
                                  132.81556 (Kcal/Mol)
 Warning -- explicit consideration of  24 degrees of freedom as
           vibrations may cause significant error
 Vibrational temperatures:     49.53   125.37   140.48   201.10   242.88
          (Kelvin)            247.24   348.30   374.47   417.48   452.88
                              491.29   507.12   536.32   560.52   574.32
                              601.43   604.41   620.04   646.52   647.60
                              686.57   753.76   805.79   832.56   940.11
                              963.02   986.55  1013.28  1030.67  1061.09
                             1101.23  1125.52  1187.85  1220.69  1221.96
                             1281.66  1298.49  1301.14  1416.23  1426.03
                             1428.98  1451.37  1544.54  1554.13  1592.11
                             1636.10  1681.43  1694.99  1786.07  1818.58
                             1861.93  1874.93  1932.18  1946.22  1971.24
                             1992.08  2121.28  2139.48  2185.50  2197.75
                             2279.73  2287.86  2298.77  2337.17  2377.96
                             2381.34  2396.18  2427.30  4562.20  4565.12
                             4584.60  4587.11  4600.67  4601.12  5154.12
                             5155.59  5308.79  5310.78

 Zero-point correction=                           0.211655 (Hartree/Particle)
 Thermal correction to Energy=                    0.226074
 Thermal correction to Enthalpy=                  0.227018
 Thermal correction to Gibbs Free Energy=         0.170806
 Sum of electronic and zero-point Energies=           -799.523225
 Sum of electronic and thermal Energies=              -799.508806
 Sum of electronic and thermal Enthalpies=            -799.507862
 Sum of electronic and thermal Free Energies=         -799.564073

                     E (Thermal)             CV                S
                      KCal/Mol        Cal/Mol-Kelvin    Cal/Mol-Kelvin
 Total                  141.864             58.317            118.307
 Electronic               0.000              0.000              0.000
 Translational            0.889              2.981             42.304
 Rotational               0.889              2.981             32.998
 Vibrational            140.086             52.355             43.006
 Vibration     1          0.594              1.983              5.557
 Vibration     2          0.601              1.958              3.723
 Vibration     3          0.603              1.951              3.501
 Vibration     4          0.615              1.914              2.807
 Vibration     5          0.625              1.881              2.449
 Vibration     6          0.626              1.877              2.415
 Vibration     7          0.658              1.776              1.788
 Vibration     8          0.668              1.745              1.660
 Vibration     9          0.686              1.692              1.473
 Vibration    10          0.702              1.645              1.337
 Vibration    11          0.721              1.593              1.205
 Vibration    12          0.729              1.570              1.155
 Vibration    13          0.744              1.528              1.068
 Vibration    14          0.758              1.492              1.002
 Vibration    15          0.765              1.472              0.966
 Vibration    16          0.781              1.431              0.899
 Vibration    17          0.783              1.427              0.892
 Vibration    18          0.792              1.403              0.856
 Vibration    19          0.808              1.362              0.798
 Vibration    20          0.809              1.361              0.795
 Vibration    21          0.834              1.301              0.718
 Vibration    22          0.879              1.197              0.601
 Vibration    23          0.916              1.118              0.524
 Vibration    24          0.935              1.077              0.488

 Optimization completed.
    -- Stationary point found.
 Normal termination of Gaussian 16 at Sat Feb 10 17:59:12 2024.
