 Q-Chem 5.4, Q-Chem, Inc., Pleasanton, CA (2021)
 Q-Chem 5.4.0 for Intel X86 EM64T Linux

User input:
--------------------------------------------------------------
$molecule
-1 2
C                  4.8622850000     -2.8569540000     -0.3600190000
C                  5.5926090000     -1.9624130000     -1.1152680000
C                  5.0057840000     -0.7476230000     -1.5313360000
C                  3.5266920000     -2.5758870000      0.0057570000
C                  2.9350200000     -1.3560370000     -0.4120180000
C                  3.7018910000     -0.4557290000     -1.1821770000
C                  2.7796990000     -3.5265930000      0.8065650000
C                  1.4143420000     -3.1943860000      1.1529750000
C                  0.7935380000     -1.9736540000      0.7135530000
C                  1.5545590000     -1.0052610000     -0.0684480000
C                  0.6800710000     -4.1086700000      1.9655180000
C                 -0.6230030000     -3.8137890000      2.3362000000
C                 -0.5709940000     -1.6975300000      1.0737270000
C                 -1.2152370000     -2.6326260000      1.8876400000
O                  3.3237140000     -4.6195680000      1.1943080000
O                  1.0842740000      0.1077480000     -0.4486390000
O                  1.2307960000     -5.2652250000      2.3960730000
Br                -3.0427490000     -2.2942850000      2.4464800000
N                 -1.2179600000     -0.5789340000      0.5938100000
H                  5.2872040000     -3.7956900000     -0.0253750000
H                  6.6179220000     -2.1911630000     -1.3898460000
H                  5.5803940000     -0.0439550000     -2.1259620000
H                  3.2275600000      0.4689700000     -1.4879380000
H                 -1.1638280000     -4.5091410000      2.9639710000
H                  2.1666310000     -5.2571910000      2.0150360000
H                 -0.5862960000      0.1022030000      0.1721350000
H                 -2.0186440000     -0.2597910000      1.1146990000
$end

$rem
BASIS  =  6-311++G(d,p)
GUI  =  2
JOB_TYPE  =  SP
METHOD  =  B3LYP
SCF_CONVERGENCE  = 8
SOLVENT_METHOD = sm12
$end

$smx
solvent dimethylformamide
charges CM5
$end

--------------------------------------------------------------

             Standard Nuclear Orientation (Angstroms)
    I     Atom           X                Y                Z
 ----------------------------------------------------------------
    1      C       4.8622850000    -2.8569540000    -0.3600190000
    2      C       5.5926090000    -1.9624130000    -1.1152680000
    3      C       5.0057840000    -0.7476230000    -1.5313360000
    4      C       3.5266920000    -2.5758870000     0.0057570000
    5      C       2.9350200000    -1.3560370000    -0.4120180000
    6      C       3.7018910000    -0.4557290000    -1.1821770000
    7      C       2.7796990000    -3.5265930000     0.8065650000
    8      C       1.4143420000    -3.1943860000     1.1529750000
    9      C       0.7935380000    -1.9736540000     0.7135530000
   10      C       1.5545590000    -1.0052610000    -0.0684480000
   11      C       0.6800710000    -4.1086700000     1.9655180000
   12      C      -0.6230030000    -3.8137890000     2.3362000000
   13      C      -0.5709940000    -1.6975300000     1.0737270000
   14      C      -1.2152370000    -2.6326260000     1.8876400000
   15      O       3.3237140000    -4.6195680000     1.1943080000
   16      O       1.0842740000     0.1077480000    -0.4486390000
   17      O       1.2307960000    -5.2652250000     2.3960730000
   18      Br     -3.0427490000    -2.2942850000     2.4464800000
   19      N      -1.2179600000    -0.5789340000     0.5938100000
   20      H       5.2872040000    -3.7956900000    -0.0253750000
   21      H       6.6179220000    -2.1911630000    -1.3898460000
   22      H       5.5803940000    -0.0439550000    -2.1259620000
   23      H       3.2275600000     0.4689700000    -1.4879380000
   24      H      -1.1638280000    -4.5091410000     2.9639710000
   25      H       2.1666310000    -5.2571910000     2.0150360000
   26      H      -0.5862960000     0.1022030000     0.1721350000
   27      H      -2.0186440000    -0.2597910000     1.1146990000
 ----------------------------------------------------------------

   18   -3393.2066058324      7.82e-09  Convergence criterion met
 Total energy in the final basis set =    -3393.2900711900

                    Orbital Energies (a.u.)
 --------------------------------------------------------------

 Alpha MOs
 -- Occupied --
******** -62.4885 -56.3089 -56.3052 -56.3051 -19.1297 -19.0927 -19.0860
-14.3147 -10.2382 -10.2379 -10.2373 -10.2309 -10.2294 -10.1891 -10.1853
-10.1843 -10.1842 -10.1838 -10.1837 -10.1821 -10.1813 -10.1806  -8.6970
 -6.5279  -6.5157  -6.5155  -2.6388  -2.6354  -2.6351  -2.6255  -2.6254
 -1.0550  -1.0137  -1.0076  -0.9287  -0.8700  -0.8529  -0.8187  -0.7810
 -0.7620  -0.7461  -0.7306  -0.6778  -0.6463  -0.6354  -0.6005  -0.5794
 -0.5590  -0.5347  -0.5243  -0.5098  -0.4857  -0.4742  -0.4647  -0.4576
 -0.4430  -0.4348  -0.4321  -0.4254  -0.4163  -0.4115  -0.4049  -0.3992
 -0.3839  -0.3682  -0.3655  -0.3619  -0.3576  -0.3472  -0.3160  -0.2997
 -0.2958  -0.2708  -0.2665  -0.2612  -0.2550  -0.2486  -0.2104  -0.1485

 Beta MOs
 -- Occupied --
******** -62.4885 -56.3089 -56.3052 -56.3051 -19.1292 -19.0877 -19.0810
-14.3142 -10.2374 -10.2369 -10.2352 -10.2307 -10.2279 -10.1889 -10.1853
-10.1840 -10.1835 -10.1832 -10.1829 -10.1811 -10.1811 -10.1807  -8.6970
 -6.5279  -6.5157  -6.5154  -2.6388  -2.6355  -2.6351  -2.6255  -2.6254
 -1.0530  -1.0054  -0.9995  -0.9271  -0.8679  -0.8511  -0.8166  -0.7785
 -0.7599  -0.7442  -0.7281  -0.6716  -0.6442  -0.6333  -0.5995  -0.5777
 -0.5572  -0.5332  -0.5232  -0.5084  -0.4829  -0.4731  -0.4637  -0.4562
 -0.4349  -0.4344  -0.4306  -0.4222  -0.4133  -0.4091  -0.3971  -0.3884
 -0.3821  -0.3653  -0.3605  -0.3536  -0.3486  -0.3459  -0.3123  -0.2995
 -0.2873  -0.2602  -0.2571  -0.2568  -0.2493  -0.2443  -0.1994

          Ground-State Mulliken Net Atomic Charges

     Atom                 Charge (a.u.)    Spin (a.u.)
  --------------------------------------------------------
      1 C                     0.174178       0.043693
      2 C                     0.783215       0.019857
      3 C                     0.905555       0.047939
      4 C                    -0.497733       0.012165
      5 C                    -0.814614       0.038029
      6 C                     0.240252       0.014244
      7 C                    -1.439897       0.113916
      8 C                    -0.379825      -0.004612
      9 C                    -0.411813       0.026609
     10 C                    -1.125737       0.065697
     11 C                    -0.746517       0.047879
     12 C                     0.424364       0.073223
     13 C                    -0.566402       0.021229
     14 C                     1.127611       0.090612
     15 O                    -0.349668       0.180723
     16 O                    -0.293259       0.183181
     17 O                    -0.339548       0.018209
     18 Br                    0.214863       0.004532
     19 N                    -0.161163       0.024169
     20 H                     0.196871      -0.001426
     21 H                     0.354773      -0.001815
     22 H                     0.355946      -0.003596
     23 H                     0.183639      -0.000243
     24 H                     0.244206      -0.006323
     25 H                     0.337500      -0.004112
     26 H                     0.308362      -0.002671
     27 H                     0.274841      -0.001109
  --------------------------------------------------------
  Sum of atomic charges =    -1.000000

                    Cartesian Multipole Moments
 -----------------------------------------------------------------
    Charge (ESU x 10^10)
                -4.8032
    Dipole Moment (Debye)
         X      -6.7703      Y      13.4641      Z      -3.9551
       Tot      15.5809
    Quadrupole Moments (Debye-Ang)
        XX    -150.2202     XY      22.6105     YY    -185.6225
        XZ      -5.9495     YZ      21.1948     ZZ    -139.0582

 Total job time:  810.07s(wall), 6227.89s(cpu)
        *  Thank you very much for using Q-Chem.  Have a nice day.  *
