 Gaussian 16, Revision A.03,
 Gaussian 16:  ES64L-G16RevA.03 25-Dec-2016

 --------------------------------------
 #P UB3LYP/6-311++G(d,p) nosym opt freq
 --------------------------------------

 -------
 Radical
 -------
 Symbolic Z-matrix:
 Charge = -1 Multiplicity = 2

 SCF Done:  E(UB3LYP) =  -3393.21129773     A.U. after   22 cycles
 SCF Done:  E(UB3LYP) =  -3393.21130015     A.U. after   11 cycles
 SCF Done:  E(UB3LYP) =  -3393.21130853     A.U. after   12 cycles
 SCF Done:  E(UB3LYP) =  -3393.21081437     A.U. after   19 cycles
 SCF Done:  E(UB3LYP) =  -3393.21136004     A.U. after   15 cycles
 SCF Done:  E(UB3LYP) =  -3393.21142148     A.U. after   17 cycles
 SCF Done:  E(UB3LYP) =  -3393.21143463     A.U. after   13 cycles
 SCF Done:  E(UB3LYP) =  -3393.21151809     A.U. after   16 cycles
 SCF Done:  E(UB3LYP) =  -3393.21153885     A.U. after   16 cycles
 SCF Done:  E(UB3LYP) =  -3393.21157032     A.U. after   16 cycles
 SCF Done:  E(UB3LYP) =  -3393.21153098     A.U. after   17 cycles
 SCF Done:  E(UB3LYP) =  -3393.21132125     A.U. after   17 cycles
 SCF Done:  E(UB3LYP) =  -3393.21184409     A.U. after   16 cycles
 SCF Done:  E(UB3LYP) =  -3393.21180356     A.U. after   14 cycles
 SCF Done:  E(UB3LYP) =  -3393.21180876     A.U. after   12 cycles
 SCF Done:  E(UB3LYP) =  -3393.21180869     A.U. after   11 cycles
 Optimization completed.
    -- Stationary point found.
 Normal termination of Gaussian 16 at Sun Jan 14 02:34:24 2024.

 ----------------------------------------------------------------------
 #P Geom=AllCheck Guess=TCheck SCRF=Check GenChk UB3LYP/6-311++G(d,p) F
 req
 ----------------------------------------------------------------------

 Structure from the checkpoint file:  "183-rad.chk"
 -------
 Radical
 -------
 Charge = -1 Multiplicity = 2

                          Input orientation:
 ---------------------------------------------------------------------
 Center     Atomic      Atomic             Coordinates (Angstroms)
 Number     Number       Type             X           Y           Z
 ---------------------------------------------------------------------
      1          6           0        4.862285   -2.856954   -0.360019
      2          6           0        5.592609   -1.962413   -1.115268
      3          6           0        5.005784   -0.747623   -1.531336
      4          6           0        3.526692   -2.575887    0.005757
      5          6           0        2.935020   -1.356037   -0.412018
      6          6           0        3.701891   -0.455729   -1.182177
      7          6           0        2.779699   -3.526593    0.806565
      8          6           0        1.414342   -3.194386    1.152975
      9          6           0        0.793538   -1.973654    0.713553
     10          6           0        1.554559   -1.005261   -0.068448
     11          6           0        0.680071   -4.108670    1.965518
     12          6           0       -0.623003   -3.813789    2.336200
     13          6           0       -0.570994   -1.697530    1.073727
     14          6           0       -1.215237   -2.632626    1.887640
     15          8           0        3.323714   -4.619568    1.194308
     16          8           0        1.084274    0.107748   -0.448639
     17          8           0        1.230796   -5.265225    2.396073
     18         35           0       -3.042749   -2.294285    2.446480
     19          7           0       -1.217960   -0.578934    0.593810
     20          1           0        5.287204   -3.795690   -0.025375
     21          1           0        6.617922   -2.191163   -1.389846
     22          1           0        5.580394   -0.043955   -2.125962
     23          1           0        3.227560    0.468970   -1.487938
     24          1           0       -1.163828   -4.509141    2.963971
     25          1           0        2.166631   -5.257191    2.015036
     26          1           0       -0.586296    0.102203    0.172135
     27          1           0       -2.018644   -0.259791    1.114699
 ---------------------------------------------------------------------

 SCF Done:  E(UB3LYP) =  -3393.21180869     A.U. after    1 cycles

 Alpha  occ. eigenvalues -- -482.73002 -62.38291 -56.20299 -56.19951 -56.19942
 Alpha  occ. eigenvalues --  -19.00809 -18.97098 -18.96475 -14.19710 -10.11721
 Alpha  occ. eigenvalues --  -10.11717 -10.11587 -10.11414 -10.11211 -10.07111
 Alpha  occ. eigenvalues --  -10.07048 -10.06871 -10.06497 -10.06451 -10.06419
 Alpha  occ. eigenvalues --  -10.06408 -10.06382 -10.06349  -8.59259  -6.42313
 Alpha  occ. eigenvalues --   -6.41153  -6.41130  -2.53422  -2.53092  -2.53073
 Alpha  occ. eigenvalues --   -2.52152  -2.52150  -0.93344  -0.89237  -0.88560
 Alpha  occ. eigenvalues --   -0.81098  -0.75267  -0.73533  -0.70395  -0.66592
 Alpha  occ. eigenvalues --   -0.64496  -0.62885  -0.61245  -0.55894  -0.52872
 Alpha  occ. eigenvalues --   -0.51816  -0.48228  -0.46051  -0.44240  -0.41647
 Alpha  occ. eigenvalues --   -0.40774  -0.39112  -0.36765  -0.35653  -0.34892
 Alpha  occ. eigenvalues --   -0.34109  -0.32161  -0.31818  -0.31383  -0.30582
 Alpha  occ. eigenvalues --   -0.29696  -0.29378  -0.28515  -0.27891  -0.27098
 Alpha  occ. eigenvalues --   -0.24917  -0.24767  -0.24446  -0.24096  -0.22960
 Alpha  occ. eigenvalues --   -0.20671  -0.19682  -0.17623  -0.15405  -0.14918
 Alpha  occ. eigenvalues --   -0.13984  -0.13790  -0.12787  -0.09032  -0.02844
 Alpha virt. eigenvalues --    0.06187   0.07377   0.07654   0.08230   0.09476
 Alpha virt. eigenvalues --    0.09616   0.10468   0.11150   0.11961   0.12569
 Alpha virt. eigenvalues --    0.13052   0.13222   0.13776   0.14828   0.14939

  Beta  occ. eigenvalues -- -482.73002 -62.38291 -56.20300 -56.19949 -56.19942
  Beta  occ. eigenvalues --  -19.00759 -18.96592 -18.95970 -14.19674 -10.11687
  Beta  occ. eigenvalues --  -10.11583 -10.11378 -10.11272 -10.11193 -10.07077
  Beta  occ. eigenvalues --  -10.06987 -10.06836 -10.06483 -10.06430 -10.06413
  Beta  occ. eigenvalues --  -10.06365 -10.06311 -10.06241  -8.59258  -6.42316
  Beta  occ. eigenvalues --   -6.41151  -6.41127  -2.53424  -2.53093  -2.53072
  Beta  occ. eigenvalues --   -2.52149  -2.52147  -0.93152  -0.88390  -0.87740
  Beta  occ. eigenvalues --   -0.80959  -0.75054  -0.73365  -0.70218  -0.66310
  Beta  occ. eigenvalues --   -0.64299  -0.62693  -0.60999  -0.55258  -0.52668
  Beta  occ. eigenvalues --   -0.51598  -0.48139  -0.45884  -0.44057  -0.41502
  Beta  occ. eigenvalues --   -0.40682  -0.38971  -0.36475  -0.35539  -0.34788
  Beta  occ. eigenvalues --   -0.33983  -0.31785  -0.31421  -0.31166  -0.30324
  Beta  occ. eigenvalues --   -0.29433  -0.29035  -0.27777  -0.27129  -0.26687
  Beta  occ. eigenvalues --   -0.24760  -0.24336  -0.23509  -0.23088  -0.22795
  Beta  occ. eigenvalues --   -0.20324  -0.19661  -0.16863  -0.14300  -0.13790
  Beta  occ. eigenvalues --   -0.13557  -0.13199  -0.12349  -0.07973
  Beta virt. eigenvalues --    0.02562   0.07103   0.07457   0.07649   0.09268
  Beta virt. eigenvalues --    0.09499   0.09617   0.10469   0.11164   0.12449
  Beta virt. eigenvalues --    0.12578   0.13133   0.13242   0.13788   0.14858

 Mulliken charges and spin densities:
               1          2
     1  C    0.005177   0.034535
     2  C   -0.490511   0.023152
     3  C   -0.522621   0.051331
     4  C    0.266163   0.021391
     5  C    0.065889   0.044384
     6  C    0.099045   0.006685
     7  C   -0.367966   0.112800
     8  C    0.571619   0.004079
     9  C    0.533635   0.031274
    10  C   -0.381422   0.067619
    11  C   -0.430743   0.038490
    12  C    0.072509   0.082881
    13  C   -0.516981   0.012889
    14  C    0.171790   0.082288
    15  O   -0.422253   0.184973
    16  O   -0.370993   0.185470
    17  O   -0.369348   0.015958
    18  Br  -0.266747   0.002833
    19  N   -0.296628   0.018836
    20  H    0.163403  -0.001084
    21  H    0.127115  -0.002226
    22  H    0.127099  -0.004078
    23  H    0.163358   0.000072
    24  H    0.203107  -0.006804
    25  H    0.350252  -0.004089
    26  H    0.309154  -0.002617
    27  H    0.206899  -0.001044
 Sum of Mulliken charges =  -1.00000   1.00000

 Dipole moment (field-independent basis, Debye):
    X=             -6.5121    Y=             13.0746    Z=             -3.8685  Tot=             15.1102
 Quadrupole moment (field-independent basis, Debye-Ang):
   XX=           -159.2344   YY=           -183.7970   ZZ=           -140.7142
   XY=             20.3800   XZ=             -1.1165   YZ=             21.2745

  Exact polarizability: 361.093  -3.375 221.638 -95.493 -60.320 179.626
 Approx polarizability: 539.078 -32.237 415.778-122.437-119.258 289.195

                      1                      2                      3
                      A                      A                      A
 Frequencies --     37.2810                80.2706                97.1646
 Red. masses --      8.6067                 7.1375                 7.7753
 Frc consts  --      0.0070                 0.0271                 0.0432
 IR Inten    --      1.8182                 0.1489                 1.8591

                      4                      5                      6
                      A                      A                      A
 Frequencies --    138.7933               141.9959               158.5578
 Red. masses --      5.3082                10.6927                 7.7090
 Frc consts  --      0.0602                 0.1270                 0.1142
 IR Inten    --      0.0642                 0.9206                 0.2553

                      7                      8                      9
                      A                      A                      A
 Frequencies --    191.6368               217.3781               244.3051
 Red. masses --      7.7141                14.6255                 6.4713
 Frc consts  --      0.1669                 0.4072                 0.2276
 IR Inten    --      0.2808                 1.2747                 0.6420

                     10                     11                     12
                      A                      A                      A
 Frequencies --    262.9916               338.1544               348.8357
 Red. masses --      4.7352                 5.0675                 3.8587
 Frc consts  --      0.1930                 0.3414                 0.2767
 IR Inten    --      2.9631                10.9994                24.4215

                     13                     14                     15
                      A                      A                      A
 Frequencies --    364.3173               392.2787               404.3171
 Red. masses --      7.1906                 3.1354                 2.4383
 Frc consts  --      0.5623                 0.2843                 0.2348
 IR Inten    --      3.3704                50.4403                66.8077

                     16                     17                     18
                      A                      A                      A
 Frequencies --    420.7738               440.5696               442.8733
 Red. masses --      6.5222                 4.0460                 5.0965
 Frc consts  --      0.6804                 0.4627                 0.5890
 IR Inten    --      0.5873                11.2570                36.0374

                     19                     20                     21
                      A                      A                      A
 Frequencies --    467.6756               480.3708               500.7145
 Red. masses --      6.3725                 8.9208                 4.7662
 Frc consts  --      0.8212                 1.2128                 0.7040
 IR Inten    --     15.3941                16.5044                 7.3566

                     22                     23                     24
                      A                      A                      A
 Frequencies --    526.3989               540.1536               609.5373
 Red. masses --      5.8673                 7.6404                 4.1105
 Frc consts  --      0.9579                 1.3134                 0.8998
 IR Inten    --      6.5617                 4.6096                13.7994

                     25                     26                     27
                      A                      A                      A
 Frequencies --    634.9405               645.8283               668.5198
 Red. masses --      4.8139                 6.7754                 5.6992
 Frc consts  --      1.1434                 1.6650                 1.5007
 IR Inten    --     15.9742                 4.0941                 5.9005

                     28                     29                     30
                      A                      A                      A
 Frequencies --    704.0210               715.0092               726.6310
 Red. masses --      1.4942                 4.0763                 6.4387
 Frc consts  --      0.4364                 1.2278                 2.0030
 IR Inten    --     30.8066                 8.3057                23.7437

                     31                     32                     33
                      A                      A                      A
 Frequencies --    734.1681               779.8424               781.8315
 Red. masses --      2.1699                 4.0113                 2.7436
 Frc consts  --      0.6891                 1.4373                 0.9881
 IR Inten    --     87.4498                60.5190                18.1452

                     34                     35                     36
                      A                      A                      A
 Frequencies --    792.8320               825.7443               871.5288
 Red. masses --      3.9872                 1.5314                 1.4609
 Frc consts  --      1.4767                 0.6152                 0.6538
 IR Inten    --      2.3960                26.4887                 0.0342

                     37                     38                     39
                      A                      A                      A
 Frequencies --    891.5599               911.8282               943.1293
 Red. masses --      8.2494                 7.2613                 1.0545
 Frc consts  --      3.8635                 3.5571                 0.5526
 IR Inten    --     13.6775                23.2259                73.1413

                     40                     41                     42
                      A                      A                      A
 Frequencies --    982.2071               986.0654               987.2846
 Red. masses --      1.3370                 1.2872                 5.5104
 Frc consts  --      0.7599                 0.7374                 3.1646
 IR Inten    --      1.1610                 0.6873                33.3649

                     43                     44                     45
                      A                      A                      A
 Frequencies --   1035.3365              1070.0882              1111.6971
 Red. masses --      2.3920                 2.3553                 2.1568
 Frc consts  --      1.5107                 1.5891                 1.5705
 IR Inten    --     56.1968                55.9367                19.7781

                     46                     47                     48
                      A                      A                      A
 Frequencies --   1147.3692              1160.6198              1199.5254
 Red. masses --      1.6236                 1.7157                 2.0549
 Frc consts  --      1.2593                 1.3616                 1.7420
 IR Inten    --     11.7777                23.6363                 3.3185

                     49                     50                     51
                      A                      A                      A
 Frequencies --   1228.8737              1243.7746              1266.2171
 Red. masses --      2.0698                 2.4020                 2.6196
 Frc consts  --      1.8416                 2.1893                 2.4746
 IR Inten    --     64.3490                 5.0031                55.9050

                     52                     53                     54
                      A                      A                      A
 Frequencies --   1297.5348              1324.6911              1352.8219
 Red. masses --      4.3447                 4.1137                 4.4755
 Frc consts  --      4.3097                 4.2531                 4.8258
 IR Inten    --      5.5375               188.0948                59.4392

                     55                     56                     57
                      A                      A                      A
 Frequencies --   1363.8971              1387.1881              1394.0972
 Red. masses --     10.1708                 3.8061                 3.1296
 Frc consts  --     11.1473                 4.3152                 3.5837
 IR Inten    --      0.7400                20.7638               148.7725

                     58                     59                     60
                      A                      A                      A
 Frequencies --   1452.6696              1481.4590              1483.2755
 Red. masses --      4.6811                 3.7244                 2.5031
 Frc consts  --      5.8201                 4.8160                 3.2447
 IR Inten    --     81.4123               128.6089                42.4157

                     61                     62                     63
                      A                      A                      A
 Frequencies --   1521.5400              1537.4614              1564.3914
 Red. masses --      6.3078                 2.9968                 4.5331
 Frc consts  --      8.6038                 4.1737                 6.5364
 IR Inten    --    762.1649               187.3620                86.1156

                     64                     65                     66
                      A                      A                      A
 Frequencies --   1603.7500              1618.4993              1626.9743
 Red. masses --      1.5551                 3.7962                 4.9312
 Frc consts  --      2.3565                 5.8591                 7.6907
 IR Inten    --     57.7273                74.4083                 1.3708

                     67                     68                     69
                      A                      A                      A
 Frequencies --   1640.5900              2896.0989              3138.9445
 Red. masses --      2.9099                 1.0748                 1.0851
 Frc consts  --      4.6145                 5.3112                 6.2990
 IR Inten    --     45.6713               313.4290                16.9406

                     70                     71                     72
                      A                      A                      A
 Frequencies --   3157.6667              3189.5319              3191.9054
 Red. masses --      1.0916                 1.0915                 1.0927
 Frc consts  --      6.4126                 6.5422                 6.5590
 IR Inten    --     51.2448                 7.6816                27.6813

                     73                     74                     75
                      A                      A                      A
 Frequencies --   3203.0143              3383.1250              3649.8034
 Red. masses --      1.0907                 1.0619                 1.0874
 Frc consts  --      6.5931                 7.1609                 8.5343
 IR Inten    --      4.9734                83.5762                46.4971

 - Thermochemistry -
 -------------------
 Temperature   298.150 Kelvin.  Pressure   1.00000 Atm.
 Atom     1 has atomic number  6 and mass  12.00000

 Molecular mass:   316.96875 amu.
 Principal axes and moments of inertia in atomic units:
                           1         2         3
     Eigenvalues --  2704.43542********************
           X            0.91941  -0.22356   0.32357
           Y            0.05594   0.88869   0.45508
           Z           -0.38930  -0.40031   0.82958
 This molecule is an asymmetric top.
 Rotational symmetry number  1.
 Warning -- assumption of classical behavior for rotation
           may cause significant error
 Rotational temperatures (Kelvin)      0.03203     0.00830     0.00659
 Rotational constants (GHZ):           0.66733     0.17288     0.13735
 Zero-point vibrational energy     492590.8 (Joules/Mol)
                                  117.73202 (Kcal/Mol)
 Warning -- explicit consideration of  24 degrees of freedom as
           vibrations may cause significant error
 Vibrational temperatures:     53.64   115.49   139.80   199.69   204.30
          (Kelvin)            228.13   275.72   312.76   351.50   378.39
                              486.53   501.90   524.17   564.40   581.72
                              605.40   633.88   637.20   672.88   691.15
                              720.42   757.37   777.16   876.99   913.54
                              929.20   961.85  1012.93  1028.74  1045.46
                             1056.30  1122.02  1124.88  1140.71  1188.06
                             1253.94  1282.76  1311.92  1356.95  1413.18
                             1418.73  1420.48  1489.62  1539.62  1599.48
                             1650.81  1669.87  1725.85  1768.08  1789.51
                             1821.80  1866.86  1905.93  1946.41  1962.34
                             1995.85  2005.79  2090.07  2131.49  2134.10
                             2189.16  2212.06  2250.81  2307.44  2328.66
                             2340.85  2360.44  4166.84  4516.24  4543.18
                             4589.02  4592.44  4608.42  4867.56  5251.25

 Zero-point correction=                           0.187618 (Hartree/Particle)
 Thermal correction to Energy=                    0.202402
 Thermal correction to Enthalpy=                  0.203347
 Thermal correction to Gibbs Free Energy=         0.144587
 Sum of electronic and zero-point Energies=          -3393.024191
 Sum of electronic and thermal Energies=             -3393.009406
 Sum of electronic and thermal Enthalpies=           -3393.008462
 Sum of electronic and thermal Free Energies=        -3393.067222

                     E (Thermal)             CV                S
                      KCal/Mol        Cal/Mol-Kelvin    Cal/Mol-Kelvin
 Total                  127.009             59.099            123.671
 Electronic               0.000              0.000              1.377
 Translational            0.889              2.981             43.157
 Rotational               0.889              2.981             34.272
 Vibrational            125.232             53.137             44.865
 Vibration     1          0.594              1.982              5.399
 Vibration     2          0.600              1.963              3.884
 Vibration     3          0.603              1.951              3.510
 Vibration     4          0.614              1.915              2.820
 Vibration     5          0.615              1.911              2.777
 Vibration     6          0.621              1.893              2.567
 Vibration     7          0.634              1.851              2.212
 Vibration     8          0.646              1.815              1.981
 Vibration     9          0.660              1.772              1.771
 Vibration    10          0.670              1.741              1.642
 Vibration    11          0.718              1.599              1.221
 Vibration    12          0.726              1.578              1.171
 Vibration    13          0.738              1.546              1.104
 Vibration    14          0.760              1.487              0.991
 Vibration    15          0.770              1.461              0.947
 Vibration    16          0.783              1.425              0.889
 Vibration    17          0.800              1.382              0.825
 Vibration    18          0.803              1.377              0.818
 Vibration    19          0.825              1.322              0.744
 Vibration    20          0.837              1.294              0.709
 Vibration    21          0.856              1.248              0.656
 Vibration    22          0.881              1.192              0.595
 Vibration    23          0.895              1.161              0.565
 Vibration    24          0.969              1.012              0.434

                           ! Non-Optimized Parameters !
 Normal termination of Gaussian 16 at Sun Jan 14 03:10:19 2024.
