 Q-Chem 5.4, Q-Chem, Inc., Pleasanton, CA (2021)
 Q-Chem 5.4.0 for Intel X86 EM64T Linux

User input:
--------------------------------------------------------------
$molecule
-2 1
C                  3.2747680000     -0.2589260000     -0.0971430000
C                  1.7747490000     -0.3856300000     -0.1446260000
C                  0.9824080000      0.7772110000      0.1175080000
O                  1.5133120000      1.9282830000      0.3769920000
C                 -0.4607950000      0.5728020000      0.0715690000
C                 -1.3304280000      1.6541820000      0.3196480000
C                 -2.7118780000      1.5289050000      0.2904290000
C                 -3.2871480000      0.2593910000     -0.0031280000
C                 -2.4725350000     -0.8259650000     -0.2538010000
C                 -1.0512130000     -0.7289730000     -0.2303950000
C                 -0.2288430000     -1.8570700000     -0.4913850000
O                 -0.6257600000     -3.0889240000     -0.7747880000
C                  1.1653670000     -1.6147480000     -0.4341840000
O                  1.9095080000     -2.7559310000     -0.6975720000
H                  3.7503960000     -1.2323220000      0.0608660000
H                  3.5604870000      0.4371010000      0.6999290000
H                  3.6885580000      0.1647710000     -1.0288090000
H                 -0.8576910000      2.6079350000      0.5391610000
H                 -3.3499620000      2.3889980000      0.4888900000
H                 -4.3711410000      0.1457190000     -0.0302380000
H                 -2.8931730000     -1.8020070000     -0.4800190000
H                  1.1485730000     -3.3848760000     -0.8383270000
$end
$rem
MAX_SCF_CYCLES=200
BASIS  =  6-311++G(d,p)
GUI  =  2
JOB_TYPE  =  SP
METHOD  =  B3LYP
SOLVENT_METHOD = PCM
$end
$pcm
theory = CPCM
$end
$solvent
dielectric 37.219
opticaldielectric 1.43
$end

--------------------------------------------------------------

             Standard Nuclear Orientation (Angstroms)
    I     Atom           X                Y                Z
 ----------------------------------------------------------------
    1      C       3.2747680000    -0.2589260000    -0.0971430000
    2      C       1.7747490000    -0.3856300000    -0.1446260000
    3      C       0.9824080000     0.7772110000     0.1175080000
    4      O       1.5133120000     1.9282830000     0.3769920000
    5      C      -0.4607950000     0.5728020000     0.0715690000
    6      C      -1.3304280000     1.6541820000     0.3196480000
    7      C      -2.7118780000     1.5289050000     0.2904290000
    8      C      -3.2871480000     0.2593910000    -0.0031280000
    9      C      -2.4725350000    -0.8259650000    -0.2538010000
   10      C      -1.0512130000    -0.7289730000    -0.2303950000
   11      C      -0.2288430000    -1.8570700000    -0.4913850000
   12      O      -0.6257600000    -3.0889240000    -0.7747880000
   13      C       1.1653670000    -1.6147480000    -0.4341840000
   14      O       1.9095080000    -2.7559310000    -0.6975720000
   15      H       3.7503960000    -1.2323220000     0.0608660000
   16      H       3.5604870000     0.4371010000     0.6999290000
   17      H       3.6885580000     0.1647710000    -1.0288090000
   18      H      -0.8576910000     2.6079350000     0.5391610000
   19      H      -3.3499620000     2.3889980000     0.4888900000
   20      H      -4.3711410000     0.1457190000    -0.0302380000
   21      H      -2.8931730000    -1.8020070000    -0.4800190000
   22      H       1.1485730000    -3.3848760000    -0.8383270000
 ----------------------------------------------------------------

    9    -650.1027542399      4.42e-06  Convergence criterion met
 Total energy in the final basis set =     -650.1027542399

                    Orbital Energies (a.u.)
 --------------------------------------------------------------

 Alpha MOs
 -- Occupied --
-19.1108 -19.0304 -19.0226 -10.1793 -10.1755 -10.1638 -10.1495 -10.1459
-10.1457 -10.1451 -10.1405 -10.1396 -10.1358 -10.1297  -1.0223  -0.9366
 -0.9246  -0.8234  -0.7716  -0.7236  -0.7219  -0.6648  -0.6314  -0.5825
 -0.5637  -0.5339  -0.5020  -0.4708  -0.4473  -0.4261  -0.4221  -0.4035
 -0.4000  -0.3805  -0.3726  -0.3701  -0.3572  -0.3554  -0.3483  -0.3376
 -0.3140  -0.3126  -0.3006  -0.2964  -0.2306  -0.2259  -0.2197  -0.2015
 -0.1928  -0.1156

          Ground-State Mulliken Net Atomic Charges

     Atom                 Charge (a.u.)
  ----------------------------------------
      1 C                    -0.249676
      2 C                     1.334400
      3 C                    -0.443740
      4 O                    -0.701109
      5 C                     0.030282
      6 C                     0.075708
      7 C                    -0.481946
      8 C                    -0.308178
      9 C                    -0.187616
     10 C                     0.489049
     11 C                    -0.881926
     12 O                    -0.764793
     13 C                    -0.902542
     14 O                    -0.376512
     15 H                     0.157816
     16 H                     0.146838
     17 H                     0.152465
     18 H                     0.138536
     19 H                     0.169054
     20 H                     0.171497
     21 H                     0.142838
     22 H                     0.289555
  ----------------------------------------
  Sum of atomic charges =    -2.000000

                    Cartesian Multipole Moments
 -----------------------------------------------------------------
    Charge (ESU x 10^10)
                -9.6064
    Dipole Moment (Debye)
         X      -3.2211      Y       5.0327      Z       1.7792
       Tot       6.2345
    Quadrupole Moments (Debye-Ang)
        XX    -112.9512     XY      -9.9959     YY    -140.7074
        XZ      -2.0472     YZ     -11.3823     ZZ     -95.4009

 Total job time:  34.86s(wall), 207.23s(cpu)
        *  Thank you very much for using Q-Chem.  Have a nice day.  *
