 Gaussian 16, Revision A.03,
 Gaussian 16:  ES64L-G16RevA.03 25-Dec-2016

 --------------------------------------
 #P UB3LYP/6-311++G(d,p) nosym opt freq
 --------------------------------------

 -------
 Reduced
 -------
 Symbolic Z-matrix:
 Charge = -2 Multiplicity = 1

 SCF Done:  E(UB3LYP) =  -649.823940764     A.U. after   29 cycles
 SCF Done:  E(UB3LYP) =  -649.824034844     A.U. after   20 cycles
 SCF Done:  E(UB3LYP) =  -649.824035743     A.U. after   18 cycles
 SCF Done:  E(UB3LYP) =  -649.824036936     A.U. after   18 cycles
 SCF Done:  E(UB3LYP) =  -649.824041375     A.U. after   19 cycles
 SCF Done:  E(UB3LYP) =  -649.824056237     A.U. after   22 cycles
 SCF Done:  E(UB3LYP) =  -649.824064788     A.U. after   21 cycles
 SCF Done:  E(UB3LYP) =  -649.824073902     A.U. after   21 cycles
 SCF Done:  E(UB3LYP) =  -649.824094710     A.U. after   22 cycles
 SCF Done:  E(UB3LYP) =  -649.824137514     A.U. after   22 cycles
 SCF Done:  E(UB3LYP) =  -649.824141084     A.U. after   19 cycles
 SCF Done:  E(UB3LYP) =  -649.824142619     A.U. after   19 cycles
 SCF Done:  E(UB3LYP) =  -649.824142915     A.U. after   20 cycles
 SCF Done:  E(UB3LYP) =  -649.824142975     A.U. after   20 cycles
 SCF Done:  E(UB3LYP) =  -649.824143173     A.U. after   18 cycles
 SCF Done:  E(UB3LYP) =  -649.824143171     A.U. after   19 cycles
 SCF Done:  E(UB3LYP) =  -649.824143300     A.U. after   18 cycles
 SCF Done:  E(UB3LYP) =  -649.824143315     A.U. after   17 cycles
 Optimization completed.
    -- Stationary point found.
 Normal termination of Gaussian 16 at Fri Jan 19 04:23:43 2024.

 ----------------------------------------------------------------------
 #P Geom=AllCheck Guess=TCheck SCRF=Check GenChk UB3LYP/6-311++G(d,p) F
 req
 ----------------------------------------------------------------------

 Structure from the checkpoint file:  "281-an.chk"
 -------
 Reduced
 -------
 Charge = -2 Multiplicity = 1

                          Input orientation:
 ---------------------------------------------------------------------
 Center     Atomic      Atomic             Coordinates (Angstroms)
 Number     Number       Type             X           Y           Z
 ---------------------------------------------------------------------
      1          6           0        3.274768   -0.258926   -0.097143
      2          6           0        1.774749   -0.385630   -0.144626
      3          6           0        0.982408    0.777211    0.117508
      4          8           0        1.513312    1.928283    0.376992
      5          6           0       -0.460795    0.572802    0.071569
      6          6           0       -1.330428    1.654182    0.319648
      7          6           0       -2.711878    1.528905    0.290429
      8          6           0       -3.287148    0.259391   -0.003128
      9          6           0       -2.472535   -0.825965   -0.253801
     10          6           0       -1.051213   -0.728973   -0.230395
     11          6           0       -0.228843   -1.857070   -0.491385
     12          8           0       -0.625760   -3.088924   -0.774788
     13          6           0        1.165367   -1.614748   -0.434184
     14          8           0        1.909508   -2.755931   -0.697572
     15          1           0        3.750396   -1.232322    0.060866
     16          1           0        3.560487    0.437101    0.699929
     17          1           0        3.688558    0.164771   -1.028809
     18          1           0       -0.857691    2.607935    0.539161
     19          1           0       -3.349962    2.388998    0.488890
     20          1           0       -4.371141    0.145719   -0.030238
     21          1           0       -2.893173   -1.802007   -0.480019
     22          1           0        1.148573   -3.384876   -0.838327
 ---------------------------------------------------------------------

 SCF Done:  E(UB3LYP) =  -649.824143315     A.U. after    1 cycles

 Alpha  occ. eigenvalues --  -18.85498 -18.76332 -18.75615  -9.92308  -9.91595
 Alpha  occ. eigenvalues --   -9.90952  -9.90364  -9.90315  -9.90225  -9.89943
 Alpha  occ. eigenvalues --   -9.89862  -9.88312  -9.87936  -9.87441  -0.76486
 Alpha  occ. eigenvalues --   -0.66928  -0.65724  -0.57279  -0.51798  -0.47453
 Alpha  occ. eigenvalues --   -0.47303  -0.41590  -0.37786  -0.33262  -0.31458
 Alpha  occ. eigenvalues --   -0.28086  -0.25160  -0.22206  -0.19241  -0.18043
 Alpha  occ. eigenvalues --   -0.17126  -0.15517  -0.15157  -0.13180  -0.12312
 Alpha  occ. eigenvalues --   -0.11816  -0.10445  -0.09333  -0.09286  -0.08689
 Alpha  occ. eigenvalues --   -0.06097  -0.05275  -0.04466  -0.03591   0.02203
 Alpha  occ. eigenvalues --    0.03606   0.04855   0.06356   0.06728   0.14779
 Alpha virt. eigenvalues --    0.17074   0.18683   0.18739   0.21081   0.21320
 Alpha virt. eigenvalues --    0.21854   0.22840   0.23910   0.24265   0.26244
 Alpha virt. eigenvalues --    0.26818   0.26975   0.28393   0.28978   0.29145

  Beta  occ. eigenvalues --  -18.85498 -18.76332 -18.75615  -9.92308  -9.91595
  Beta  occ. eigenvalues --   -9.90952  -9.90364  -9.90315  -9.90225  -9.89943
  Beta  occ. eigenvalues --   -9.89862  -9.88312  -9.87936  -9.87441  -0.76486
  Beta  occ. eigenvalues --   -0.66928  -0.65724  -0.57279  -0.51798  -0.47453
  Beta  occ. eigenvalues --   -0.47303  -0.41590  -0.37786  -0.33262  -0.31458
  Beta  occ. eigenvalues --   -0.28086  -0.25160  -0.22206  -0.19241  -0.18043
  Beta  occ. eigenvalues --   -0.17126  -0.15517  -0.15157  -0.13180  -0.12312
  Beta  occ. eigenvalues --   -0.11816  -0.10445  -0.09333  -0.09286  -0.08689
  Beta  occ. eigenvalues --   -0.06097  -0.05275  -0.04466  -0.03591   0.02203
  Beta  occ. eigenvalues --    0.03606   0.04855   0.06356   0.06728   0.14779
  Beta virt. eigenvalues --    0.17074   0.18683   0.18739   0.21081   0.21320
  Beta virt. eigenvalues --    0.21854   0.22840   0.23910   0.24265   0.26244
  Beta virt. eigenvalues --    0.26818   0.26975   0.28393   0.28978   0.29145

 Mulliken charges and spin densities:
               1          2
     1  C   -0.327066   0.000000
     2  C    1.885590   0.000000
     3  C   -0.964838   0.000000
     4  O   -0.530178  -0.000000
     5  C    0.288301  -0.000000
     6  C    0.061210  -0.000000
     7  C   -0.375221   0.000000
     8  C   -0.167093   0.000000
     9  C   -0.262287  -0.000000
    10  C    0.838437   0.000000
    11  C   -1.447193  -0.000000
    12  O   -0.622173  -0.000000
    13  C   -0.966390  -0.000000
    14  O   -0.332911  -0.000000
    15  H    0.135123   0.000000
    16  H    0.140730   0.000000
    17  H    0.055960  -0.000000
    18  H    0.114039  -0.000000
    19  H    0.060574   0.000000
    20  H    0.061946  -0.000000
    21  H    0.111291   0.000000
    22  H    0.242151  -0.000000
 Sum of Mulliken charges =  -2.00000   0.00000

 Dipole moment (field-independent basis, Debye):
    X=             -1.1409    Y=              3.9878    Z=              1.6098  Tot=              4.4492
 Quadrupole moment (field-independent basis, Debye-Ang):
   XX=           -130.5927   YY=           -141.1416   ZZ=            -96.7593
   XY=             -4.6395   XZ=             -0.5494   YZ=            -11.0644

  Exact polarizability: 290.390 -18.646 209.885 -15.774  19.885 134.352
 Approx polarizability: 449.644 -42.902 359.536 -18.466  44.933 179.124

                      1                      2                      3
                      A                      A                      A
 Frequencies --     47.3830                89.2796               120.8966
 Red. masses --      1.0345                 5.3170                 3.9822
 Frc consts  --      0.0014                 0.0250                 0.0343
 IR Inten    --      0.6604                 5.5364                 0.0430

                      4                      5                      6
                      A                      A                      A
 Frequencies --    161.9068               175.1229               247.6413
 Red. masses --      5.2779                 7.8356                 4.4884
 Frc consts  --      0.0815                 0.1416                 0.1622
 IR Inten    --      0.0230                 2.6525                 7.0794

                      7                      8                      9
                      A                      A                      A
 Frequencies --    283.5145               298.6171               331.8304
 Red. masses --      3.2721                 5.0104                 5.7683
 Frc consts  --      0.1550                 0.2632                 0.3742
 IR Inten    --      2.6562                 0.1851                 6.9949

                     10                     11                     12
                      A                      A                      A
 Frequencies --    343.0848               356.6494               431.2710
 Red. masses --      7.9108                10.3190                 6.3517
 Frc consts  --      0.5486                 0.7733                 0.6960
 IR Inten    --      1.5807                 0.5038                 9.7404

                     13                     14                     15
                      A                      A                      A
 Frequencies --    437.5890               445.3931               482.2928
 Red. masses --      8.5722                 3.4458                 4.8222
 Frc consts  --      0.9671                 0.4027                 0.6609
 IR Inten    --      3.9066                 3.0898                 0.1972

                     16                     17                     18
                      A                      A                      A
 Frequencies --    516.3613               611.5295               657.6186
 Red. masses --     10.0103                 6.8789                 3.0896
 Frc consts  --      1.5725                 1.5157                 0.7872
 IR Inten    --      2.9514                28.7676                14.0800

                     19                     20                     21
                      A                      A                      A
 Frequencies --    660.9655               670.1602               699.6740
 Red. masses --      6.1861                 1.7782                 3.9510
 Frc consts  --      1.5923                 0.4705                 1.1396
 IR Inten    --      1.4863                60.7581                 0.1173

                     22                     23                     24
                      A                      A                      A
 Frequencies --    702.1798               740.8069               754.8447
 Red. masses --      5.5354                 2.9097                 1.8727
 Frc consts  --      1.6080                 0.9408                 0.6287
 IR Inten    --      1.2943                 9.3648                21.9827

                     25                     26                     27
                      A                      A                      A
 Frequencies --    822.9398               849.9734               919.3200
 Red. masses --      1.1480                 3.3866                 1.2125
 Frc consts  --      0.4581                 1.4415                 0.6038
 IR Inten    --     49.3123                35.9240                 1.8125

                     28                     29                     30
                      A                      A                      A
 Frequencies --    929.8683               934.0507               994.7715
 Red. masses --      6.4411                 1.3200                 2.8811
 Frc consts  --      3.2814                 0.6785                 1.6798
 IR Inten    --     39.2237                 1.4730                35.0805

                     31                     32                     33
                      A                      A                      A
 Frequencies --   1007.6921              1037.9870              1081.3387
 Red. masses --      2.1205                 1.4113                 2.8744
 Frc consts  --      1.2686                 0.8959                 1.9803
 IR Inten    --     70.0458                12.1962               194.4979

                     34                     35                     36
                      A                      A                      A
 Frequencies --   1090.5413              1119.7351              1157.7990
 Red. masses --      2.3606                 1.5142                 2.9080
 Frc consts  --      1.6541                 1.1186                 2.2967
 IR Inten    --     61.5292                26.3417                25.3454

                     37                     38                     39
                      A                      A                      A
 Frequencies --   1181.0904              1235.6868              1277.5542
 Red. masses --      2.1043                 2.7273                 2.7299
 Frc consts  --      1.7295                 2.4536                 2.6252
 IR Inten    --     47.6824               201.1360                69.9565

                     40                     41                     42
                      A                      A                      A
 Frequencies --   1323.2018              1360.9517              1370.9879
 Red. masses --      4.6965                 1.5017                 2.1713
 Frc consts  --      4.8448                 1.6388                 2.4045
 IR Inten    --    250.7303               119.7333               101.1004

                     43                     44                     45
                      A                      A                      A
 Frequencies --   1415.6896              1429.9032              1439.2003
 Red. masses --      3.5943                 3.5081                 3.6968
 Frc consts  --      4.2443                 4.2260                 4.5115
 IR Inten    --    656.3419               110.8566                26.7153

                     46                     47                     48
                      A                      A                      A
 Frequencies --   1460.5374              1467.4090              1487.5665
 Red. masses --      1.0853                 2.8691                 1.3323
 Frc consts  --      1.3640                 3.6400                 1.7370
 IR Inten    --     21.7056               145.6833                41.6996

                     49                     50                     51
                      A                      A                      A
 Frequencies --   1507.7909              1549.1825              1575.0336
 Red. masses --      2.8834                 3.9396                 4.2008
 Frc consts  --      3.8622                 5.5707                 6.1399
 IR Inten    --      3.1997                99.2571               139.5569

                     52                     53                     54
                      A                      A                      A
 Frequencies --   1612.5325              2913.1657              3003.9698
 Red. masses --      4.3874                 1.0683                 1.0615
 Frc consts  --      6.7217                 5.3415                 5.6435
 IR Inten    --     72.8957               454.0702               143.2430

                     55                     56                     57
                      A                      A                      A
 Frequencies --   3059.6207              3075.6202              3102.8739
 Red. masses --      1.1010                 1.0821                 1.0894
 Frc consts  --      6.0723                 6.0309                 6.1797
 IR Inten    --     31.4423                47.1935               116.6776

                     58                     59                     60
                      A                      A                      A
 Frequencies --   3143.3942              3146.7591              3224.5912
 Red. masses --      1.0899                 1.0912                 1.0639
 Frc consts  --      6.3453                 6.3665                 6.5175
 IR Inten    --     43.6874                48.3625               153.0054

 - Thermochemistry -
 -------------------
 Temperature   298.150 Kelvin.  Pressure   1.00000 Atm.
 Atom     1 has atomic number  6 and mass  12.00000

 Molecular mass:   188.04734 amu.
 Principal axes and moments of inertia in atomic units:
                           1         2         3
     Eigenvalues --  1698.174282700.836994387.95334
           X            0.90909   0.41661  -0.00176
           Y           -0.40630   0.88565  -0.22483
           Z           -0.09211   0.20511   0.97440
 This molecule is an asymmetric top.
 Rotational symmetry number  1.
 Warning -- assumption of classical behavior for rotation
           may cause significant error
 Rotational temperatures (Kelvin)      0.05100     0.03207     0.01974
 Rotational constants (GHZ):           1.06275     0.66822     0.41129
 Zero-point vibrational energy     416162.5 (Joules/Mol)
                                   99.46523 (Kcal/Mol)
 Warning -- explicit consideration of  17 degrees of freedom as
           vibrations may cause significant error
 Vibrational temperatures:     68.17   128.45   173.94   232.95   251.96
          (Kelvin)            356.30   407.91   429.64   477.43   493.62
                              513.14   620.50   629.59   640.82   693.91
                              742.93   879.85   946.17   950.98   964.21
                             1006.67  1010.28  1065.86  1086.05  1184.03
                             1222.92  1322.70  1337.87  1343.89  1431.25
                             1449.84  1493.43  1555.81  1569.05  1611.05
                             1665.81  1699.33  1777.88  1838.12  1903.79
                             1958.11  1972.55  2036.86  2057.31  2070.69
                             2101.39  2111.27  2140.28  2169.37  2228.93
                             2266.12  2320.07  4191.40  4322.04  4402.11
                             4425.13  4464.34  4522.64  4527.48  4639.47

 Zero-point correction=                           0.158508 (Hartree/Particle)
 Thermal correction to Energy=                    0.170147
 Thermal correction to Enthalpy=                  0.171091
 Thermal correction to Gibbs Free Energy=         0.120817
 Sum of electronic and zero-point Energies=           -649.665635
 Sum of electronic and thermal Energies=              -649.653997
 Sum of electronic and thermal Enthalpies=            -649.653052
 Sum of electronic and thermal Free Energies=         -649.703326

                     E (Thermal)             CV                S
                      KCal/Mol        Cal/Mol-Kelvin    Cal/Mol-Kelvin
 Total                  106.769             45.477            105.810
 Electronic               0.000              0.000              0.000
 Translational            0.889              2.981             41.600
 Rotational               0.889              2.981             31.376
 Vibrational            104.991             39.515             32.833
 Vibration     1          0.595              1.979              4.924
 Vibration     2          0.602              1.957              3.676
 Vibration     3          0.609              1.932              3.086
 Vibration     4          0.622              1.889              2.527
 Vibration     5          0.627              1.873              2.380
 Vibration     6          0.661              1.767              1.747
 Vibration     7          0.682              1.704              1.512
 Vibration     8          0.692              1.676              1.425
 Vibration     9          0.714              1.612              1.251
 Vibration    10          0.722              1.589              1.198
 Vibration    11          0.732              1.562              1.137
 Vibration    12          0.792              1.402              0.855
 Vibration    13          0.798              1.388              0.834
 Vibration    14          0.805              1.371              0.810
 Vibration    15          0.839              1.289              0.704
 Vibration    16          0.871              1.214              0.618
 Vibration    17          0.971              1.007              0.430

 Optimization completed.
    -- Stationary point found.
 Normal termination of Gaussian 16 at Fri Jan 19 04:36:32 2024.
