 Gaussian 16, Revision A.03,
 Gaussian 16:  ES64L-G16RevA.03 25-Dec-2016

 ----------------------------------------------------------------
 #P UB3LYP/6-311++G(d,p) SCRF=(PCM,Solvent=n,n-DiMethylFormamide)
 ----------------------------------------------------------------

 -------
 Reduced
 -------
 Symbolic Z-matrix:
 Charge = -2 Multiplicity = 1

                         Standard orientation:
 ---------------------------------------------------------------------
 Center     Atomic      Atomic             Coordinates (Angstroms)
 Number     Number       Type             X           Y           Z
 ---------------------------------------------------------------------
      1          6           0       -0.000222    1.472719    0.014516
      2          6           0       -1.215490    0.701680    0.015300
      3          6           0       -1.215253   -0.702044   -0.015247
      4          6           0        0.000226   -1.472716   -0.014537
      5          6           0        1.215486   -0.701682   -0.015365
      6          6           0        1.215248    0.702046    0.015181
      7          8           0       -0.000487    2.777644   -0.012838
      8          8           0        0.000498   -2.777635    0.013068
      9          6           0        2.514088    1.475829    0.006471
     10          6           0        2.514465   -1.475121   -0.006535
     11          6           0       -2.514476    1.475120    0.006482
     12          6           0       -2.514084   -1.475829   -0.006536
     13          1           0        3.236121    1.093332    0.740009
     14          1           0        2.292187    2.524391    0.220356
     15          1           0        3.026130    1.442035   -0.975906
     16          1           0        2.292899   -2.523580   -0.221345
     17          1           0        3.025899   -1.442234    0.976258
     18          1           0        3.236955   -1.091786   -0.739130
     19          1           0       -2.292820    2.523668    0.220763
     20          1           0       -3.236741    1.092142    0.739495
     21          1           0       -3.026223    1.441746   -0.976124
     22          1           0       -3.236373   -1.092898   -0.739588
     23          1           0       -3.025769   -1.442623    0.976054
     24          1           0       -2.292282   -2.524280   -0.221060
 ---------------------------------------------------------------------

 SCF Done:  E(UB3LYP) =  -539.115648190     A.U. after   16 cycles

 The electronic state is 1-A.
 Alpha  occ. eigenvalues --  -18.99847 -18.99846 -10.14750 -10.14749 -10.12817
 Alpha  occ. eigenvalues --  -10.12816 -10.12816 -10.12816 -10.11094 -10.11092
 Alpha  occ. eigenvalues --  -10.11043 -10.11043  -0.91119  -0.90753  -0.77524
 Alpha  occ. eigenvalues --   -0.74606  -0.68665  -0.68498  -0.65785  -0.59006
 Alpha  occ. eigenvalues --   -0.58867  -0.49851  -0.49035  -0.45227  -0.39986
 Alpha  occ. eigenvalues --   -0.39849  -0.38816  -0.37758  -0.36803  -0.36676
 Alpha  occ. eigenvalues --   -0.36265  -0.35594  -0.34941  -0.33507  -0.33434
 Alpha  occ. eigenvalues --   -0.32450  -0.31153  -0.28893  -0.28643  -0.28572
 Alpha  occ. eigenvalues --   -0.20264  -0.18435  -0.17954  -0.17204  -0.09985
 Alpha virt. eigenvalues --   -0.00240   0.00914   0.01713   0.03032   0.03140
 Alpha virt. eigenvalues --    0.03855   0.04060   0.04128   0.04766   0.05977
 Alpha virt. eigenvalues --    0.06058   0.06241   0.07230   0.07983   0.08028

  Beta  occ. eigenvalues --  -18.99847 -18.99846 -10.14750 -10.14749 -10.12817
  Beta  occ. eigenvalues --  -10.12816 -10.12816 -10.12816 -10.11094 -10.11092
  Beta  occ. eigenvalues --  -10.11043 -10.11043  -0.91119  -0.90753  -0.77524
  Beta  occ. eigenvalues --   -0.74606  -0.68665  -0.68498  -0.65785  -0.59006
  Beta  occ. eigenvalues --   -0.58867  -0.49851  -0.49035  -0.45227  -0.39986
  Beta  occ. eigenvalues --   -0.39849  -0.38816  -0.37758  -0.36803  -0.36676
  Beta  occ. eigenvalues --   -0.36265  -0.35594  -0.34941  -0.33507  -0.33434
  Beta  occ. eigenvalues --   -0.32450  -0.31153  -0.28893  -0.28643  -0.28572
  Beta  occ. eigenvalues --   -0.20264  -0.18435  -0.17954  -0.17204  -0.09985
  Beta virt. eigenvalues --   -0.00240   0.00914   0.01713   0.03032   0.03140
  Beta virt. eigenvalues --    0.03855   0.04060   0.04128   0.04766   0.05977
  Beta virt. eigenvalues --    0.06058   0.06241   0.07230   0.07983   0.08028

 Mulliken charges and spin densities:
               1          2
     1  C   -1.468903   0.000000
     2  C    0.741977   0.000000
     3  C    0.741945  -0.000000
     4  C   -1.468389   0.000000
     5  C    0.742538  -0.000000
     6  C    0.741379  -0.000000
     7  O   -0.724801  -0.000000
     8  O   -0.724801  -0.000000
     9  C   -0.561790  -0.000000
    10  C   -0.561952  -0.000000
    11  C   -0.561925  -0.000000
    12  C   -0.561816   0.000000
    13  H    0.122699   0.000000
    14  H    0.168093  -0.000000
    15  H    0.125874   0.000000
    16  H    0.168046  -0.000000
    17  H    0.125893   0.000000
    18  H    0.122662   0.000000
    19  H    0.168071  -0.000000
    20  H    0.122686   0.000000
    21  H    0.125882   0.000000
    22  H    0.122680  -0.000000
    23  H    0.125891   0.000000
    24  H    0.168062  -0.000000
 Sum of Mulliken charges =  -2.00000  -0.00000

 Dipole moment (field-independent basis, Debye):
    X=             -0.0001    Y=              0.0001    Z=             -0.0007  Tot=              0.0007
 Quadrupole moment (field-independent basis, Debye-Ang):
   XX=            -90.7058   YY=           -147.0483   ZZ=            -82.8514
   XY=              0.0101   XZ=             -0.0001   YZ=              0.3505

 Normal termination of Gaussian 16 at Sun Jan 21 07:49:29 2024.
