 Q-Chem 5.4, Q-Chem, Inc., Pleasanton, CA (2021)
 Q-Chem 5.4.0 for Intel X86 EM64T Linux

User input:
--------------------------------------------------------------
$molecule
-2 1
C                 -0.1302950000     -0.8155980000      1.5094200000
C                 -0.1832220000     -0.7484010000      0.0439470000
C                 -0.6759460000     -1.8550860000     -0.6909450000
C                 -1.1654430000     -3.0591970000     -0.1232170000
C                 -1.1085740000     -3.0939560000      1.3325800000
C                 -0.6284180000     -2.0576990000      2.0821920000
O                  0.3564290000      0.0802970000      2.2480760000
O                 -1.6423140000     -4.0489380000     -0.7906860000
C                  0.4679540000      0.3502140000     -0.6570120000
H                 -1.4814860000     -4.0007770000      1.8090700000
H                 -0.7463350000     -1.7775340000     -1.7731120000
H                 -0.6080870000     -2.1103920000      3.1693700000
C                  0.4230000000      1.7647350000     -0.3564350000
C                  1.2891040000      2.6652040000     -1.0298880000
C                  2.1231330000      2.2525320000     -2.0433500000
C                  2.1123510000      0.8925940000     -2.4314380000
C                  1.3048070000      0.0000540000     -1.7521400000
N                 -0.5602880000      2.3666740000      0.4671300000
O                 -0.5712730000      3.6427110000      0.5781150000
O                 -1.4129590000      1.6636960000      1.0370270000
H                  1.2417390000      3.7020400000     -0.7274640000
H                  2.7781740000      2.9670190000     -2.5357470000
H                  2.7705100000      0.5362380000     -3.2202330000
H                  1.3542830000     -1.0524800000     -2.0050320000
$end
$rem
MAX_SCF_CYCLES=200
BASIS  =  6-311++G(d,p)
GUI  =  2
JOB_TYPE  =  SP
METHOD  =  B3LYP
SOLVENT_METHOD = PCM
$end
$pcm
theory = CPCM
$end
$solvent
dielectric 37.219
opticaldielectric 1.43
$end

--------------------------------------------------------------

             Standard Nuclear Orientation (Angstroms)
    I     Atom           X                Y                Z
 ----------------------------------------------------------------
    1      C      -0.1302950000    -0.8155980000     1.5094200000
    2      C      -0.1832220000    -0.7484010000     0.0439470000
    3      C      -0.6759460000    -1.8550860000    -0.6909450000
    4      C      -1.1654430000    -3.0591970000    -0.1232170000
    5      C      -1.1085740000    -3.0939560000     1.3325800000
    6      C      -0.6284180000    -2.0576990000     2.0821920000
    7      O       0.3564290000     0.0802970000     2.2480760000
    8      O      -1.6423140000    -4.0489380000    -0.7906860000
    9      C       0.4679540000     0.3502140000    -0.6570120000
   10      H      -1.4814860000    -4.0007770000     1.8090700000
   11      H      -0.7463350000    -1.7775340000    -1.7731120000
   12      H      -0.6080870000    -2.1103920000     3.1693700000
   13      C       0.4230000000     1.7647350000    -0.3564350000
   14      C       1.2891040000     2.6652040000    -1.0298880000
   15      C       2.1231330000     2.2525320000    -2.0433500000
   16      C       2.1123510000     0.8925940000    -2.4314380000
   17      C       1.3048070000     0.0000540000    -1.7521400000
   18      N      -0.5602880000     2.3666740000     0.4671300000
   19      O      -0.5712730000     3.6427110000     0.5781150000
   20      O      -1.4129590000     1.6636960000     1.0370270000
   21      H       1.2417390000     3.7020400000    -0.7274640000
   22      H       2.7781740000     2.9670190000    -2.5357470000
   23      H       2.7705100000     0.5362380000    -3.2202330000
   24      H       1.3542830000    -1.0524800000    -2.0050320000
 ----------------------------------------------------------------

   10    -817.5175888915      5.69e-06  Convergence criterion met
 Total energy in the final basis set =     -817.5175888915

                    Orbital Energies (a.u.)
 --------------------------------------------------------------

 Alpha MOs
 -- Occupied --
-19.1218 -19.1090 -19.0528 -19.0353 -14.4969 -10.2112 -10.2021 -10.1885
-10.1884 -10.1717 -10.1710 -10.1690 -10.1678 -10.1562 -10.1471 -10.1434
-10.1280  -1.1730  -0.9985  -0.9751  -0.9501  -0.8631  -0.8001  -0.7861
 -0.7607  -0.7107  -0.6783  -0.6546  -0.6087  -0.5790  -0.5688  -0.5426
 -0.5168  -0.4932  -0.4868  -0.4781  -0.4544  -0.4468  -0.4392  -0.4319
 -0.4175  -0.4000  -0.3796  -0.3768  -0.3670  -0.3605  -0.3534  -0.3394
 -0.3350  -0.3335  -0.2929  -0.2855  -0.2676  -0.2596  -0.2563  -0.2435
 -0.2194  -0.2167  -0.2113  -0.1324

          Ground-State Mulliken Net Atomic Charges

     Atom                 Charge (a.u.)
  ----------------------------------------
      1 C                    -1.400428
      2 C                     1.658255
      3 C                    -0.603190
      4 C                    -0.188547
      5 C                    -0.166091
      6 C                     0.033986
      7 O                    -0.538778
      8 O                    -0.693849
      9 C                     1.323482
     10 H                     0.177389
     11 H                     0.168446
     12 H                     0.176958
     13 C                    -0.243465
     14 C                    -0.365115
     15 C                    -0.463006
     16 C                    -0.491282
     17 C                    -0.617897
     18 N                    -0.272385
     19 O                    -0.203740
     20 O                    -0.141552
     21 H                     0.251361
     22 H                     0.201555
     23 H                     0.199130
     24 H                     0.198762
  ----------------------------------------
  Sum of atomic charges =    -2.000000

                    Cartesian Multipole Moments
 -----------------------------------------------------------------
    Charge (ESU x 10^10)
                -9.6064
    Dipole Moment (Debye)
         X       8.8749      Y       6.0151      Z      -6.3314
       Tot      12.4512
    Quadrupole Moments (Debye-Ang)
        XX    -119.6176     XY     -14.1956     YY    -190.7542
        XZ      -7.3279     YZ     -21.3202     ZZ    -121.9534

 Total job time:  65.85s(wall), 322.10s(cpu)
        *  Thank you very much for using Q-Chem.  Have a nice day.  *
