 Q-Chem 5.4, Q-Chem, Inc., Pleasanton, CA (2021)
 Q-Chem 5.4.0 for Intel X86 EM64T Linux

User input:
--------------------------------------------------------------
$molecule
-2 1
C                 -2.0264270000      3.0455010000     -0.2542180000
C                 -2.9877060000      2.4984360000      0.5724990000
C                 -2.7075270000      1.3114580000      1.2983520000
C                 -0.7452180000      2.4511090000     -0.4055440000
C                 -0.4570400000      1.2425370000      0.3381110000
C                 -1.4623430000      0.7137520000      1.1694720000
C                  0.2375010000      3.0243900000     -1.2706590000
C                  1.4819640000      2.3348100000     -1.3337370000
C                  1.8034710000      1.1691270000     -0.6358940000
C                  0.8406800000      0.5656720000      0.2462570000
O                  0.0969650000      4.1037910000     -1.9944540000
O                  1.0917800000     -0.5021560000      0.9062740000
H                 -2.2200250000      3.9522940000     -0.8192100000
H                 -3.9611060000      2.9772800000      0.6679740000
H                 -3.4626350000      0.8763640000      1.9497990000
H                 -1.2143490000     -0.1933560000      1.7125420000
O                  2.3829280000      2.9371870000     -2.1876970000
H                  1.8293590000      3.7000460000     -2.4921770000
C                  3.1491900000      0.5096930000     -0.8005750000
C                  4.1839690000      0.9412060000      0.2634530000
C                  5.5255220000      0.1813940000      0.2264120000
C                  6.3886350000      0.5290760000      1.4492600000
C                  6.3126990000      0.4321560000     -1.0686630000
H                  3.5403410000      0.7286120000     -1.7997800000
H                  3.0059340000     -0.5740120000     -0.7084820000
H                  3.7239060000      0.7943880000      1.2462260000
H                  4.3773200000      2.0171920000      0.1580730000
H                  5.2959040000     -0.8927700000      0.2765940000
H                  7.3328220000     -0.0314810000      1.4597950000
H                  5.8568450000      0.3111610000      2.3816670000
H                  6.6426460000      1.5963440000      1.4554130000
H                  7.2666730000     -0.1103680000     -1.0706110000
H                  6.5372630000      1.4998490000     -1.1824880000
H                  5.7459390000      0.1202570000     -1.9499720000
$end

$rem
BASIS  =  6-311++G(d,p)
GUI  =  2
JOB_TYPE  =  SP
METHOD  =  B3LYP
SCF_CONVERGENCE  = 8
SOLVENT_METHOD = sm12
$end

$smx
solvent dimethylformamide
charges CM5
$end

--------------------------------------------------------------

             Standard Nuclear Orientation (Angstroms)
    I     Atom           X                Y                Z
 ----------------------------------------------------------------
    1      C      -2.0264270000     3.0455010000    -0.2542180000
    2      C      -2.9877060000     2.4984360000     0.5724990000
    3      C      -2.7075270000     1.3114580000     1.2983520000
    4      C      -0.7452180000     2.4511090000    -0.4055440000
    5      C      -0.4570400000     1.2425370000     0.3381110000
    6      C      -1.4623430000     0.7137520000     1.1694720000
    7      C       0.2375010000     3.0243900000    -1.2706590000
    8      C       1.4819640000     2.3348100000    -1.3337370000
    9      C       1.8034710000     1.1691270000    -0.6358940000
   10      C       0.8406800000     0.5656720000     0.2462570000
   11      O       0.0969650000     4.1037910000    -1.9944540000
   12      O       1.0917800000    -0.5021560000     0.9062740000
   13      H      -2.2200250000     3.9522940000    -0.8192100000
   14      H      -3.9611060000     2.9772800000     0.6679740000
   15      H      -3.4626350000     0.8763640000     1.9497990000
   16      H      -1.2143490000    -0.1933560000     1.7125420000
   17      O       2.3829280000     2.9371870000    -2.1876970000
   18      H       1.8293590000     3.7000460000    -2.4921770000
   19      C       3.1491900000     0.5096930000    -0.8005750000
   20      C       4.1839690000     0.9412060000     0.2634530000
   21      C       5.5255220000     0.1813940000     0.2264120000
   22      C       6.3886350000     0.5290760000     1.4492600000
   23      C       6.3126990000     0.4321560000    -1.0686630000
   24      H       3.5403410000     0.7286120000    -1.7997800000
   25      H       3.0059340000    -0.5740120000    -0.7084820000
   26      H       3.7239060000     0.7943880000     1.2462260000
   27      H       4.3773200000     2.0171920000     0.1580730000
   28      H       5.2959040000    -0.8927700000     0.2765940000
   29      H       7.3328220000    -0.0314810000     1.4597950000
   30      H       5.8568450000     0.3111610000     2.3816670000
   31      H       6.6426460000     1.5963440000     1.4554130000
   32      H       7.2666730000    -0.1103680000    -1.0706110000
   33      H       6.5372630000     1.4998490000    -1.1824880000
   34      H       5.7459390000     0.1202570000    -1.9499720000
 ----------------------------------------------------------------

   17    -807.1166932119      9.98e-09  Convergence criterion met
 Total energy in the final basis set =     -807.3994371746

                    Orbital Energies (a.u.)
 --------------------------------------------------------------

 Alpha MOs
 -- Occupied --
-19.1186 -19.0299 -19.0243 -10.1885 -10.1843 -10.1765 -10.1722 -10.1712
-10.1670 -10.1664 -10.1663 -10.1623 -10.1619 -10.1618 -10.1589 -10.1499
-10.1468 -10.1366  -1.0309  -0.9440  -0.9315  -0.8405  -0.8153  -0.7820
 -0.7468  -0.7399  -0.7007  -0.6872  -0.6516  -0.6283  -0.5977  -0.5755
 -0.5602  -0.5486  -0.5172  -0.4858  -0.4707  -0.4564  -0.4486  -0.4419
 -0.4366  -0.4224  -0.4183  -0.4084  -0.3981  -0.3875  -0.3831  -0.3708
 -0.3678  -0.3639  -0.3597  -0.3574  -0.3467  -0.3370  -0.3296  -0.3249
 -0.3205  -0.3168  -0.3070  -0.3028  -0.2463  -0.2335  -0.2159  -0.2020
 -0.1996  -0.1161

          Ground-State Mulliken Net Atomic Charges

     Atom                 Charge (a.u.)
  ----------------------------------------
      1 C                    -0.196624
      2 C                     1.128357
      3 C                     1.115538
      4 C                    -2.114748
      5 C                    -1.833448
      6 C                    -0.512671
      7 C                    -2.073666
      8 C                    -0.126956
      9 C                     1.972515
     10 C                    -2.797611
     11 O                    -0.422473
     12 O                    -0.282842
     13 H                     0.104677
     14 H                     0.384207
     15 H                     0.356587
     16 H                     0.069837
     17 O                    -0.047471
     18 H                     0.307080
     19 C                     0.534319
     20 C                    -0.845652
     21 C                     1.201749
     22 C                     0.540779
     23 C                    -0.051766
     24 H                     0.156688
     25 H                     0.047083
     26 H                    -0.076704
     27 H                     0.022476
     28 H                     0.125082
     29 H                     0.377728
     30 H                     0.136495
     31 H                     0.156189
     32 H                     0.367142
     33 H                     0.097729
     34 H                     0.180372
  ----------------------------------------
  Sum of atomic charges =    -2.000000

                    Cartesian Multipole Moments
 -----------------------------------------------------------------
    Charge (ESU x 10^10)
                -9.6064
    Dipole Moment (Debye)
         X      -3.0483      Y     -17.2287      Z       3.5862
       Tot      17.8601
    Quadrupole Moments (Debye-Ang)
        XX    -155.9045     XY       2.8883     YY    -185.9255
        XZ       5.8051     YZ      26.3070     ZZ    -141.3025

 Total job time:  1012.12s(wall), 7920.75s(cpu)
        *  Thank you very much for using Q-Chem.  Have a nice day.  *
