 Gaussian 16, Revision A.03,
 Gaussian 16:  ES64L-G16RevA.03 25-Dec-2016

 ----------------------------------------------------------------
 #P UB3LYP/6-311++G(d,p) SCRF=(PCM,Solvent=n,n-DiMethylFormamide)
 ----------------------------------------------------------------

 ------------------
 Radical PCM in DMF
 ------------------
 Symbolic Z-matrix:
 Charge = -1 Multiplicity = 2

                         Standard orientation:
 ---------------------------------------------------------------------
 Center     Atomic      Atomic             Coordinates (Angstroms)
 Number     Number       Type             X           Y           Z
 ---------------------------------------------------------------------
      1          6           0       -0.405682   -1.442771    0.201385
      2          6           0       -1.643671   -0.683873    0.089532
      3          6           0       -1.643449    0.684164   -0.089586
      4          6           0       -0.405246    1.442710   -0.201487
      5          6           0        0.831352    0.680719   -0.097262
      6          6           0        0.831125   -0.681081    0.097537
      7          8           0       -0.390781   -2.694667    0.391813
      8          8           0       -0.390031    2.694560   -0.392237
      9          8           0        2.036591   -1.329073    0.270917
     10          6           0        2.357199   -2.296043   -0.724613
     11          6           0       -2.931782   -1.462284    0.196381
     12          6           0       -2.931292    1.463053   -0.196318
     13          1           0        1.594718   -3.076872   -0.767757
     14          1           0        3.317961   -2.728267   -0.433927
     15          1           0        2.464719   -1.815717   -1.706704
     16          8           0        2.037091    1.328263   -0.270416
     17          6           0        2.357383    2.296072    0.724419
     18          1           0        1.595378    3.077441    0.765985
     19          1           0        3.318741    2.727292    0.434212
     20          1           0        2.463590    1.816754    1.707147
     21          1           0       -2.704238   -2.519933    0.333289
     22          1           0       -3.551081   -1.348163   -0.702541
     23          1           0       -3.542370   -1.123702    1.043340
     24          1           0       -3.542828    1.123661   -1.042249
     25          1           0       -2.703329    2.520421   -0.334663
     26          1           0       -3.549835    1.350422    0.703334
 ---------------------------------------------------------------------

 SCF Done:  E(UB3LYP) =  -689.478965669     A.U. after   17 cycles

 The electronic state is 2-A.
 Alpha  occ. eigenvalues --  -19.13311 -19.13309 -19.07276 -19.07276 -10.21643
 Alpha  occ. eigenvalues --  -10.21642 -10.21102 -10.21042 -10.20419 -10.20418
 Alpha  occ. eigenvalues --  -10.16390 -10.16330 -10.15166 -10.15165  -1.05803
 Alpha  occ. eigenvalues --   -1.03919  -0.99267  -0.99027  -0.82446  -0.76985
 Alpha  occ. eigenvalues --   -0.72211  -0.70169  -0.69162  -0.64328  -0.63703
 Alpha  occ. eigenvalues --   -0.56162  -0.55696  -0.51300  -0.49269  -0.48290
 Alpha  occ. eigenvalues --   -0.46566  -0.44343  -0.43775  -0.43649  -0.42649
 Alpha  occ. eigenvalues --   -0.41601  -0.40591  -0.39350  -0.38632  -0.38173
 Alpha  occ. eigenvalues --   -0.37920  -0.36218  -0.36012  -0.35145  -0.34385
 Alpha  occ. eigenvalues --   -0.34104  -0.28783  -0.28383  -0.26268  -0.23619
 Alpha  occ. eigenvalues --   -0.23338  -0.22154  -0.15555
 Alpha virt. eigenvalues --   -0.00733   0.00273   0.00964   0.01305   0.02085
 Alpha virt. eigenvalues --    0.02816   0.03127   0.03349   0.03637   0.04253
 Alpha virt. eigenvalues --    0.04313   0.05234   0.05794   0.06300   0.06881

  Beta  occ. eigenvalues --  -19.13295 -19.13294 -19.06612 -19.06611 -10.21467
  Beta  occ. eigenvalues --  -10.21466 -10.21008 -10.20947 -10.20414 -10.20413
  Beta  occ. eigenvalues --  -10.16290 -10.16229 -10.15174 -10.15174  -1.05702
  Beta  occ. eigenvalues --   -1.03805  -0.98129  -0.97885  -0.81933  -0.76807
  Beta  occ. eigenvalues --   -0.71863  -0.70031  -0.68996  -0.63597  -0.63551
  Beta  occ. eigenvalues --   -0.55866  -0.55351  -0.51167  -0.49050  -0.48117
  Beta  occ. eigenvalues --   -0.46222  -0.44202  -0.43637  -0.43375  -0.42282
  Beta  occ. eigenvalues --   -0.41390  -0.39909  -0.38904  -0.38478  -0.38087
  Beta  occ. eigenvalues --   -0.36763  -0.35638  -0.35123  -0.34250  -0.33613
  Beta  occ. eigenvalues --   -0.33603  -0.28485  -0.28045  -0.23518  -0.23089
  Beta  occ. eigenvalues --   -0.22742  -0.21544
  Beta virt. eigenvalues --   -0.08438  -0.00660   0.00539   0.01025   0.02119
  Beta virt. eigenvalues --    0.02319   0.02910   0.03155   0.03704   0.03715
  Beta virt. eigenvalues --    0.04278   0.05220   0.05801   0.06219   0.06358

 Mulliken charges and spin densities:
               1          2
     1  C   -0.743911   0.090180
     2  C    0.708559   0.083141
     3  C    0.708797   0.083133
     4  C   -0.744605   0.090190
     5  C   -0.020058   0.080716
     6  C   -0.019017   0.080785
     7  O   -0.491596   0.241594
     8  O   -0.491568   0.241607
     9  O   -0.197388   0.000225
    10  C   -0.274478   0.001836
    11  C   -0.425809  -0.004090
    12  C   -0.425707  -0.004077
    13  H    0.169468  -0.000336
    14  H    0.157998   0.000655
    15  H    0.136082   0.000672
    16  O   -0.197454   0.000236
    17  C   -0.274383   0.001834
    18  H    0.169508  -0.000333
    19  H    0.157958   0.000653
    20  H    0.136053   0.000672
    21  H    0.183675  -0.001573
    22  H    0.147196   0.003226
    23  H    0.149891   0.003702
    24  H    0.149775   0.003694
    25  H    0.183704  -0.001573
    26  H    0.147312   0.003231
 Sum of Mulliken charges =  -1.00000   1.00000

 Dipole moment (field-independent basis, Debye):
    X=             -0.2571    Y=              0.0023    Z=              0.0001  Tot=              0.2571
 Quadrupole moment (field-independent basis, Debye-Ang):
   XX=            -88.3482   YY=           -119.2280   ZZ=            -87.6179
   XY=             -0.0029   XZ=             -0.0023   YZ=             10.9066

 Normal termination of Gaussian 16 at Wed Jan 24 22:52:06 2024.
