 Gaussian 16, Revision A.03,
 Gaussian 16:  ES64L-G16RevA.03 25-Dec-2016

 ----------------------------------------------------------------
 #P UB3LYP/6-311++G(d,p) SCRF=(PCM,Solvent=n,n-DiMethylFormamide)
 ----------------------------------------------------------------

 ------------------
 Quinone PCM in DMF
 ------------------
 Symbolic Z-matrix:
 Charge =  0 Multiplicity = 1

                         Standard orientation:
 ---------------------------------------------------------------------
 Center     Atomic      Atomic             Coordinates (Angstroms)
 Number     Number       Type             X           Y           Z
 ---------------------------------------------------------------------
      1          6           0        4.646545    0.249140   -1.261950
      2          6           0        3.940937   -0.301958   -0.000286
      3          6           0        4.074389   -1.835475   -0.003030
      4          6           0        4.645791    0.244585    1.263768
      5          6           0        2.473430    0.155093    0.000111
      6          6           0        2.165415    1.529189    0.000769
      7          6           0        0.855729    1.983030    0.000761
      8          6           0       -0.207889    1.075118    0.000354
      9          6           0       -1.606858    1.583432    0.000021
     10          8           0       -1.850300    2.779977   -0.000127
     11          6           0       -2.704166    0.570467   -0.000160
     12          6           0       -4.032277    1.007464   -0.000599
     13          6           0       -5.071722    0.084766   -0.000586
     14          6           0       -4.793284   -1.284939   -0.000089
     15          6           0       -3.476156   -1.728588    0.000271
     16          6           0       -2.423818   -0.807667    0.000180
     17          6           0       -1.018594   -1.312902    0.000307
     18          8           0       -0.777885   -2.509743    0.000533
     19          6           0        0.076120   -0.298842    0.000186
     20          6           0        1.403747   -0.740626   -0.000006
     21          1           0        5.693545   -0.067818   -1.274968
     22          1           0        4.168077   -0.123262   -2.171830
     23          1           0        4.629560    1.340923   -1.296578
     24          1           0        3.618152   -2.286675    0.882025
     25          1           0        5.132739   -2.108995   -0.003822
     26          1           0        3.617593   -2.283564   -0.889379
     27          1           0        4.628784    1.336226    1.302184
     28          1           0        5.692768   -0.072488    1.276220
     29          1           0        4.166803   -0.131041    2.172043
     30          1           0        2.965679    2.260009    0.001225
     31          1           0        0.631905    3.042807    0.001030
     32          1           0       -4.224449    2.073272   -0.000920
     33          1           0       -6.099821    0.428790   -0.000940
     34          1           0       -5.605446   -2.003080    0.000004
     35          1           0       -3.237376   -2.784909    0.000591
     36          1           0        1.562932   -1.809785   -0.000268
 ---------------------------------------------------------------------

 SCF Done:  E(UB3LYP) =  -846.260589472     A.U. after   14 cycles

 The electronic state is 1-A.
 Alpha  occ. eigenvalues --  -19.13210 -19.13123 -10.28368 -10.28300 -10.20957
 Alpha  occ. eigenvalues --  -10.20906 -10.20754 -10.20561 -10.20546 -10.20033
 Alpha  occ. eigenvalues --  -10.19965 -10.19916 -10.19844 -10.19833 -10.19646
 Alpha  occ. eigenvalues --  -10.19512 -10.19329 -10.16305 -10.16305 -10.16127
 Alpha  occ. eigenvalues --   -1.06711  -1.06515  -0.89573  -0.88468  -0.83707
 Alpha  occ. eigenvalues --   -0.80262  -0.77978  -0.77552  -0.76129  -0.69674
 Alpha  occ. eigenvalues --   -0.69173  -0.68723  -0.66654  -0.64403  -0.61743
 Alpha  occ. eigenvalues --   -0.58730  -0.57946  -0.56097  -0.53449  -0.50635
 Alpha  occ. eigenvalues --   -0.49191  -0.48678  -0.48078  -0.45987  -0.45687
 Alpha  occ. eigenvalues --   -0.45517  -0.45157  -0.44959  -0.44592  -0.44474
 Alpha  occ. eigenvalues --   -0.43005  -0.42020  -0.41235  -0.40458  -0.38746
 Alpha  occ. eigenvalues --   -0.38638  -0.38414  -0.37735  -0.37192  -0.36818
 Alpha  occ. eigenvalues --   -0.36573  -0.34033  -0.34020  -0.33102  -0.28897
 Alpha  occ. eigenvalues --   -0.28825  -0.28054  -0.27673  -0.27573  -0.26905
 Alpha virt. eigenvalues --   -0.11880  -0.07333  -0.03679  -0.02598  -0.00970
 Alpha virt. eigenvalues --   -0.00189   0.00819   0.01318   0.01752   0.01790
 Alpha virt. eigenvalues --    0.02811   0.02970   0.03080   0.03352   0.03560

  Beta  occ. eigenvalues --  -19.13210 -19.13123 -10.28368 -10.28300 -10.20957
  Beta  occ. eigenvalues --  -10.20906 -10.20754 -10.20561 -10.20546 -10.20033
  Beta  occ. eigenvalues --  -10.19965 -10.19916 -10.19844 -10.19833 -10.19646
  Beta  occ. eigenvalues --  -10.19512 -10.19329 -10.16305 -10.16305 -10.16127
  Beta  occ. eigenvalues --   -1.06711  -1.06515  -0.89573  -0.88468  -0.83707
  Beta  occ. eigenvalues --   -0.80262  -0.77978  -0.77552  -0.76129  -0.69674
  Beta  occ. eigenvalues --   -0.69173  -0.68723  -0.66654  -0.64403  -0.61743
  Beta  occ. eigenvalues --   -0.58730  -0.57946  -0.56097  -0.53449  -0.50635
  Beta  occ. eigenvalues --   -0.49191  -0.48678  -0.48078  -0.45987  -0.45687
  Beta  occ. eigenvalues --   -0.45517  -0.45157  -0.44959  -0.44592  -0.44474
  Beta  occ. eigenvalues --   -0.43005  -0.42020  -0.41235  -0.40458  -0.38746
  Beta  occ. eigenvalues --   -0.38638  -0.38414  -0.37735  -0.37192  -0.36818
  Beta  occ. eigenvalues --   -0.36573  -0.34033  -0.34020  -0.33102  -0.28897
  Beta  occ. eigenvalues --   -0.28825  -0.28054  -0.27673  -0.27573  -0.26905
  Beta virt. eigenvalues --   -0.11880  -0.07333  -0.03679  -0.02598  -0.00970
  Beta virt. eigenvalues --   -0.00189   0.00819   0.01318   0.01752   0.01790
  Beta virt. eigenvalues --    0.02811   0.02970   0.03080   0.03352   0.03560

 Mulliken charges and spin densities:
               1          2
     1  C   -0.687457   0.000000
     2  C    0.551352   0.000000
     3  C   -0.522469  -0.000000
     4  C   -0.687858   0.000000
     5  C    0.182532  -0.000000
     6  C   -0.533787   0.000000
     7  C    0.004638  -0.000000
     8  C    0.228901   0.000000
     9  C   -0.795777   0.000000
    10  O   -0.272316  -0.000000
    11  C    0.096488   0.000000
    12  C    0.198998   0.000000
    13  C   -0.449336  -0.000000
    14  C   -0.452181   0.000000
    15  C    0.172089  -0.000000
    16  C    0.422179  -0.000000
    17  C   -0.706790   0.000000
    18  O   -0.266801  -0.000000
    19  C    0.607947  -0.000000
    20  C    0.140662  -0.000000
    21  H    0.171292  -0.000000
    22  H    0.153197  -0.000000
    23  H    0.150439   0.000000
    24  H    0.148192   0.000000
    25  H    0.179894   0.000000
    26  H    0.148220   0.000000
    27  H    0.150674  -0.000000
    28  H    0.171288  -0.000000
    29  H    0.153169  -0.000000
    30  H    0.189920   0.000000
    31  H    0.200465  -0.000000
    32  H    0.185412   0.000000
    33  H    0.209275  -0.000000
    34  H    0.209968   0.000000
    35  H    0.185474  -0.000000
    36  H    0.162108   0.000000
 Sum of Mulliken charges =  -0.00000  -0.00000

 Dipole moment (field-independent basis, Debye):
    X=              1.1175    Y=             -0.2661    Z=             -0.0004  Tot=              1.1487
 Quadrupole moment (field-independent basis, Debye-Ang):
   XX=            -84.1963   YY=           -130.5962   ZZ=           -120.8731
   XY=              8.2038   XZ=              0.0033   YZ=              0.0039

 Normal termination of Gaussian 16 at Sun Jan 14 01:08:23 2024.
