 Q-Chem 5.4, Q-Chem, Inc., Pleasanton, CA (2021)
 Q-Chem 5.4.0 for Intel X86 EM64T Linux

User input:
--------------------------------------------------------------
$molecule
-1 2
C                  2.6862460000      1.3899630000      0.9129910000
C                  2.3482390000      0.5291090000     -0.3215880000
C                  3.5920200000     -0.2231270000     -0.8132730000
C                  1.1463500000     -0.3604300000     -0.0432140000
C                  1.2590490000     -1.6813860000      0.3102820000
C                  0.1182910000     -2.5222580000      0.6021550000
O                  0.2403370000     -3.7390590000      0.9292960000
C                 -1.1696790000     -1.8752970000      0.4919050000
C                 -1.3298900000     -0.5572120000      0.1392750000
C                 -2.7299240000      0.0347290000      0.0452760000
C                 -2.9599150000      1.1679220000      1.0643670000
C                 -3.0759490000      0.5018080000     -1.3821920000
C                 -0.1666510000      0.2765320000     -0.1453930000
O                 -0.2771430000      1.4996740000     -0.4696480000
H                  3.5040700000      2.0882270000      0.6936300000
H                  2.9946490000      0.7567530000      1.7524810000
H                  1.8131710000      1.9699600000      1.2173860000
H                  2.0312890000      1.2242140000     -1.1065200000
H                  4.3799230000      0.4870150000     -1.0897890000
H                  3.3656010000     -0.8391050000     -1.6884290000
H                  4.0030940000     -0.8821940000     -0.0413450000
H                  2.2285130000     -2.1650660000      0.3859380000
H                 -2.0374880000     -2.4960070000      0.7053120000
H                 -3.4229600000     -0.7780180000      0.2995150000
H                 -2.2877260000      2.0019980000      0.8562090000
H                 -3.9962150000      1.5259850000      1.0166150000
H                 -2.7694870000      0.8167000000      2.0833560000
H                 -4.1116170000      0.8615770000     -1.4307360000
H                 -2.9695310000     -0.3216700000     -2.0952920000
H                 -2.4066660000      1.3086630000     -1.6854280000
$end

$rem
BASIS  =  6-311++G(d,p)
GUI  =  2
JOB_TYPE  =  SP
METHOD  =  B3LYP
SCF_CONVERGENCE  = 8
SOLVENT_METHOD = sm12
$end

$smx
solvent dimethylformamide
charges CM5
$end

--------------------------------------------------------------

             Standard Nuclear Orientation (Angstroms)
    I     Atom           X                Y                Z
 ----------------------------------------------------------------
    1      C       2.6862460000     1.3899630000     0.9129910000
    2      C       2.3482390000     0.5291090000    -0.3215880000
    3      C       3.5920200000    -0.2231270000    -0.8132730000
    4      C       1.1463500000    -0.3604300000    -0.0432140000
    5      C       1.2590490000    -1.6813860000     0.3102820000
    6      C       0.1182910000    -2.5222580000     0.6021550000
    7      O       0.2403370000    -3.7390590000     0.9292960000
    8      C      -1.1696790000    -1.8752970000     0.4919050000
    9      C      -1.3298900000    -0.5572120000     0.1392750000
   10      C      -2.7299240000     0.0347290000     0.0452760000
   11      C      -2.9599150000     1.1679220000     1.0643670000
   12      C      -3.0759490000     0.5018080000    -1.3821920000
   13      C      -0.1666510000     0.2765320000    -0.1453930000
   14      O      -0.2771430000     1.4996740000    -0.4696480000
   15      H       3.5040700000     2.0882270000     0.6936300000
   16      H       2.9946490000     0.7567530000     1.7524810000
   17      H       1.8131710000     1.9699600000     1.2173860000
   18      H       2.0312890000     1.2242140000    -1.1065200000
   19      H       4.3799230000     0.4870150000    -1.0897890000
   20      H       3.3656010000    -0.8391050000    -1.6884290000
   21      H       4.0030940000    -0.8821940000    -0.0413450000
   22      H       2.2285130000    -2.1650660000     0.3859380000
   23      H      -2.0374880000    -2.4960070000     0.7053120000
   24      H      -3.4229600000    -0.7780180000     0.2995150000
   25      H      -2.2877260000     2.0019980000     0.8562090000
   26      H      -3.9962150000     1.5259850000     1.0166150000
   27      H      -2.7694870000     0.8167000000     2.0833560000
   28      H      -4.1116170000     0.8615770000    -1.4307360000
   29      H      -2.9695310000    -0.3216700000    -2.0952920000
   30      H      -2.4066660000     1.3086630000    -1.6854280000
 ----------------------------------------------------------------

   17    -617.5907151720      6.73e-09  Convergence criterion met
 Total energy in the final basis set =     -617.6724235442

                    Orbital Energies (a.u.)
 --------------------------------------------------------------

 Alpha MOs
 -- Occupied --
-19.0733 -19.0723 -10.2172 -10.2167 -10.1820 -10.1780 -10.1730 -10.1727
-10.1634 -10.1624 -10.1619 -10.1614 -10.1594 -10.1593  -0.9950  -0.9909
 -0.8351  -0.8146  -0.7786  -0.7277  -0.6895  -0.6855  -0.6778  -0.6236
 -0.6048  -0.5505  -0.5416  -0.4911  -0.4678  -0.4539  -0.4515  -0.4393
 -0.4330  -0.4229  -0.4091  -0.4025  -0.3976  -0.3907  -0.3848  -0.3821
 -0.3777  -0.3647  -0.3501  -0.3469  -0.3424  -0.3368  -0.3347  -0.3277
 -0.2754  -0.2522  -0.2372  -0.2311  -0.1600

 Beta MOs
 -- Occupied --
-19.0660 -19.0651 -10.2157 -10.2157 -10.1821 -10.1781 -10.1719 -10.1716
-10.1634 -10.1623 -10.1608 -10.1604 -10.1594 -10.1593  -0.9824  -0.9782
 -0.8304  -0.8137  -0.7764  -0.7257  -0.6888  -0.6853  -0.6687  -0.6209
 -0.6025  -0.5482  -0.5391  -0.4895  -0.4641  -0.4533  -0.4493  -0.4390
 -0.4318  -0.4169  -0.4081  -0.3956  -0.3943  -0.3895  -0.3787  -0.3764
 -0.3725  -0.3508  -0.3466  -0.3456  -0.3369  -0.3339  -0.3328  -0.3231
 -0.2447  -0.2416  -0.2304  -0.2248

          Ground-State Mulliken Net Atomic Charges

     Atom                 Charge (a.u.)    Spin (a.u.)
  --------------------------------------------------------
      1 C                    -0.417688       0.010734
      2 C                     0.964452       0.004736
      3 C                     0.135363       0.001729
      4 C                     0.823306       0.062197
      5 C                    -0.890792       0.105207
      6 C                    -1.482621       0.087746
      7 O                    -0.401812       0.256241
      8 C                    -0.812177       0.062038
      9 C                     0.074318       0.050469
     10 C                     1.277224      -0.007551
     11 C                    -0.311562       0.007851
     12 C                    -0.306062       0.008944
     13 C                    -2.035790       0.094584
     14 O                    -0.233327       0.271729
     15 H                     0.253170       0.002194
     16 H                     0.130825      -0.001164
     17 H                     0.126272      -0.002103
     18 H                     0.128780       0.001977
     19 H                     0.321837      -0.000414
     20 H                     0.110425      -0.000374
     21 H                     0.161278      -0.000207
     22 H                     0.077196      -0.006339
     23 H                     0.134351      -0.008803
     24 H                     0.195374      -0.000816
     25 H                     0.120960      -0.001167
     26 H                     0.260651       0.000469
     27 H                     0.104280       0.000413
     28 H                     0.260993       0.000431
     29 H                     0.103233       0.000301
     30 H                     0.127543      -0.001046
  --------------------------------------------------------
  Sum of atomic charges =    -1.000000

                    Cartesian Multipole Moments
 -----------------------------------------------------------------
    Charge (ESU x 10^10)
                -4.8032
    Dipole Moment (Debye)
         X       0.1626      Y       6.1937      Z      -1.4712
       Tot       6.3681
    Quadrupole Moments (Debye-Ang)
        XX     -95.1749     XY       3.8973     YY    -133.8565
        XZ      -1.5199     YZ      10.0775     ZZ     -95.5551

 Total job time:  700.54s(wall), 5460.30s(cpu)
        *  Thank you very much for using Q-Chem.  Have a nice day.  *
