 Gaussian 16, Revision A.03,
 Gaussian 16:  ES64L-G16RevA.03 25-Dec-2016

 ----------------------------------------------------------------------
 #P UB3LYP/6-311++G(d,p) nosym opt freq SCRF=(PCM,Solvent=n,n-DiMethylF
 ormamide)
 ----------------------------------------------------------------------

 -------
 Radical
 -------
 Symbolic Z-matrix:
 Charge = -1 Multiplicity = 2

 SCF Done:  E(UB3LYP) =  -1124.35119382     A.U. after   20 cycles
 SCF Done:  E(UB3LYP) =  -1124.35157432     A.U. after   17 cycles
 SCF Done:  E(UB3LYP) =  -1124.35160940     A.U. after   16 cycles
 SCF Done:  E(UB3LYP) =  -1124.35163038     A.U. after   16 cycles
 SCF Done:  E(UB3LYP) =  -1124.35163475     A.U. after   14 cycles
 SCF Done:  E(UB3LYP) =  -1124.35163510     A.U. after   13 cycles
 SCF Done:  E(UB3LYP) =  -1124.35163516     A.U. after   13 cycles
 Optimization completed.
    -- Stationary point found.
 Normal termination of Gaussian 16 at Sun Feb 11 15:44:57 2024.

 ----------------------------------------------------------------------
 #P Geom=AllCheck Guess=TCheck SCRF=Check GenChk UB3LYP/6-311++G(d,p) F
 req
 ----------------------------------------------------------------------

 Structure from the checkpoint file:  "339-rad.chk"
 -------
 Radical
 -------
 Charge = -1 Multiplicity = 2

                          Input orientation:
 ---------------------------------------------------------------------
 Center     Atomic      Atomic             Coordinates (Angstroms)
 Number     Number       Type             X           Y           Z
 ---------------------------------------------------------------------
      1          8           0       -0.018507   -2.475161   -0.624449
      2          6           0       -0.020010   -1.264670   -0.223945
      3          6           0        1.237964   -0.586597    0.080799
      4          6           0        2.440113   -1.338256    0.128298
      5          6           0        3.639084   -0.771112    0.519142
      6          6           0        3.710265    0.584504    0.888410
      7          6           0        2.561369    1.362559    0.830406
      8          6           0        1.355642    0.787580    0.423286
      9         16           0       -0.020680    1.863481    0.149132
     10          8           0       -0.013996    2.300599   -1.272947
     11          6           0       -1.400207    0.788498    0.410497
     12          6           0       -2.609277    1.364332    0.806338
     13          6           0       -3.759263    0.587142    0.853345
     14          6           0       -3.685627   -0.768466    0.484525
     15          6           0       -2.483447   -1.336492    0.104977
     16          6           0       -1.280324   -0.585734    0.068952
     17          1           0        2.383050   -2.386908   -0.134296
     18          1           0        4.534370   -1.382740    0.550573
     19          1           0        4.648836    1.022087    1.206218
     20          1           0        2.592089    2.414100    1.090624
     21          1           0       -2.641655    2.415851    1.066450
     22          1           0       -4.700465    1.025389    1.162337
     23          1           0       -4.581648   -1.379400    0.507356
     24          1           0       -2.424746   -2.385172   -0.157190
     25          8           0       -0.024873    2.968371    1.138242
 ---------------------------------------------------------------------

 SCF Done:  E(UB3LYP) =  -1124.35163516     A.U. after    1 cycles

 Alpha  occ. eigenvalues --  -89.04809 -19.11561 -19.11251 -19.06983 -10.21990
 Alpha  occ. eigenvalues --  -10.20602 -10.20601 -10.18968 -10.18967 -10.18942
 Alpha  occ. eigenvalues --  -10.18942 -10.18018 -10.18018 -10.17777 -10.17777
 Alpha  occ. eigenvalues --  -10.17566 -10.17566  -8.11242  -6.07521  -6.07397
 Alpha  occ. eigenvalues --   -6.07347  -1.10435  -0.99540  -0.99114  -0.87682
 Alpha  occ. eigenvalues --   -0.86556  -0.79883  -0.76857  -0.76397  -0.75425
 Alpha  occ. eigenvalues --   -0.69633  -0.65514  -0.63198  -0.60351  -0.58483
 Alpha  occ. eigenvalues --   -0.55394  -0.54906  -0.50595  -0.48416  -0.47526
 Alpha  occ. eigenvalues --   -0.46888  -0.46778  -0.45590  -0.44327  -0.43600
 Alpha  occ. eigenvalues --   -0.42854  -0.41439  -0.40384  -0.38771  -0.38271
 Alpha  occ. eigenvalues --   -0.36686  -0.36028  -0.35816  -0.35611  -0.33262
 Alpha  occ. eigenvalues --   -0.32719  -0.31416  -0.29728  -0.27294  -0.26684
 Alpha  occ. eigenvalues --   -0.26536  -0.25974  -0.24199  -0.13812
 Alpha virt. eigenvalues --   -0.04270  -0.03498  -0.01796  -0.00428   0.00473
 Alpha virt. eigenvalues --    0.01226   0.01935   0.02354   0.03516   0.03660
 Alpha virt. eigenvalues --    0.04188   0.04314   0.04470   0.05803   0.05946

  Beta  occ. eigenvalues --  -89.04812 -19.11524 -19.11200 -19.06279 -10.21653
  Beta  occ. eigenvalues --  -10.20438 -10.20438 -10.19014 -10.19014 -10.18953
  Beta  occ. eigenvalues --  -10.18952 -10.18053 -10.18052 -10.17606 -10.17606
  Beta  occ. eigenvalues --  -10.17462 -10.17462  -8.11243  -6.07520  -6.07400
  Beta  occ. eigenvalues --   -6.07352  -1.10332  -0.99422  -0.97842  -0.87401
  Beta  occ. eigenvalues --   -0.86382  -0.79584  -0.76491  -0.76217  -0.75175
  Beta  occ. eigenvalues --   -0.69312  -0.65038  -0.62938  -0.60243  -0.58245
  Beta  occ. eigenvalues --   -0.55114  -0.54744  -0.50410  -0.48280  -0.47370
  Beta  occ. eigenvalues --   -0.46772  -0.46599  -0.45393  -0.44239  -0.43544
  Beta  occ. eigenvalues --   -0.42710  -0.40330  -0.39669  -0.38640  -0.37865
  Beta  occ. eigenvalues --   -0.36553  -0.35930  -0.35577  -0.33686  -0.32953
  Beta  occ. eigenvalues --   -0.32603  -0.31123  -0.29604  -0.26613  -0.26209
  Beta  occ. eigenvalues --   -0.25301  -0.24660  -0.23558
  Beta virt. eigenvalues --   -0.07690  -0.03981  -0.02373  -0.01374  -0.00409
  Beta virt. eigenvalues --    0.00473   0.01232   0.01956   0.02349   0.03677
  Beta virt. eigenvalues --    0.03801   0.04242   0.04310   0.05637   0.05837

 Mulliken charges and spin densities:
               1          2
     1  O   -0.487980   0.264688
     2  C   -0.052212   0.211569
     3  C    1.430686  -0.016015
     4  C    0.146263   0.118700
     5  C   -0.590557  -0.027143
     6  C   -0.182862   0.133653
     7  C   -0.142308  -0.049193
     8  C   -1.610616   0.079368
     9  S    0.347572   0.052194
    10  O   -0.166207   0.003903
    11  C   -1.610256   0.079362
    12  C   -0.142310  -0.049206
    13  C   -0.183084   0.133685
    14  C   -0.590248  -0.027158
    15  C    0.146074   0.118730
    16  C    1.430854  -0.015968
    17  H    0.191669  -0.007389
    18  H    0.181958   0.001211
    19  H    0.192986  -0.009511
    20  H    0.213746   0.003477
    21  H    0.213720   0.003478
    22  H    0.192983  -0.009513
    23  H    0.181958   0.001212
    24  H    0.191662  -0.007391
    25  O   -0.303490   0.013255
 Sum of Mulliken charges =  -1.00000   1.00000

 Dipole moment (field-independent basis, Debye):
    X=              0.0858    Y=             -1.4576    Z=              2.8068  Tot=              3.1638
 Quadrupole moment (field-independent basis, Debye-Ang):
   XX=            -94.9866   YY=           -142.2064   ZZ=           -120.4885
   XY=              0.0228   XZ=              0.0612   YZ=             -1.7949

  Exact polarizability: 502.022  -0.238 302.573   1.590  34.925 166.553
 Approx polarizability: 503.158  -0.272 355.528   1.446  46.458 199.592

                      1                      2                      3
                      A                      A                      A
 Frequencies --     41.8041               104.3619               110.3290
 Red. masses --      7.0561                 4.1467                 6.0274
 Frc consts  --      0.0073                 0.0266                 0.0432
 IR Inten    --     13.7763                 2.8116                 1.5390

                      4                      5                      6
                      A                      A                      A
 Frequencies --    148.1789               166.2069               211.4939
 Red. masses --      6.5319                 7.3513                 5.4317
 Frc consts  --      0.0845                 0.1196                 0.1431
 IR Inten    --      3.3992                 0.3384                 3.1033

                      7                      8                      9
                      A                      A                      A
 Frequencies --    243.5974               299.3502               302.6826
 Red. masses --      7.9197                 6.3002                 8.6830
 Frc consts  --      0.2769                 0.3326                 0.4687
 IR Inten    --      5.6447                 0.0047                 6.0316

                     10                     11                     12
                      A                      A                      A
 Frequencies --    332.3268               339.4534               375.1752
 Red. masses --      8.2063                 7.9580                 6.8834
 Frc consts  --      0.5340                 0.5403                 0.5709
 IR Inten    --      4.5501                 2.6121                 4.5246

                     13                     14                     15
                      A                      A                      A
 Frequencies --    400.0486               406.4382               455.7468
 Red. masses --      9.3775                 3.9138                 3.3502
 Frc consts  --      0.8842                 0.3809                 0.4100
 IR Inten    --     24.1653                 6.1314                 1.9080

                     16                     17                     18
                      A                      A                      A
 Frequencies --    499.2413               505.3627               543.5861
 Red. masses --      4.2712                10.7065                 6.3554
 Frc consts  --      0.6272                 1.6110                 1.1064
 IR Inten    --      0.1318                92.9523                75.9888

                     19                     20                     21
                      A                      A                      A
 Frequencies --    572.6389               588.4900               630.7846
 Red. masses --     11.6346                 6.5784                 4.3367
 Frc consts  --      2.2478                 1.3423                 1.0167
 IR Inten    --     13.5974                 5.3343                53.6506

                     22                     23                     24
                      A                      A                      A
 Frequencies --    636.0165               674.3597               711.3353
 Red. masses --      7.0863                 6.1263                 4.6830
 Frc consts  --      1.6889                 1.6415                 1.3961
 IR Inten    --      2.0311                10.0267                10.8783

                     25                     26                     27
                      A                      A                      A
 Frequencies --    737.9283               748.9149               753.7084
 Red. masses --      2.0833                 5.2383                 1.3134
 Frc consts  --      0.6684                 1.7310                 0.4396
 IR Inten    --     78.3932                29.2926                 5.8321

                     28                     29                     30
                      A                      A                      A
 Frequencies --    767.8992               774.2916               872.0440
 Red. masses --      2.7224                 3.5227                 1.3598
 Frc consts  --      0.9458                 1.2443                 0.6093
 IR Inten    --     51.1957                39.1492                 0.4993

                     31                     32                     33
                      A                      A                      A
 Frequencies --    874.0909               928.1428               961.4284
 Red. masses --      1.4194                 6.8469                 1.3373
 Frc consts  --      0.6389                 3.4752                 0.7283
 IR Inten    --      8.2730                 3.0786                 1.0462

                     34                     35                     36
                      A                      A                      A
 Frequencies --    962.3153               998.3739               999.2923
 Red. masses --      1.3438                 1.3042                 1.3059
 Frc consts  --      0.7332                 0.7659                 0.7683
 IR Inten    --      5.3371                 0.5329                 1.4246

                     37                     38                     39
                      A                      A                      A
 Frequencies --   1009.6239              1029.7077              1038.8349
 Red. masses --     12.1771                 4.8209                 2.4065
 Frc consts  --      7.3133                 3.0117                 1.5301
 IR Inten    --    348.2081               366.2151                21.7400

                     40                     41                     42
                      A                      A                      A
 Frequencies --   1053.0230              1082.2438              1114.6181
 Red. masses --      2.1005                 5.2559                 1.8194
 Frc consts  --      1.3723                 3.6270                 1.3318
 IR Inten    --      9.8837               283.2209               150.2886

                     43                     44                     45
                      A                      A                      A
 Frequencies --   1129.4955              1160.5127              1171.8569
 Red. masses --      1.8623                17.4674                 1.2187
 Frc consts  --      1.3998                13.8605                 0.9860
 IR Inten    --    102.9886               428.1221                11.1460

                     46                     47                     48
                      A                      A                      A
 Frequencies --   1172.7977              1192.4194              1235.8842
 Red. masses --      1.1809                 2.2294                 1.6381
 Frc consts  --      0.9570                 1.8677                 1.4741
 IR Inten    --      9.2548                 8.4633                 0.3020

                     49                     50                     51
                      A                      A                      A
 Frequencies --   1265.4914              1290.5164              1337.2112
 Red. masses --      1.7554                 3.8276                 6.5395
 Frc consts  --      1.6563                 3.7558                 6.8896
 IR Inten    --     14.7422               445.3656                58.7433

                     52                     53                     54
                      A                      A                      A
 Frequencies --   1340.8992              1431.7725              1447.4195
 Red. masses --      7.9628                 3.0233                 2.2412
 Frc consts  --      8.4354                 3.6516                 2.7664
 IR Inten    --      4.5413               373.5942               552.7226

                     55                     56                     57
                      A                      A                      A
 Frequencies --   1458.6860              1469.0393              1501.6317
 Red. masses --      2.2848                 2.5036                 3.4442
 Frc consts  --      2.8643                 3.1834                 4.5758
 IR Inten    --     10.6002               170.9514               192.5003

                     58                     59                     60
                      A                      A                      A
 Frequencies --   1550.8737              1569.8308              1595.8417
 Red. masses --      4.6724                 5.8172                 4.9234
 Frc consts  --      6.6213                 8.4463                 7.3874
 IR Inten    --     61.5904                 3.7396               384.5053

                     61                     62                     63
                      A                      A                      A
 Frequencies --   1623.5779              3165.6725              3165.7360
 Red. masses --      6.1210                 1.0872                 1.0872
 Frc consts  --      9.5065                 6.4193                 6.4195
 IR Inten    --      4.9705                29.1049                15.5747

                     64                     65                     66
                      A                      A                      A
 Frequencies --   3180.7088              3180.9490              3193.3894
 Red. masses --      1.0885                 1.0886                 1.0936
 Frc consts  --      6.4880                 6.4901                 6.5707
 IR Inten    --      1.6028                 1.5839                12.0488

                     67                     68                     69
                      A                      A                      A
 Frequencies --   3193.6484              3198.0241              3198.6120
 Red. masses --      1.0937                 1.0943                 1.0944
 Frc consts  --      6.5726                 6.5943                 6.5970
 IR Inten    --     13.0103                48.9135                 3.3131

 - Thermochemistry -
 -------------------
 Temperature   298.150 Kelvin.  Pressure   1.00000 Atm.
 Atom     1 has atomic number  8 and mass  15.99491

 Molecular mass:   244.01942 amu.
 Principal axes and moments of inertia in atomic units:
                           1         2         3
     Eigenvalues --  2400.687504424.754916243.31939
           X            0.99999  -0.00021  -0.00472
           Y           -0.00036   0.99268  -0.12079
           Z            0.00471   0.12079   0.99267
 This molecule is an asymmetric top.
 Rotational symmetry number  1.
 Warning -- assumption of classical behavior for rotation
           may cause significant error
 Rotational temperatures (Kelvin)      0.03608     0.01957     0.01387
 Rotational constants (GHZ):           0.75176     0.40787     0.28907
 Zero-point vibrational energy     463122.2 (Joules/Mol)
                                  110.68887 (Kcal/Mol)
 Warning -- explicit consideration of  20 degrees of freedom as
           vibrations may cause significant error
 Vibrational temperatures:     60.15   150.15   158.74   213.20   239.13
          (Kelvin)            304.29   350.48   430.70   435.49   478.14
                              488.40   539.79   575.58   584.77   655.72
                              718.30   727.10   782.10   823.90   846.71
                              907.56   915.09   970.25  1023.45  1061.71
                             1077.52  1084.42  1104.84  1114.03  1254.68
                             1257.62  1335.39  1383.28  1384.56  1436.44
                             1437.76  1452.62  1481.52  1494.65  1515.07
                             1557.11  1603.69  1625.09  1669.72  1686.04
                             1687.39  1715.63  1778.16  1820.76  1856.77
                             1923.95  1929.25  2060.00  2082.51  2098.72
                             2113.62  2160.51  2231.36  2258.64  2296.06
                             2335.97  4554.70  4554.79  4576.33  4576.68
                             4594.58  4594.95  4601.24  4602.09

 Zero-point correction=                           0.176394 (Hartree/Particle)
 Thermal correction to Energy=                    0.189281
 Thermal correction to Enthalpy=                  0.190225
 Thermal correction to Gibbs Free Energy=         0.136349
 Sum of electronic and zero-point Energies=          -1124.175241
 Sum of electronic and thermal Energies=             -1124.162354
 Sum of electronic and thermal Enthalpies=           -1124.161410
 Sum of electronic and thermal Free Energies=        -1124.215286

                     E (Thermal)             CV                S
                      KCal/Mol        Cal/Mol-Kelvin    Cal/Mol-Kelvin
 Total                  118.776             52.221            113.391
 Electronic               0.000              0.000              1.377
 Translational            0.889              2.981             42.377
 Rotational               0.889              2.981             32.561
 Vibrational            116.998             46.259             37.075
 Vibration     1          0.594              1.980              5.172
 Vibration     2          0.605              1.946              3.371
 Vibration     3          0.606              1.941              3.263
 Vibration     4          0.618              1.905              2.695
 Vibration     5          0.624              1.884              2.478
 Vibration     6          0.643              1.823              2.031
 Vibration     7          0.659              1.773              1.776
 Vibration     8          0.692              1.675              1.421
 Vibration     9          0.694              1.669              1.402
 Vibration    10          0.714              1.611              1.249
 Vibration    11          0.719              1.597              1.215
 Vibration    12          0.746              1.523              1.059
 Vibration    13          0.766              1.470              0.962
 Vibration    14          0.771              1.456              0.939
 Vibration    15          0.814              1.348              0.779
 Vibration    16          0.855              1.252              0.660
 Vibration    17          0.861              1.238              0.645
 Vibration    18          0.899              1.154              0.558
 Vibration    19          0.929              1.090              0.499
 Vibration    20          0.946              1.056              0.470

                           ! Non-Optimized Parameters !
 Normal termination of Gaussian 16 at Sun Feb 11 16:15:45 2024.
