 Q-Chem 5.4, Q-Chem, Inc., Pleasanton, CA (2021)
 Q-Chem 5.4.0 for Intel X86 EM64T Linux

User input:
--------------------------------------------------------------
$molecule
0 1
Cl                 2.9875740000      2.8527520000      0.3363760000
C                  2.6320530000      1.1413480000      0.2643020000
C                  3.7413060000      0.2985990000      0.3449430000
C                  3.5842240000     -1.0803480000      0.2985710000
C                  2.3144800000     -1.6264500000      0.1710380000
C                  1.1995650000     -0.7939240000      0.0896800000
C                 -0.1337920000     -1.4664010000     -0.0464120000
O                 -0.2165250000     -2.6831350000     -0.0822090000
C                 -1.3387340000     -0.6065830000     -0.1350460000
C                 -2.5990320000     -1.2005600000     -0.2625390000
C                 -3.7357300000     -0.4073790000     -0.3467190000
C                 -3.6210640000      0.9852310000     -0.3040720000
C                 -2.3721180000      1.5809360000     -0.1774940000
C                 -1.2211670000      0.7904150000     -0.0919500000
C                  0.1035470000      1.4753220000      0.0435630000
O                  0.1518480000      2.6908590000      0.0763030000
C                  1.3300390000      0.6168230000      0.1343800000
H                  4.7244620000      0.7403280000      0.4441600000
H                  4.4550020000     -1.7225400000      0.3623380000
H                  2.1577530000     -2.6965160000      0.1319320000
H                 -2.6603890000     -2.2812780000     -0.2931430000
H                 -4.7116910000     -0.8687430000     -0.4454990000
H                 -4.5088980000      1.6038500000     -0.3698780000
H                 -2.2627130000      2.6573930000     -0.1426240000
$end
$rem
MAX_SCF_CYCLES=200
BASIS  =  6-311++G(d,p)
GUI  =  2
JOB_TYPE  =  SP
METHOD  =  B3LYP
SOLVENT_METHOD = PCM
$end
$pcm
theory = CPCM
$end
$solvent
dielectric 37.219
opticaldielectric 1.43
$end

--------------------------------------------------------------

             Standard Nuclear Orientation (Angstroms)
    I     Atom           X                Y                Z
 ----------------------------------------------------------------
    1      Cl      2.9875740000     2.8527520000     0.3363760000
    2      C       2.6320530000     1.1413480000     0.2643020000
    3      C       3.7413060000     0.2985990000     0.3449430000
    4      C       3.5842240000    -1.0803480000     0.2985710000
    5      C       2.3144800000    -1.6264500000     0.1710380000
    6      C       1.1995650000    -0.7939240000     0.0896800000
    7      C      -0.1337920000    -1.4664010000    -0.0464120000
    8      O      -0.2165250000    -2.6831350000    -0.0822090000
    9      C      -1.3387340000    -0.6065830000    -0.1350460000
   10      C      -2.5990320000    -1.2005600000    -0.2625390000
   11      C      -3.7357300000    -0.4073790000    -0.3467190000
   12      C      -3.6210640000     0.9852310000    -0.3040720000
   13      C      -2.3721180000     1.5809360000    -0.1774940000
   14      C      -1.2211670000     0.7904150000    -0.0919500000
   15      C       0.1035470000     1.4753220000     0.0435630000
   16      O       0.1518480000     2.6908590000     0.0763030000
   17      C       1.3300390000     0.6168230000     0.1343800000
   18      H       4.7244620000     0.7403280000     0.4441600000
   19      H       4.4550020000    -1.7225400000     0.3623380000
   20      H       2.1577530000    -2.6965160000     0.1319320000
   21      H      -2.6603890000    -2.2812780000    -0.2931430000
   22      H      -4.7116910000    -0.8687430000    -0.4454990000
   23      H      -4.5088980000     1.6038500000    -0.3698780000
   24      H      -2.2627130000     2.6573930000    -0.1426240000
 ----------------------------------------------------------------

    9   -1148.5775003051      1.93e-06  Convergence criterion met
 Total energy in the final basis set =    -1148.5775003051

                    Orbital Energies (a.u.)
 --------------------------------------------------------------

 Alpha MOs
 -- Occupied --
******** -19.1342 -19.1333 -10.2899 -10.2865 -10.2655 -10.2255 -10.2172
-10.2099 -10.2084 -10.2065 -10.2040 -10.2002 -10.1978 -10.1976 -10.1970
-10.1966  -9.4810  -7.2455  -7.2362  -7.2350  -1.0722  -1.0696  -0.9163
 -0.8899  -0.8625  -0.8156  -0.7791  -0.7752  -0.7643  -0.6925  -0.6707
 -0.6497  -0.6145  -0.5852  -0.5670  -0.5598  -0.5106  -0.4964  -0.4925
 -0.4890  -0.4643  -0.4614  -0.4575  -0.4507  -0.4486  -0.4460  -0.4255
 -0.4092  -0.4018  -0.3882  -0.3792  -0.3775  -0.3686  -0.3518  -0.3359
 -0.2948  -0.2897  -0.2800  -0.2789  -0.2718  -0.2708

          Ground-State Mulliken Net Atomic Charges

     Atom                 Charge (a.u.)
  ----------------------------------------
      1 Cl                    0.401622
      2 C                     1.010818
      3 C                    -0.064887
      4 C                    -0.581889
      5 C                     0.357875
      6 C                     0.224584
      7 C                    -0.802968
      8 O                    -0.275307
      9 C                    -0.016416
     10 C                     0.189280
     11 C                    -0.415679
     12 C                    -0.440829
     13 C                     0.265223
     14 C                     0.052961
     15 C                    -1.265865
     16 O                    -0.190830
     17 C                     0.023273
     18 H                     0.246949
     19 H                     0.231719
     20 H                     0.204369
     21 H                     0.198573
     22 H                     0.223514
     23 H                     0.225884
     24 H                     0.198029
  ----------------------------------------
  Sum of atomic charges =     0.000000

                    Cartesian Multipole Moments
 -----------------------------------------------------------------
    Charge (ESU x 10^10)
                -0.0000
    Dipole Moment (Debye)
         X      -0.5226      Y      -1.8492      Z      -0.0892
       Tot       1.9237
    Quadrupole Moments (Debye-Ang)
        XX     -71.5293     XY      -9.5715     YY    -119.9759
        XZ       2.9023     YZ      -1.1832     ZZ    -105.9682

 Total job time:  60.20s(wall), 297.14s(cpu)
        *  Thank you very much for using Q-Chem.  Have a nice day.  *
