 Q-Chem 5.4, Q-Chem, Inc., Pleasanton, CA (2021)
 Q-Chem 5.4.0 for Intel X86 EM64T Linux

User input:
--------------------------------------------------------------
$molecule
0 1
C                  0.2648120000      1.4370410000     -0.8552090000
C                 -1.0133780000      0.6595150000     -0.8552600000
C                 -0.9691690000     -0.6901470000     -0.8552820000
C                  0.3435880000     -1.4028390000     -0.8552560000
C                  1.6217780000     -0.6253130000     -0.8551900000
C                  1.5775700000      0.7243490000     -0.8551640000
O                  0.2452630000      2.6601170000     -0.8551610000
O                  0.3631370000     -2.6259150000     -0.8552550000
C                  2.7887440000      1.6115740000     -0.8550980000
C                  2.8971190000     -1.4272510000     -0.8551550000
C                 -2.2887190000      1.4614520000     -0.8552840000
C                 -2.1803430000     -1.5773730000     -0.8553340000
H                  3.7144140000      1.0392270000     -0.8550060000
H                  2.7793770000      2.2700090000      0.0180530000
H                  2.7795180000      2.2699460000     -1.7283000000
H                  2.6693430000     -2.4915690000     -0.8551840000
H                  3.5045500000     -1.2034240000      0.0264330000
H                  3.5046190000     -1.2033900000     -1.7366880000
H                 -2.0609430000      2.5257710000     -0.8552520000
H                 -2.8962140000      1.2375890000      0.0262510000
H                 -2.8961550000      1.2376290000     -1.7368700000
H                 -3.1060140000     -1.0050250000     -0.8553200000
H                 -2.1710560000     -2.2358160000      0.0178120000
H                 -2.1710380000     -2.2357370000     -1.7285410000
$end

$rem
BASIS  =  6-311++G(d,p)
GUI  =  2
JOB_TYPE  =  SP
METHOD  =  B3LYP
SCF_CONVERGENCE  = 8
SOLVENT_METHOD = sm12
$end

$smx
solvent dimethylformamide
charges CM5
$end

--------------------------------------------------------------

             Standard Nuclear Orientation (Angstroms)
    I     Atom           X                Y                Z
 ----------------------------------------------------------------
    1      C       0.2648120000     1.4370410000    -0.8552090000
    2      C      -1.0133780000     0.6595150000    -0.8552600000
    3      C      -0.9691690000    -0.6901470000    -0.8552820000
    4      C       0.3435880000    -1.4028390000    -0.8552560000
    5      C       1.6217780000    -0.6253130000    -0.8551900000
    6      C       1.5775700000     0.7243490000    -0.8551640000
    7      O       0.2452630000     2.6601170000    -0.8551610000
    8      O       0.3631370000    -2.6259150000    -0.8552550000
    9      C       2.7887440000     1.6115740000    -0.8550980000
   10      C       2.8971190000    -1.4272510000    -0.8551550000
   11      C      -2.2887190000     1.4614520000    -0.8552840000
   12      C      -2.1803430000    -1.5773730000    -0.8553340000
   13      H       3.7144140000     1.0392270000    -0.8550060000
   14      H       2.7793770000     2.2700090000     0.0180530000
   15      H       2.7795180000     2.2699460000    -1.7283000000
   16      H       2.6693430000    -2.4915690000    -0.8551840000
   17      H       3.5045500000    -1.2034240000     0.0264330000
   18      H       3.5046190000    -1.2033900000    -1.7366880000
   19      H      -2.0609430000     2.5257710000    -0.8552520000
   20      H      -2.8962140000     1.2375890000     0.0262510000
   21      H      -2.8961550000     1.2376290000    -1.7368700000
   22      H      -3.1060140000    -1.0050250000    -0.8553200000
   23      H      -2.1710560000    -2.2358160000     0.0178120000
   24      H      -2.1710380000    -2.2357370000    -1.7285410000
 ----------------------------------------------------------------

   13    -538.8806035899      2.55e-09  Convergence criterion met
 Total energy in the final basis set =     -538.8932331342

                    Orbital Energies (a.u.)
 --------------------------------------------------------------

 Alpha MOs
 -- Occupied --
-19.1297 -19.1297 -10.2741 -10.2741 -10.2065 -10.2064 -10.2055 -10.2055
-10.1696 -10.1696 -10.1683 -10.1683  -1.0626  -1.0607  -0.8629  -0.8256
 -0.7466  -0.7434  -0.7167  -0.6621  -0.6512  -0.5743  -0.5723  -0.5378
 -0.4772  -0.4653  -0.4580  -0.4378  -0.4323  -0.4278  -0.4170  -0.4142
 -0.4078  -0.4078  -0.3941  -0.3904  -0.3884  -0.3862  -0.3770  -0.3607
 -0.2885  -0.2848  -0.2662  -0.2637

          Ground-State Mulliken Net Atomic Charges

     Atom                 Charge (a.u.)
  ----------------------------------------
      1 C                    -1.902659
      2 C                     0.382228
      3 C                     0.817356
      4 C                    -1.902658
      5 C                     0.382225
      6 C                     0.817358
      7 O                    -0.281154
      8 O                    -0.281154
      9 C                    -0.010914
     10 C                    -0.220867
     11 C                    -0.220866
     12 C                    -0.010919
     13 H                     0.253991
     14 H                     0.173310
     15 H                     0.173321
     16 H                     0.176999
     17 H                     0.219194
     18 H                     0.219198
     19 H                     0.176999
     20 H                     0.219195
     21 H                     0.219197
     22 H                     0.253991
     23 H                     0.173312
     24 H                     0.173318
  ----------------------------------------
  Sum of atomic charges =     0.000000

                    Cartesian Multipole Moments
 -----------------------------------------------------------------
    Charge (ESU x 10^10)
                 0.0000
    Dipole Moment (Debye)
         X      -0.0000      Y       0.0000      Z      -0.0001
       Tot       0.0001
    Quadrupole Moments (Debye-Ang)
        XX     -59.1727     XY       1.0856     YY     -88.6928
        XZ       0.0004     YZ      -0.0003     ZZ     -71.0172

 Total job time:  295.38s(wall), 2161.99s(cpu)
        *  Thank you very much for using Q-Chem.  Have a nice day.  *
