 Q-Chem 5.4, Q-Chem, Inc., Pleasanton, CA (2021)
 Q-Chem 5.4.0 for Intel X86 EM64T Linux

User input:
--------------------------------------------------------------
$molecule
0 1
N                 -3.3007170000     -0.9427580000      0.2271520000
C                 -2.1195960000     -0.2855610000      0.2148790000
C                 -1.9410070000      1.0394140000      0.4774360000
C                 -0.6367000000      1.6752430000      0.4446460000
O                 -0.4915310000      2.8698210000      0.6836420000
C                  0.5514200000      0.8181800000      0.1046370000
C                  1.8230430000      1.3866420000      0.0614960000
C                  2.9296360000      0.6007920000     -0.2525770000
C                  2.7737370000     -0.7598170000     -0.5260240000
C                  1.5088460000     -1.3361900000     -0.4854280000
C                  0.3951900000     -0.5510020000     -0.1705950000
C                 -0.9471590000     -1.1716910000     -0.1294510000
O                 -1.1441430000     -2.3544140000     -0.3590860000
H                 -4.1658740000     -0.4781600000      0.4411920000
H                 -3.2970290000     -1.9291660000      0.0142270000
H                 -2.7782240000      1.6830750000      0.7255310000
H                  1.9222870000      2.4434570000      0.2767310000
H                  3.9165550000      1.0486300000     -0.2846400000
H                  3.6375800000     -1.3674010000     -0.7699400000
H                  1.3636860000     -2.3890940000     -0.6938270000
$end
$rem
MAX_SCF_CYCLES=200
BASIS  =  6-311++G(d,p)
GUI  =  2
JOB_TYPE  =  SP
METHOD  =  B3LYP
SOLVENT_METHOD = COSMO
$end
$solvent
dielectric 37.219
opticaldielectric 1.43
$end

--------------------------------------------------------------

             Standard Nuclear Orientation (Angstroms)
    I     Atom           X                Y                Z
 ----------------------------------------------------------------
    1      N       3.3239482829    -0.4398895194    -0.0000219165
    2      C       2.0507272257     0.0139975577     0.0000044589
    3      C       1.6700446543     1.3222290778     0.0001761442
    4      C       0.2778505535     1.7325533618     0.0000373865
    5      O      -0.0496218907     2.9149118187    -0.0000123942
    6      C      -0.7698445129     0.6536060574    -0.0000121745
    7      C      -2.1192625026     1.0016094051    -0.0000805561
    8      C      -3.0969769006     0.0092260644    -0.0000565104
    9      C      -2.7333663719    -1.3391514759     0.0000011105
   10      C      -1.3894120404    -1.6963487131     0.0000294580
   11      C      -0.4045872967    -0.7033784600     0.0000235694
   12      C       1.0230523210    -1.0915712250     0.0000445071
   13      O       1.4001377002    -2.2526807121     0.0000550516
   14      H       4.1114167950     0.1846532918    -0.0008449625
   15      H       3.4717645140    -1.4381387481    -0.0005102974
   16      H       2.4022052553     2.1226813005     0.0002796525
   17      H      -2.3800040004     2.0528217009    -0.0001175674
   18      H      -4.1452955795     0.2860364124    -0.0000938069
   19      H      -3.4975054243    -2.1078969270     0.0000284820
   20      H      -1.0836967929    -2.7354091484     0.0000662941
 ----------------------------------------------------------------

    9    -590.6501049520      6.04e-06  Convergence criterion met
 Total energy in the final basis set =     -590.6501049520
    5    -590.6691164064      5.60e-06  Convergence criterion met
 Total energy in the final basis set =     -590.6691164064

                    Orbital Energies (a.u.)
 --------------------------------------------------------------

 Alpha MOs
 -- Occupied --
-19.1452 -19.1170 -14.3471 -10.2929 -10.2705 -10.2531 -10.2069 -10.2051
-10.1973 -10.1960 -10.1935 -10.1928 -10.1804  -1.0804  -1.0510  -0.9475
 -0.8873  -0.8185  -0.7765  -0.7629  -0.6962  -0.6471  -0.6401  -0.5921
 -0.5702  -0.5438  -0.5162  -0.5046  -0.4851  -0.4670  -0.4586  -0.4512
 -0.4487  -0.4388  -0.4219  -0.4167  -0.3861  -0.3800  -0.3665  -0.3604
 -0.2961  -0.2846  -0.2769  -0.2728  -0.2401

          Ground-State Mulliken Net Atomic Charges

     Atom                 Charge (a.u.)
  ----------------------------------------
      1 N                    -0.447526
      2 C                     0.232806
      3 C                     0.523144
      4 C                    -0.549461
      5 O                    -0.384585
      6 C                     0.169358
      7 C                     0.248809
      8 C                    -0.362234
      9 C                    -0.414296
     10 C                     0.188810
     11 C                     0.342103
     12 C                    -0.991148
     13 O                    -0.305901
     14 H                     0.351263
     15 H                     0.330734
     16 H                     0.219909
     17 H                     0.193636
     18 H                     0.229052
     19 H                     0.228394
     20 H                     0.197134
  ----------------------------------------
  Sum of atomic charges =     0.000000

                    Cartesian Multipole Moments
 -----------------------------------------------------------------
    Charge (ESU x 10^10)
                 0.0000
    Dipole Moment (Debye)
         X       1.4338      Y      -3.2205      Z      -0.0026
       Tot       3.5252
    Quadrupole Moments (Debye-Ang)
        XX     -43.6229     XY       5.6098     YY     -92.3634
        XZ      -0.0104     YZ       0.0012     ZZ     -77.7181

 Total job time:  27.24s(wall), 193.45s(cpu)
        *  Thank you very much for using Q-Chem.  Have a nice day.  *
