 Q-Chem 5.4, Q-Chem, Inc., Pleasanton, CA (2021)
 Q-Chem 5.4.0 for Intel X86 EM64T Linux

User input:
--------------------------------------------------------------
$molecule
-2 1
N                 -2.0478470000      2.9224050000     -0.2256380000
C                 -2.0760680000      1.5149820000     -0.0235010000
C                 -3.2904090000      0.8666780000      0.0700240000
C                 -3.3620600000     -0.5443900000      0.1845350000
C                 -2.2198750000     -1.3181260000      0.2062760000
N                 -2.3349100000     -2.7352380000      0.2333800000
C                 -0.9131020000     -0.6958840000      0.1623130000
C                  0.2793490000     -1.5044140000      0.2943170000
O                  0.2656950000     -2.8039430000      0.4404740000
C                  1.5302090000     -0.7985140000      0.2769970000
C                  2.7459710000     -1.5249880000      0.3927830000
C                  3.9769680000     -0.9044130000      0.3933610000
C                  4.0490450000      0.5153780000      0.2787770000
C                  2.8868000000      1.2485530000      0.1688560000
C                  1.6031780000      0.6389630000      0.1608870000
C                  0.4298790000      1.4606940000      0.0546450000
O                  0.5481720000      2.7615420000     -0.0094120000
C                 -0.8389050000      0.7655550000      0.0440100000
H                 -1.0655060000      3.2372790000     -0.1092330000
H                 -2.6900030000      3.3970190000      0.3976350000
H                 -4.2060130000      1.4517700000     -0.0086840000
H                 -4.3324950000     -1.0393940000      0.1937370000
H                 -3.0168440000     -3.0366640000      0.9190610000
H                 -1.3883190000     -3.1246240000      0.4065920000
H                  2.6552200000     -2.6029180000      0.4810090000
H                  4.8894040000     -1.4928130000      0.4798980000
H                  5.0167340000      1.0152040000      0.2774660000
H                  2.9057310000      2.3303020000      0.0827600000
$end

$rem
BASIS  =  6-311++G(d,p)
GUI  =  2
JOB_TYPE  =  SP
METHOD  =  B3LYP
SCF_CONVERGENCE  = 8
SOLVENT_METHOD = sm12
$end

$smx
solvent dimethylformamide
charges CM5
$end

--------------------------------------------------------------

             Standard Nuclear Orientation (Angstroms)
    I     Atom           X                Y                Z
 ----------------------------------------------------------------
    1      N      -2.0478470000     2.9224050000    -0.2256380000
    2      C      -2.0760680000     1.5149820000    -0.0235010000
    3      C      -3.2904090000     0.8666780000     0.0700240000
    4      C      -3.3620600000    -0.5443900000     0.1845350000
    5      C      -2.2198750000    -1.3181260000     0.2062760000
    6      N      -2.3349100000    -2.7352380000     0.2333800000
    7      C      -0.9131020000    -0.6958840000     0.1623130000
    8      C       0.2793490000    -1.5044140000     0.2943170000
    9      O       0.2656950000    -2.8039430000     0.4404740000
   10      C       1.5302090000    -0.7985140000     0.2769970000
   11      C       2.7459710000    -1.5249880000     0.3927830000
   12      C       3.9769680000    -0.9044130000     0.3933610000
   13      C       4.0490450000     0.5153780000     0.2787770000
   14      C       2.8868000000     1.2485530000     0.1688560000
   15      C       1.6031780000     0.6389630000     0.1608870000
   16      C       0.4298790000     1.4606940000     0.0546450000
   17      O       0.5481720000     2.7615420000    -0.0094120000
   18      C      -0.8389050000     0.7655550000     0.0440100000
   19      H      -1.0655060000     3.2372790000    -0.1092330000
   20      H      -2.6900030000     3.3970190000     0.3976350000
   21      H      -4.2060130000     1.4517700000    -0.0086840000
   22      H      -4.3324950000    -1.0393940000     0.1937370000
   23      H      -3.0168440000    -3.0366640000     0.9190610000
   24      H      -1.3883190000    -3.1246240000     0.4065920000
   25      H       2.6552200000    -2.6029180000     0.4810090000
   26      H       4.8894040000    -1.4928130000     0.4798980000
   27      H       5.0167340000     1.0152040000     0.2774660000
   28      H       2.9057310000     2.3303020000     0.0827600000
 ----------------------------------------------------------------

   17    -799.6768437908      7.60e-09  Convergence criterion met
 Total energy in the final basis set =     -799.9590923048

                    Orbital Energies (a.u.)
 --------------------------------------------------------------

 Alpha MOs
 -- Occupied --
-19.0382 -19.0382 -14.2916 -14.2916 -10.1993 -10.1993 -10.1965 -10.1965
-10.1745 -10.1741 -10.1696 -10.1695 -10.1643 -10.1640 -10.1599 -10.1594
-10.1571 -10.1568  -0.9568  -0.9537  -0.8958  -0.8864  -0.8462  -0.8089
 -0.7704  -0.7447  -0.7265  -0.7036  -0.6560  -0.6269  -0.6175  -0.5716
 -0.5468  -0.5373  -0.5176  -0.4971  -0.4720  -0.4622  -0.4600  -0.4535
 -0.4363  -0.4271  -0.4190  -0.4026  -0.3993  -0.3767  -0.3764  -0.3731
 -0.3730  -0.3566  -0.3496  -0.3394  -0.3255  -0.3211  -0.3164  -0.2636
 -0.2490  -0.2393  -0.2379  -0.2165  -0.2144  -0.1894  -0.1222

          Ground-State Mulliken Net Atomic Charges

     Atom                 Charge (a.u.)
  ----------------------------------------
      1 N                    -0.245865
      2 C                    -1.018213
      3 C                     2.090858
      4 C                     2.089916
      5 C                    -1.023038
      6 N                    -0.244958
      7 C                    -1.761089
      8 C                    -2.191843
      9 O                    -0.279874
     10 C                    -1.298747
     11 C                     0.320777
     12 C                     1.866413
     13 C                     1.864778
     14 C                     0.317382
     15 C                    -1.297700
     16 C                    -2.191805
     17 O                    -0.279929
     18 C                    -1.766244
     19 H                     0.282167
     20 H                     0.364739
     21 H                     0.313805
     22 H                     0.313871
     23 H                     0.364950
     24 H                     0.282332
     25 H                     0.151737
     26 H                     0.412041
     27 H                     0.411894
     28 H                     0.151643
  ----------------------------------------
  Sum of atomic charges =    -2.000000

                    Cartesian Multipole Moments
 -----------------------------------------------------------------
    Charge (ESU x 10^10)
                -9.6064
    Dipole Moment (Debye)
         X      -0.4176      Y       0.2162      Z       0.3293
       Tot       0.5740
    Quadrupole Moments (Debye-Ang)
        XX    -151.8836     XY      -1.2346     YY    -164.3027
        XZ      -7.4152     YZ       3.8684     ZZ    -121.1961

 Total job time:  740.95s(wall), 5612.57s(cpu)
        *  Thank you very much for using Q-Chem.  Have a nice day.  *
