 Q-Chem 5.4, Q-Chem, Inc., Pleasanton, CA (2021)
 Q-Chem 5.4.0 for Intel X86 EM64T Linux

User input:
--------------------------------------------------------------
$molecule
-2 1
C                 -2.0775870000      2.9962350000      0.4624520000
C                 -2.8193860000      2.3165150000      1.4088860000
C                 -2.3543390000      1.0796740000      1.9184610000
C                 -0.8473540000      2.4839530000     -0.0202050000
C                 -0.3723670000      1.2265510000      0.4987930000
C                 -1.1525500000      0.5605780000      1.4616310000
C                 -0.0863110000      3.1972250000     -1.0054340000
C                  1.1405220000      2.5819100000     -1.4170610000
C                  1.6299420000      1.3700960000     -0.9456630000
C                  0.8937140000      0.6310770000      0.0491940000
O                 -0.4094290000      4.3284310000     -1.5454470000
O                  1.3101430000     -0.4792760000      0.5117500000
H                 -2.4144890000      3.9452820000      0.0580360000
H                 -3.7606030000      2.7309450000      1.7637020000
H                 -2.9360820000      0.5426880000      2.6636220000
H                 -0.7686240000     -0.3838350000      1.8338810000
C                  2.9277280000      0.7985850000     -1.4577880000
O                  1.8172370000      3.3162910000     -2.3613410000
H                  3.1086040000      1.1531060000     -2.4791140000
H                  2.8299800000     -0.2928240000     -1.4817310000
H                  1.2002660000      4.0810780000     -2.4620390000
C                  4.1512890000      1.1490100000     -0.5867970000
C                  5.4568160000      0.5332980000     -1.1057380000
C                  6.6936960000      0.8795700000     -0.2664370000
H                  3.9576970000      0.7997750000      0.4331790000
H                  4.2547030000      2.2400550000     -0.5393990000
H                  5.6246120000      0.8618080000     -2.1413660000
H                  5.3455620000     -0.5588670000     -1.1479740000
H                  6.5305980000      0.5495980000      0.7680340000
H                  6.8041170000      1.9713960000     -0.2215160000
C                  7.9958180000      0.2631460000     -0.7945810000
C                  9.2387670000      0.6153350000      0.0329970000
C                 10.5377810000     -0.0004010000     -0.5026990000
C                 11.7829080000      0.3556040000      0.3200110000
C                 13.0798620000     -0.2606090000     -0.2195870000
C                 14.3251970000      0.0987950000      0.6015470000
C                 15.6189900000     -0.5156510000      0.0591510000
H                  8.1521470000      0.5874270000     -1.8324150000
H                  7.8870980000     -0.8291220000     -0.8334120000
H                  9.0858150000      0.2894270000      1.0704510000
H                  9.3473460000      1.7074520000      0.0729290000
H                 10.6885960000      0.3228190000     -1.5414170000
H                 10.4309720000     -1.0927700000     -0.5399330000
H                 11.6340210000      0.0316010000      1.3586670000
H                 11.8906240000      1.4478620000      0.3568050000
H                 13.2301000000      0.0614530000     -1.2584060000
H                 12.9761200000     -1.3530400000     -0.2548650000
H                 14.1773280000     -0.2239870000      1.6400960000
H                 14.4294540000      1.1907840000      0.6382420000
H                 15.5685980000     -1.6105090000      0.0462680000
H                 16.4858910000     -0.2382010000      0.6685270000
H                 15.8227660000     -0.1823510000     -0.9649690000
$end

$rem
BASIS  =  6-311++G(d,p)
GUI  =  2
JOB_TYPE  =  SP
METHOD  =  B3LYP
THRESH      14
SCF_CONVERGENCE  = 5
SOLVENT_METHOD = sm12
$end

$smx
solvent dimethylformamide
charges CM5
$end

--------------------------------------------------------------

             Standard Nuclear Orientation (Angstroms)
    I     Atom           X                Y                Z
 ----------------------------------------------------------------
    1      C      -2.0775870000     2.9962350000     0.4624520000
    2      C      -2.8193860000     2.3165150000     1.4088860000
    3      C      -2.3543390000     1.0796740000     1.9184610000
    4      C      -0.8473540000     2.4839530000    -0.0202050000
    5      C      -0.3723670000     1.2265510000     0.4987930000
    6      C      -1.1525500000     0.5605780000     1.4616310000
    7      C      -0.0863110000     3.1972250000    -1.0054340000
    8      C       1.1405220000     2.5819100000    -1.4170610000
    9      C       1.6299420000     1.3700960000    -0.9456630000
   10      C       0.8937140000     0.6310770000     0.0491940000
   11      O      -0.4094290000     4.3284310000    -1.5454470000
   12      O       1.3101430000    -0.4792760000     0.5117500000
   13      H      -2.4144890000     3.9452820000     0.0580360000
   14      H      -3.7606030000     2.7309450000     1.7637020000
   15      H      -2.9360820000     0.5426880000     2.6636220000
   16      H      -0.7686240000    -0.3838350000     1.8338810000
   17      C       2.9277280000     0.7985850000    -1.4577880000
   18      O       1.8172370000     3.3162910000    -2.3613410000
   19      H       3.1086040000     1.1531060000    -2.4791140000
   20      H       2.8299800000    -0.2928240000    -1.4817310000
   21      H       1.2002660000     4.0810780000    -2.4620390000
   22      C       4.1512890000     1.1490100000    -0.5867970000
   23      C       5.4568160000     0.5332980000    -1.1057380000
   24      C       6.6936960000     0.8795700000    -0.2664370000
   25      H       3.9576970000     0.7997750000     0.4331790000
   26      H       4.2547030000     2.2400550000    -0.5393990000
   27      H       5.6246120000     0.8618080000    -2.1413660000
   28      H       5.3455620000    -0.5588670000    -1.1479740000
   29      H       6.5305980000     0.5495980000     0.7680340000
   30      H       6.8041170000     1.9713960000    -0.2215160000
   31      C       7.9958180000     0.2631460000    -0.7945810000
   32      C       9.2387670000     0.6153350000     0.0329970000
   33      C      10.5377810000    -0.0004010000    -0.5026990000
   34      C      11.7829080000     0.3556040000     0.3200110000
   35      C      13.0798620000    -0.2606090000    -0.2195870000
   36      C      14.3251970000     0.0987950000     0.6015470000
   37      C      15.6189900000    -0.5156510000     0.0591510000
   38      H       8.1521470000     0.5874270000    -1.8324150000
   39      H       7.8870980000    -0.8291220000    -0.8334120000
   40      H       9.0858150000     0.2894270000     1.0704510000
   41      H       9.3473460000     1.7074520000     0.0729290000
   42      H      10.6885960000     0.3228190000    -1.5414170000
   43      H      10.4309720000    -1.0927700000    -0.5399330000
   44      H      11.6340210000     0.0316010000     1.3586670000
   45      H      11.8906240000     1.4478620000     0.3568050000
   46      H      13.2301000000     0.0614530000    -1.2584060000
   47      H      12.9761200000    -1.3530400000    -0.2548650000
   48      H      14.1773280000    -0.2239870000     1.6400960000
   49      H      14.4294540000     1.1907840000     0.6382420000
   50      H      15.5685980000    -1.6105090000     0.0462680000
   51      H      16.4858910000    -0.2382010000     0.6685270000
   52      H      15.8227660000    -0.1823510000    -0.9649690000
 ----------------------------------------------------------------

   10   -1043.0603183074      7.25e-06  Convergence criterion met
 Total energy in the final basis set =    -1043.3490003023

                    Orbital Energies (a.u.)
 --------------------------------------------------------------

 Alpha MOs
 -- Occupied --
-19.1189 -19.0291 -19.0229 -10.1866 -10.1826 -10.1706 -10.1703 -10.1657
-10.1652 -10.1651 -10.1646 -10.1638 -10.1636 -10.1631 -10.1627 -10.1623
-10.1622 -10.1620 -10.1600 -10.1574 -10.1571 -10.1470 -10.1443 -10.1342
 -1.0326  -0.9463  -0.9363  -0.8402  -0.8161  -0.8040  -0.7879  -0.7717
 -0.7512  -0.7388  -0.7269  -0.7007  -0.6702  -0.6435  -0.6277  -0.6029
 -0.5932  -0.5803  -0.5761  -0.5743  -0.5681  -0.5481  -0.5169  -0.4880
 -0.4845  -0.4763  -0.4612  -0.4525  -0.4432  -0.4396  -0.4336  -0.4278
 -0.4251  -0.4205  -0.4117  -0.4075  -0.3989  -0.3940  -0.3833  -0.3765
 -0.3761  -0.3710  -0.3628  -0.3606  -0.3572  -0.3539  -0.3463  -0.3424
 -0.3381  -0.3330  -0.3292  -0.3266  -0.3246  -0.3233  -0.3226  -0.3221
 -0.3180  -0.3117  -0.3040  -0.2975  -0.2456  -0.2335  -0.2150  -0.2013
 -0.1983  -0.1123

          Ground-State Mulliken Net Atomic Charges

     Atom                 Charge (a.u.)
  ----------------------------------------
      1 C                    -0.250224
      2 C                     1.052483
      3 C                     1.059832
      4 C                    -1.931161
      5 C                    -1.937386
      6 C                    -0.515325
      7 C                    -1.919059
      8 C                    -0.096633
      9 C                     1.188325
     10 C                    -2.524075
     11 O                    -0.417243
     12 O                    -0.268409
     13 H                     0.106265
     14 H                     0.377201
     15 H                     0.353004
     16 H                     0.068118
     17 C                    -1.078174
     18 O                    -0.045498
     19 H                     0.155651
     20 H                     0.042573
     21 H                     0.313751
     22 C                    -4.562441
     23 C                    -2.267531
     24 C                    -0.569453
     25 H                     0.023206
     26 H                     0.002015
     27 H                     0.267685
     28 H                     0.255824
     29 H                     0.150487
     30 H                     0.163164
     31 C                     1.434188
     32 C                     2.375301
     33 C                     2.377591
     34 C                     1.636990
     35 C                     1.050963
     36 C                     0.269313
     37 C                    -0.205680
     38 H                     0.096239
     39 H                     0.091157
     40 H                     0.111651
     41 H                     0.111830
     42 H                     0.126477
     43 H                     0.126857
     44 H                     0.120758
     45 H                     0.120766
     46 H                     0.108848
     47 H                     0.108836
     48 H                     0.119198
     49 H                     0.119909
     50 H                     0.141557
     51 H                     0.218536
     52 H                     0.141744
  ----------------------------------------
  Sum of atomic charges =    -2.000000

                    Cartesian Multipole Moments
 -----------------------------------------------------------------
    Charge (ESU x 10^10)
                -9.6064
    Dipole Moment (Debye)
         X      -1.7659      Y     -17.8907      Z       2.7128
       Tot      18.1811
    Quadrupole Moments (Debye-Ang)
        XX    -197.0001     XY      10.0003     YY    -231.8553
        XZ       9.3001     YZ      19.2980     ZZ    -180.0927

 Total job time:  1869.22s(wall), 13413.59s(cpu)
        *  Thank you very much for using Q-Chem.  Have a nice day.  *
