 Gaussian 16, Revision A.03,
 Gaussian 16:  ES64L-G16RevA.03 25-Dec-2016

 --------------------------------------
 #P UB3LYP/6-311++G(d,p) nosym opt freq
 --------------------------------------

 -------
 Reduced
 -------
 Symbolic Z-matrix:
 Charge = -2 Multiplicity = 1

 SCF Done:  E(UB3LYP) =  -2220.03042323     A.U. after   26 cycles
 SCF Done:  E(UB3LYP) =  -2220.05723876     A.U. after   17 cycles
 SCF Done:  E(UB3LYP) =  -2220.06138250     A.U. after   17 cycles
 SCF Done:  E(UB3LYP) =  -2220.06199709     A.U. after   17 cycles
 SCF Done:  E(UB3LYP) =  -2220.06213842     A.U. after   13 cycles
 SCF Done:  E(UB3LYP) =  -2220.06214817     A.U. after   13 cycles
 Optimization completed.
    -- Stationary point found.
 Normal termination of Gaussian 16 at Sat Jan  6 01:57:58 2024.

 ----------------------------------------------------------------------
 #P Geom=AllCheck Guess=TCheck SCRF=Check GenChk UB3LYP/6-311++G(d,p) F
 req
 ----------------------------------------------------------------------

 Structure from the checkpoint file:  "317-an.chk"
 -------
 Reduced
 -------
 Charge = -2 Multiplicity = 1

                          Input orientation:
 ---------------------------------------------------------------------
 Center     Atomic      Atomic             Coordinates (Angstroms)
 Number     Number       Type             X           Y           Z
 ---------------------------------------------------------------------
      1         17           0        3.125202    0.396546   -0.015591
      2          6           0        1.355981    0.170133   -0.006860
      3          6           0        0.792362   -1.131869   -0.058297
      4         17           0        1.890675   -2.548387   -0.132142
      5          6           0       -0.603787   -1.421206   -0.056301
      6          8           0       -1.081220   -2.587378   -0.102620
      7          6           0       -1.529640   -0.217602    0.006593
      8          8           0       -2.780517   -0.378948    0.012857
      9          6           0       -0.891129    1.056012    0.056007
     10          6           0        0.513002    1.265604    0.050375
     11         17           0        1.187351    2.915924    0.115708
     12         17           0       -1.978282    2.481170    0.130272
 ---------------------------------------------------------------------

 SCF Done:  E(UB3LYP) =  -2220.06214817     A.U. after    2 cycles

 Alpha  occ. eigenvalues -- -101.31007-101.31005-101.28396-101.28396 -18.76722
 Alpha  occ. eigenvalues --  -18.76716  -9.96662  -9.96605  -9.93818  -9.93816
 Alpha  occ. eigenvalues --   -9.93509  -9.93486  -9.22449  -9.22447  -9.19810
 Alpha  occ. eigenvalues --   -9.19809  -6.98875  -6.98873  -6.97964  -6.97962
 Alpha  occ. eigenvalues --   -6.97918  -6.97916  -6.96216  -6.96216  -6.95348
 Alpha  occ. eigenvalues --   -6.95348  -6.95285  -6.95285  -0.70587  -0.67684
 Alpha  occ. eigenvalues --   -0.64481  -0.60680  -0.58081  -0.57318  -0.51979
 Alpha  occ. eigenvalues --   -0.42015  -0.40984  -0.29777  -0.29749  -0.22739
 Alpha  occ. eigenvalues --   -0.21744  -0.17791  -0.15712  -0.15639  -0.14037
 Alpha  occ. eigenvalues --   -0.10834  -0.10650  -0.10617  -0.10542  -0.08291
 Alpha  occ. eigenvalues --   -0.08092  -0.07010  -0.06262  -0.04686  -0.03941
 Alpha  occ. eigenvalues --   -0.02432  -0.02182   0.04621   0.06169   0.07103
 Alpha  occ. eigenvalues --    0.12032
 Alpha virt. eigenvalues --    0.19016   0.21316   0.22486   0.23008   0.24281
 Alpha virt. eigenvalues --    0.26414   0.27378   0.27660   0.28091   0.28231
 Alpha virt. eigenvalues --    0.28482   0.28789   0.28899   0.29013   0.29709

  Beta  occ. eigenvalues -- -101.31007-101.31005-101.28396-101.28396 -18.76722
  Beta  occ. eigenvalues --  -18.76716  -9.96662  -9.96605  -9.93818  -9.93816
  Beta  occ. eigenvalues --   -9.93509  -9.93486  -9.22449  -9.22447  -9.19810
  Beta  occ. eigenvalues --   -9.19809  -6.98875  -6.98873  -6.97964  -6.97962
  Beta  occ. eigenvalues --   -6.97918  -6.97916  -6.96216  -6.96216  -6.95348
  Beta  occ. eigenvalues --   -6.95348  -6.95285  -6.95285  -0.70587  -0.67684
  Beta  occ. eigenvalues --   -0.64481  -0.60680  -0.58081  -0.57318  -0.51979
  Beta  occ. eigenvalues --   -0.42015  -0.40984  -0.29777  -0.29749  -0.22739
  Beta  occ. eigenvalues --   -0.21744  -0.17791  -0.15712  -0.15639  -0.14037
  Beta  occ. eigenvalues --   -0.10834  -0.10650  -0.10617  -0.10542  -0.08291
  Beta  occ. eigenvalues --   -0.08092  -0.07010  -0.06262  -0.04686  -0.03941
  Beta  occ. eigenvalues --   -0.02432  -0.02182   0.04621   0.06169   0.07103
  Beta  occ. eigenvalues --    0.12032
  Beta virt. eigenvalues --    0.19016   0.21316   0.22486   0.23008   0.24281
  Beta virt. eigenvalues --    0.26414   0.27378   0.27660   0.28091   0.28231
  Beta virt. eigenvalues --    0.28482   0.28789   0.28899   0.29013   0.29709

 Mulliken charges and spin densities:
               1          2
     1  Cl   0.453974  -0.000000
     2  C   -0.717352   0.000000
     3  C    0.534867  -0.000000
     4  Cl   0.100188   0.000000
     5  C   -0.933162   0.000000
     6  O   -0.437791  -0.000000
     7  C   -0.934786  -0.000000
     8  O   -0.438085  -0.000000
     9  C    0.536291   0.000000
    10  C   -0.718084  -0.000000
    11  Cl   0.453878   0.000000
    12  Cl   0.100062  -0.000000
 Sum of Mulliken charges =  -2.00000  -0.00000

 Dipole moment (field-independent basis, Debye):
    X=              4.8191    Y=              3.6990    Z=              0.1118  Tot=              6.0761
 Quadrupole moment (field-independent basis, Debye-Ang):
   XX=           -152.0750   YY=           -150.3501   ZZ=           -103.6840
   XY=             -3.0914   XZ=              0.3778   YZ=             -2.0269

  Exact polarizability: 194.558  -6.573 197.887  -1.453   5.043  85.125
 Approx polarizability: 306.057   7.108 302.007  -1.582   7.622 127.580

 ******    1 imaginary frequencies (negative Signs) ******

                      1                      2                      3
                      A                      A                      A
 Frequencies --   -102.9605                57.8492               101.1953
 Red. masses --     19.3684                29.9103                17.6449
 Frc consts  --      0.1210                 0.0590                 0.1065
 IR Inten    --      1.8224                 0.0000                 0.0000

                      4                      5                      6
                      A                      A                      A
 Frequencies --    142.3705               192.3564               202.1371
 Red. masses --     15.0916                13.4748                27.2179
 Frc consts  --      0.1802                 0.2938                 0.6552
 IR Inten    --      0.0188                 1.0924                 2.6134

                      7                      8                      9
                      A                      A                      A
 Frequencies --    204.5304               219.4630               228.0812
 Red. masses --     32.7241                34.7041                12.4729
 Frc consts  --      0.8066                 0.9848                 0.3823
 IR Inten    --      1.4680                 0.0069                 0.0000

                     10                     11                     12
                      A                      A                      A
 Frequencies --    277.8170               286.4752               324.2850
 Red. masses --     19.1199                27.7192                28.4566
 Frc consts  --      0.8695                 1.3403                 1.7631
 IR Inten    --      0.0004                 2.4857                 0.7969

                     13                     14                     15
                      A                      A                      A
 Frequencies --    368.8565               399.2027               426.2067
 Red. masses --     17.1797                19.1676                12.0113
 Frc consts  --      1.3772                 1.7997                 1.2855
 IR Inten    --      0.0024                 3.8523                 0.0000

                     16                     17                     18
                      A                      A                      A
 Frequencies --    462.7544               559.8265               632.7471
 Red. masses --     16.6182                12.3658                13.8938
 Frc consts  --      2.0967                 2.2834                 3.2774
 IR Inten    --      0.1405                 9.9118               114.0231

                     19                     20                     21
                      A                      A                      A
 Frequencies --    725.9650               726.4200               761.6753
 Red. masses --     12.8820                13.1564                12.2446
 Frc consts  --      4.0001                 4.0904                 4.1854
 IR Inten    --     65.5595                54.9579                 0.0000

                     22                     23                     24
                      A                      A                      A
 Frequencies --    877.8645               912.1364              1184.9933
 Red. masses --     12.9696                12.3707                12.0594
 Frc consts  --      5.8888                 6.0641                 9.9772
 IR Inten    --      4.1719                70.9672                 5.7319

                     25                     26                     27
                      A                      A                      A
 Frequencies --   1209.2143              1294.5451              1389.1282
 Red. masses --     12.2945                12.2278                12.2167
 Frc consts  --     10.5918                12.0735                13.8896
 IR Inten    --     26.0773                 1.9214                 6.3044

                     28                     29                     30
                      A                      A                      A
 Frequencies --   1484.8072              1512.7308              1555.5314
 Red. masses --     12.1319                12.7547                12.8248
 Frc consts  --     15.7587                17.1966                18.2834
 IR Inten    --    195.2589               250.9623               970.9339

 - Thermochemistry -
 -------------------
 Temperature   298.150 Kelvin.  Pressure   1.00000 Atm.
 Atom     1 has atomic number 17 and mass  34.96885

 Molecular mass:   243.86524 amu.
 Principal axes and moments of inertia in atomic units:
                           1         2         3
     Eigenvalues --  2644.511613626.450386270.96198
           X           -0.60911   0.79301   0.01058
           Y            0.79201   0.60893  -0.04398
           Z            0.04132   0.01841   0.99898
 This molecule is an asymmetric top.
 Rotational symmetry number  1.
 Warning -- assumption of classical behavior for rotation
           may cause significant error
 Rotational temperatures (Kelvin)      0.03275     0.02388     0.01381
 Rotational constants (GHZ):           0.68245     0.49766     0.28779
    1 imaginary frequencies ignored.
 Zero-point vibrational energy     111977.4 (Joules/Mol)
                                   26.76325 (Kcal/Mol)
 Warning -- explicit consideration of  16 degrees of freedom as
           vibrations may cause significant error
 Vibrational temperatures:     83.23   145.60   204.84   276.76   290.83
          (Kelvin)            294.27   315.76   328.16   399.72   412.17
                              466.57   530.70   574.36   613.22   665.80
                              805.47   910.38  1044.50  1045.16  1095.88
                             1263.05  1312.36  1704.94  1739.79  1862.56
                             1998.65  2136.31  2176.48  2238.06

 Zero-point correction=                           0.042650 (Hartree/Particle)
 Thermal correction to Energy=                    0.053687
 Thermal correction to Enthalpy=                  0.054631
 Thermal correction to Gibbs Free Energy=         0.004261
 Sum of electronic and zero-point Energies=          -2220.019498
 Sum of electronic and thermal Energies=             -2220.008461
 Sum of electronic and thermal Enthalpies=           -2220.007517
 Sum of electronic and thermal Free Energies=        -2220.057887

                     E (Thermal)             CV                S
                      KCal/Mol        Cal/Mol-Kelvin    Cal/Mol-Kelvin
 Total                   33.689             37.978            106.013
 Electronic               0.000              0.000              0.000
 Translational            0.889              2.981             42.375
 Rotational               0.889              2.981             32.464
 Vibrational             31.912             32.016             31.174
 Vibration     1          0.596              1.974              4.529
 Vibration     2          0.604              1.948              3.431
 Vibration     3          0.616              1.911              2.772
 Vibration     4          0.634              1.850              2.205
 Vibration     5          0.639              1.837              2.114
 Vibration     6          0.640              1.833              2.092
 Vibration     7          0.647              1.811              1.964
 Vibration     8          0.651              1.798              1.894
 Vibration     9          0.679              1.715              1.547
 Vibration    10          0.684              1.699              1.495
 Vibration    11          0.709              1.627              1.288
 Vibration    12          0.741              1.536              1.085
 Vibration    13          0.765              1.472              0.966
 Vibration    14          0.788              1.413              0.871
 Vibration    15          0.820              1.333              0.758
 Vibration    16          0.915              1.118              0.524

 Optimization completed.
    -- Stationary point found.
 Normal termination of Gaussian 16 at Sat Jan  6 02:09:28 2024.
