 Gaussian 16, Revision A.03,
 Gaussian 16:  ES64L-G16RevA.03 25-Dec-2016

 ----------------------------------------------------------------
 #P UB3LYP/6-311++G(d,p) SCRF=(PCM,Solvent=n,n-DiMethylFormamide)
 ----------------------------------------------------------------

 ------------------
 Quinone PCM in DMF
 ------------------
 Symbolic Z-matrix:
 Charge =  0 Multiplicity = 1

                         Standard orientation:
 ---------------------------------------------------------------------
 Center     Atomic      Atomic             Coordinates (Angstroms)
 Number     Number       Type             X           Y           Z
 ---------------------------------------------------------------------
      1         35           0       -1.645679   -2.027806    0.000822
      2          6           0       -0.743159   -0.361711    0.000060
      3          6           0       -1.459178    0.791601   -0.000197
      4         35           0       -3.346811    0.870783   -0.000544
      5          6           0       -0.779642    2.107870   -0.000027
      6          8           0       -1.359401    3.162475   -0.000084
      7          6           0        0.780494    2.107618    0.000533
      8          8           0        1.360567    3.162050    0.001095
      9          6           0        1.459695    0.791122    0.000220
     10          6           0        0.743117   -0.361947   -0.000011
     11         35           0        1.644703   -2.028781   -0.000606
     12         35           0        3.347293    0.870274   -0.000002
 ---------------------------------------------------------------------

 SCF Done:  E(UB3LYP) =  -10675.7026686     A.U. after   14 cycles

 The electronic state is 1-A.
 Alpha  occ. eigenvalues -- -482.86786-482.86786-482.86034-482.86032 -62.52053
 Alpha  occ. eigenvalues --  -62.52052 -62.51296 -62.51295 -56.34115 -56.34115
 Alpha  occ. eigenvalues --  -56.33713 -56.33713 -56.33651 -56.33651 -56.33356
 Alpha  occ. eigenvalues --  -56.33355 -56.32953 -56.32951 -56.32905 -56.32903
 Alpha  occ. eigenvalues --  -19.16980 -19.16978 -10.31484 -10.31466 -10.30323
 Alpha  occ. eigenvalues --  -10.30295 -10.27818 -10.27815  -8.73025  -8.73024
 Alpha  occ. eigenvalues --   -8.72266  -8.72265  -6.56243  -6.56242  -6.55476
 Alpha  occ. eigenvalues --   -6.55475  -6.54900  -6.54899  -6.54731  -6.54730
 Alpha  occ. eigenvalues --   -6.54129  -6.54128  -6.53994  -6.53992  -2.67326
 Alpha  occ. eigenvalues --   -2.67325  -2.66972  -2.66971  -2.66844  -2.66843
 Alpha  occ. eigenvalues --   -2.66560  -2.66559  -2.66196  -2.66195  -2.66094
 Alpha  occ. eigenvalues --   -2.66093  -2.65773  -2.65772  -2.65771  -2.65770
 Alpha  occ. eigenvalues --   -2.65021  -2.65020  -2.65019  -2.65018  -1.11812
 Alpha  occ. eigenvalues --   -1.09105  -0.93531  -0.88009  -0.84392  -0.82110
 Alpha  occ. eigenvalues --   -0.80737  -0.74582  -0.72344  -0.62710  -0.62678
 Alpha  occ. eigenvalues --   -0.57253  -0.51686  -0.49805  -0.49073  -0.47561
 Alpha  occ. eigenvalues --   -0.45870  -0.44164  -0.43210  -0.42572  -0.42527
 Alpha  occ. eigenvalues --   -0.37184  -0.35205  -0.34700  -0.33976  -0.33259
 Alpha  occ. eigenvalues --   -0.32886  -0.31288  -0.30550  -0.29474  -0.28763
 Alpha  occ. eigenvalues --   -0.26552
 Alpha virt. eigenvalues --   -0.16463  -0.08457  -0.04456  -0.04441  -0.03934
 Alpha virt. eigenvalues --   -0.01323  -0.00664  -0.00063   0.01694   0.02327
 Alpha virt. eigenvalues --    0.03425   0.04098   0.04431   0.04868   0.05321

  Beta  occ. eigenvalues -- -482.86786-482.86786-482.86034-482.86032 -62.52053
  Beta  occ. eigenvalues --  -62.52052 -62.51296 -62.51295 -56.34115 -56.34115
  Beta  occ. eigenvalues --  -56.33713 -56.33713 -56.33651 -56.33651 -56.33356
  Beta  occ. eigenvalues --  -56.33355 -56.32953 -56.32951 -56.32905 -56.32903
  Beta  occ. eigenvalues --  -19.16980 -19.16978 -10.31484 -10.31466 -10.30323
  Beta  occ. eigenvalues --  -10.30295 -10.27818 -10.27815  -8.73025  -8.73024
  Beta  occ. eigenvalues --   -8.72266  -8.72265  -6.56243  -6.56242  -6.55476
  Beta  occ. eigenvalues --   -6.55475  -6.54900  -6.54899  -6.54731  -6.54730
  Beta  occ. eigenvalues --   -6.54129  -6.54128  -6.53994  -6.53992  -2.67326
  Beta  occ. eigenvalues --   -2.67325  -2.66972  -2.66971  -2.66844  -2.66843
  Beta  occ. eigenvalues --   -2.66560  -2.66559  -2.66196  -2.66195  -2.66094
  Beta  occ. eigenvalues --   -2.66093  -2.65773  -2.65772  -2.65771  -2.65770
  Beta  occ. eigenvalues --   -2.65021  -2.65020  -2.65019  -2.65018  -1.11812
  Beta  occ. eigenvalues --   -1.09105  -0.93531  -0.88009  -0.84392  -0.82110
  Beta  occ. eigenvalues --   -0.80737  -0.74582  -0.72344  -0.62710  -0.62678
  Beta  occ. eigenvalues --   -0.57253  -0.51686  -0.49805  -0.49073  -0.47561
  Beta  occ. eigenvalues --   -0.45870  -0.44164  -0.43210  -0.42572  -0.42527
  Beta  occ. eigenvalues --   -0.37184  -0.35205  -0.34700  -0.33976  -0.33259
  Beta  occ. eigenvalues --   -0.32886  -0.31288  -0.30550  -0.29474  -0.28763
  Beta  occ. eigenvalues --   -0.26552
  Beta virt. eigenvalues --   -0.16463  -0.08457  -0.04456  -0.04441  -0.03934
  Beta virt. eigenvalues --   -0.01323  -0.00664  -0.00063   0.01694   0.02327
  Beta virt. eigenvalues --    0.03425   0.04098   0.04431   0.04868   0.05321

 Mulliken charges and spin densities:
               1          2
     1  Br  -0.027371  -0.000000
     2  C   -0.383563  -0.000000
     3  C    0.755342   0.000000
     4  Br  -0.018752  -0.000000
     5  C   -0.113133  -0.000000
     6  O   -0.213121  -0.000000
     7  C   -0.113104  -0.000000
     8  O   -0.213059  -0.000000
     9  C    0.755932   0.000000
    10  C   -0.383072  -0.000000
    11  Br  -0.027415   0.000000
    12  Br  -0.018685  -0.000000
 Sum of Mulliken charges =  -0.00000  -0.00000

 Dipole moment (field-independent basis, Debye):
    X=             -0.0011    Y=             -5.9926    Z=             -0.0010  Tot=              5.9926
 Quadrupole moment (field-independent basis, Debye-Ang):
   XX=           -115.2861   YY=           -134.5684   ZZ=           -115.6582
   XY=              0.0027   XZ=             -0.0039   YZ=             -0.0051

 Normal termination of Gaussian 16 at Sat Jan 13 19:15:45 2024.
