 Q-Chem 5.4, Q-Chem, Inc., Pleasanton, CA (2021)
 Q-Chem 5.4.0 for Intel X86 EM64T Linux

User input:
--------------------------------------------------------------
$molecule
-2 1
C                  4.7341800000      0.1560290000      0.9862550000
C                  3.9477820000     -0.6123910000     -0.0964270000
C                  4.6128890000     -0.4263970000     -1.4742580000
C                  2.4685340000     -0.2499700000     -0.1052420000
C                  2.0282210000      1.0450450000     -0.4971360000
C                  0.6792390000      1.3510470000     -0.5126180000
C                 -0.3234170000      0.4176460000     -0.1572320000
C                  0.1097140000     -0.8958160000      0.2249600000
C                  1.5047260000     -1.1742770000      0.2424930000
C                 -0.8104960000     -1.9566530000      0.6084870000
O                 -0.3890160000     -3.1055450000      0.9243490000
C                 -2.2612250000     -1.6410690000      0.6348500000
O                 -3.0865770000     -2.5306660000      0.9945370000
C                 -2.6901790000     -0.2974250000      0.2322710000
C                 -4.0905920000      0.0580980000      0.2144200000
C                 -5.1928770000     -0.9149930000      0.5839070000
C                 -4.4857740000      1.3326050000     -0.1584320000
C                 -3.5491360000      2.3226890000     -0.5309410000
C                 -2.2063620000      2.0055710000     -0.5252700000
C                 -1.7345700000      0.7258790000     -0.1562320000
H                  4.2956500000     -0.0121390000      1.9743980000
H                  4.7167780000      1.2350710000      0.7938370000
H                  5.7859120000     -0.1584600000      1.0170070000
H                  4.0073590000     -1.6783900000      0.1543120000
H                  4.0876450000     -1.0059640000     -2.2396750000
H                  5.6622030000     -0.7443470000     -1.4577230000
H                  4.5952070000      0.6229580000     -1.7861920000
H                  2.7490180000      1.8106940000     -0.7716020000
H                  0.3956830000      2.3534500000     -0.8167550000
H                  1.7817170000     -2.1807010000      0.5425400000
H                 -5.0826170000     -1.2839800000      1.6051550000
H                 -6.1674520000     -0.4174900000      0.4751430000
H                 -5.1683470000     -1.8095840000     -0.0409780000
H                 -5.5478170000      1.5712810000     -0.1639790000
H                 -3.8816580000      3.3167990000     -0.8196240000
H                 -1.4943450000      2.7713940000     -0.8120580000
$end
$rem
MAX_SCF_CYCLES=200
BASIS  =  6-311++G(d,p)
GUI  =  2
JOB_TYPE  =  SP
METHOD  =  B3LYP
SOLVENT_METHOD = COSMO
$end
$solvent
dielectric 37.219
opticaldielectric 1.43
$end

--------------------------------------------------------------

             Standard Nuclear Orientation (Angstroms)
    I     Atom           X                Y                Z
 ----------------------------------------------------------------
    1      C      -5.0990603074    -0.1258714401     1.2939886687
    2      C      -4.3911148016     0.2802647290    -0.0155753797
    3      C      -5.1257121935    -0.3210002779    -1.2297526391
    4      C      -2.9064173431    -0.0589469082    -0.0010752774
    5      C      -2.4577227995    -1.4091955006    -0.0057912904
    6      C      -1.1047537627    -1.6974704222    -0.0070980580
    7      C      -0.1064932181    -0.6943231964    -0.0123152193
    8      C      -0.5489813209     0.6705756007    -0.0228587388
    9      C      -1.9471388593     0.9329797444    -0.0085068048
   10      C       0.3655096625     1.8031868209    -0.0352122604
   11      O      -0.0650844550     2.9911969550    -0.0594537210
   12      C       1.8225511707     1.5191430868     0.0001727764
   13      O       2.6450861282     2.4808530141     0.0228386887
   14      C       2.2604701465     0.1192583735     0.0007594404
   15      C       3.6658169092    -0.2165996835     0.0092255135
   16      C       4.7633640722     0.8292271744    -0.0005400924
   17      C       4.0700140663    -1.5417728116     0.0190417640
   18      C       3.1380576595    -2.6037389536     0.0213208412
   19      C       1.7904895121    -2.3078342762     0.0095517662
   20      C       1.3094874999    -0.9793331443    -0.0009438594
   21      H      -4.6114450396     0.3382355674     2.1564570228
   22      H      -5.0667540046    -1.2120639262     1.4382153658
   23      H      -6.1546713586     0.1768759026     1.2896792096
   24      H      -4.4620381450     1.3715790517    -0.0978934305
   25      H      -4.6567326499     0.0005346848    -2.1648011974
   26      H      -6.1797653482    -0.0192792508    -1.2487749487
   27      H      -5.1003350139    -1.4153736850    -1.2082065453
   28      H      -3.1741648395    -2.2262629570     0.0086954825
   29      H      -0.8146522997    -2.7432023146    -0.0081201777
   30      H      -2.2310043590     1.9813316967    -0.0129841228
   31      H       4.7002294927     1.4914791576     0.8647300889
   32      H       5.7420157599     0.3279456241    -0.0101813964
   33      H       4.6837725826     1.4904291449    -0.8653251469
   34      H       5.1355050878    -1.7645731838     0.0236475518
   35      H       3.4776852083    -3.6365740763     0.0295782299
   36      H       1.0821449847    -3.1287746804     0.0118573682
 ----------------------------------------------------------------

   27    -846.2146593769      6.68e-06  Convergence criterion met
 Total energy in the final basis set =     -846.2146593769
    6    -846.4900713058      4.37e-06  Convergence criterion met
 Total energy in the final basis set =     -846.4900713058

                    Orbital Energies (a.u.)
 --------------------------------------------------------------

 Alpha MOs
 -- Occupied --
-19.0235 -19.0176 -10.1697 -10.1656 -10.1654 -10.1577 -10.1540 -10.1511
-10.1510 -10.1479 -10.1478 -10.1476 -10.1476 -10.1459 -10.1447 -10.1436
-10.1429 -10.1377 -10.1376 -10.1371  -0.9605  -0.9309  -0.8429  -0.8240
 -0.7880  -0.7512  -0.7420  -0.7227  -0.6907  -0.6729  -0.6679  -0.6343
 -0.6058  -0.5810  -0.5651  -0.5499  -0.5340  -0.4926  -0.4759  -0.4593
 -0.4418  -0.4370  -0.4307  -0.4130  -0.4082  -0.4034  -0.3977  -0.3960
 -0.3891  -0.3763  -0.3725  -0.3705  -0.3687  -0.3668  -0.3482  -0.3377
 -0.3363  -0.3347  -0.3233  -0.3215  -0.3178  -0.3036  -0.2981  -0.2880
 -0.2584  -0.2308  -0.2225  -0.2113  -0.1924  -0.1835  -0.1083

          Ground-State Mulliken Net Atomic Charges

     Atom                 Charge (a.u.)
  ----------------------------------------
      1 C                    -0.709640
      2 C                     0.160539
      3 C                    -0.671822
      4 C                     0.653971
      5 C                    -0.881480
      6 C                    -0.298445
      7 C                     0.374936
      8 C                     0.693786
      9 C                    -0.411359
     10 C                    -0.655515
     11 O                    -0.703235
     12 C                    -0.797109
     13 O                    -0.649495
     14 C                     0.493769
     15 C                     0.479639
     16 C                    -0.361184
     17 C                    -0.475208
     18 C                    -0.676135
     19 C                    -0.417635
     20 C                     0.480801
     21 H                     0.144554
     22 H                     0.161489
     23 H                     0.156551
     24 H                     0.189752
     25 H                     0.142069
     26 H                     0.157198
     27 H                     0.156510
     28 H                     0.177926
     29 H                     0.107123
     30 H                     0.139214
     31 H                     0.151970
     32 H                     0.134203
     33 H                     0.150122
     34 H                     0.116229
     35 H                     0.196213
     36 H                     0.089700
  ----------------------------------------
  Sum of atomic charges =    -2.000000

                    Cartesian Multipole Moments
 -----------------------------------------------------------------
    Charge (ESU x 10^10)
                -9.6064
    Dipole Moment (Debye)
         X     -10.5272      Y     -16.3000      Z       0.1292
       Tot      19.4043
    Quadrupole Moments (Debye-Ang)
        XX    -162.5659     XY     -16.9530     YY    -183.8142
        XZ      -0.2227     YZ       0.3928     ZZ    -132.9087

 Total job time:  229.92s(wall), 1801.41s(cpu)
        *  Thank you very much for using Q-Chem.  Have a nice day.  *
