 Gaussian 16, Revision A.03,
 Gaussian 16:  ES64L-G16RevA.03 25-Dec-2016

 ----------------------------------------------------------------
 #P UB3LYP/6-311++G(d,p) SCRF=(PCM,Solvent=n,n-DiMethylFormamide)
 ----------------------------------------------------------------

 ------------------
 Radical PCM in DMF
 ------------------
 Symbolic Z-matrix:
 Charge = -1 Multiplicity = 2

                         Standard orientation:
 ---------------------------------------------------------------------
 Center     Atomic      Atomic             Coordinates (Angstroms)
 Number     Number       Type             X           Y           Z
 ---------------------------------------------------------------------
      1          8           0        4.062813    1.757561   -0.000034
      2          6           0        2.878184    1.053609    0.000012
      3          6           0        1.641426    1.675074   -0.000027
      4          6           0        0.449979    0.927392   -0.000067
      5          6           0       -0.840956    1.618773   -0.000157
      6          8           0       -0.919845    2.870793    0.000108
      7          6           0       -2.032314    0.764059   -0.000023
      8          6           0       -3.310018    1.362525    0.000053
      9          6           0       -4.460639    0.598602    0.000089
     10          6           0       -4.370401   -0.811859    0.000062
     11          6           0       -3.134039   -1.423918   -0.000001
     12          6           0       -1.942731   -0.661826   -0.000054
     13          6           0       -0.658191   -1.327976   -0.000182
     14          8           0       -0.553521   -2.610210   -0.000062
     15          6           0        0.520094   -0.492433   -0.000064
     16          6           0        1.799523   -1.104576    0.000012
     17          8           0        1.938178   -2.453548    0.000063
     18          6           0        2.965999   -0.349579    0.000061
     19          8           0        4.185320   -0.978034    0.000116
     20          1           0        3.842140    2.694492   -0.000214
     21          1           0        1.560024    2.757834   -0.000056
     22          1           0       -3.350729    2.445765    0.000040
     23          1           0       -5.434274    1.079326    0.000124
     24          1           0       -5.274976   -1.412689    0.000097
     25          1           0       -3.038927   -2.503508   -0.000036
     26          1           0        0.972047   -2.795370    0.000076
     27          1           0        3.985645   -1.925544    0.000161
 ---------------------------------------------------------------------

 SCF Done:  E(UB3LYP) =  -914.856972948     A.U. after   20 cycles

 The electronic state is 2-A.
 Alpha  occ. eigenvalues --  -19.16155 -19.15804 -19.13884 -19.09244 -19.07863
 Alpha  occ. eigenvalues --  -10.24271 -10.23708 -10.23293 -10.23223 -10.22828
 Alpha  occ. eigenvalues --  -10.17767 -10.17695 -10.17661 -10.17532 -10.17450
 Alpha  occ. eigenvalues --  -10.17399 -10.17282 -10.17171 -10.16953  -1.08246
 Alpha  occ. eigenvalues --   -1.06620  -1.04817  -1.00644  -1.00438  -0.86504
 Alpha  occ. eigenvalues --   -0.85108  -0.78790  -0.75511  -0.74570  -0.74169
 Alpha  occ. eigenvalues --   -0.67313  -0.66019  -0.63097  -0.60936  -0.57362
 Alpha  occ. eigenvalues --   -0.56589  -0.55157  -0.52970  -0.50624  -0.49836
 Alpha  occ. eigenvalues --   -0.48527  -0.46533  -0.45262  -0.44931  -0.43113
 Alpha  occ. eigenvalues --   -0.42701  -0.42314  -0.41995  -0.41945  -0.40800
 Alpha  occ. eigenvalues --   -0.40022  -0.38364  -0.38118  -0.38075  -0.36682
 Alpha  occ. eigenvalues --   -0.36441  -0.35573  -0.35130  -0.33928  -0.31367
 Alpha  occ. eigenvalues --   -0.26636  -0.26194  -0.26014  -0.24343  -0.23348
 Alpha  occ. eigenvalues --   -0.22294  -0.14448
 Alpha virt. eigenvalues --   -0.05141  -0.01608  -0.00861   0.00150   0.00230
 Alpha virt. eigenvalues --    0.00708   0.01924   0.02094   0.03985   0.04290
 Alpha virt. eigenvalues --    0.04327   0.04681   0.05507   0.06291   0.06488

  Beta  occ. eigenvalues --  -19.16137 -19.15783 -19.13854 -19.08763 -19.07350
  Beta  occ. eigenvalues --  -10.24249 -10.23664 -10.23177 -10.23016 -10.22668
  Beta  occ. eigenvalues --  -10.17736 -10.17681 -10.17601 -10.17427 -10.17410
  Beta  occ. eigenvalues --  -10.17332 -10.17256 -10.17180 -10.16892  -1.08187
  Beta  occ. eigenvalues --   -1.06561  -1.04692  -0.99799  -0.99574  -0.86234
  Beta  occ. eigenvalues --   -0.84992  -0.78421  -0.75224  -0.74372  -0.74024
  Beta  occ. eigenvalues --   -0.66624  -0.65860  -0.62863  -0.60774  -0.57237
  Beta  occ. eigenvalues --   -0.56427  -0.55098  -0.52747  -0.50482  -0.49656
  Beta  occ. eigenvalues --   -0.48419  -0.46364  -0.44864  -0.44750  -0.42985
  Beta  occ. eigenvalues --   -0.42628  -0.42045  -0.41760  -0.40851  -0.40531
  Beta  occ. eigenvalues --   -0.39432  -0.38284  -0.38033  -0.36748  -0.36345
  Beta  occ. eigenvalues --   -0.35871  -0.35433  -0.34340  -0.33799  -0.30325
  Beta  occ. eigenvalues --   -0.25793  -0.25308  -0.25086  -0.23871  -0.22779
  Beta  occ. eigenvalues --   -0.21553
  Beta virt. eigenvalues --   -0.08748  -0.04059  -0.00845  -0.00638   0.00157
  Beta virt. eigenvalues --    0.00620   0.00719   0.01924   0.02115   0.03998
  Beta virt. eigenvalues --    0.04317   0.04494   0.04682   0.06088   0.06301

 Mulliken charges and spin densities:
               1          2
     1  O   -0.301679   0.004608
     2  C   -0.424568   0.009084
     3  C    0.097810   0.061526
     4  C    0.816414   0.045420
     5  C   -0.578913   0.089501
     6  O   -0.450950   0.191875
     7  C   -0.047305   0.050772
     8  C    0.066198   0.015734
     9  C   -0.491622   0.060275
    10  C   -0.483800   0.026573
    11  C    0.058557   0.048991
    12  C    0.162411   0.010572
    13  C   -0.340094   0.162821
    14  O   -0.502504   0.174549
    15  C    0.643081  -0.031856
    16  C    0.003787   0.048473
    17  O   -0.473307   0.009931
    18  C   -0.302514   0.034603
    19  O   -0.328346   0.005375
    20  H    0.308723  -0.000353
    21  H    0.151145  -0.005126
    22  H    0.162102  -0.000627
    23  H    0.182714  -0.004548
    24  H    0.182334  -0.002559
    25  H    0.169464  -0.001544
    26  H    0.406591  -0.003845
    27  H    0.314274  -0.000221
 Sum of Mulliken charges =  -1.00000   1.00000

 Dipole moment (field-independent basis, Debye):
    X=             -1.0395    Y=              0.1636    Z=             -0.0006  Tot=              1.0522
 Quadrupole moment (field-independent basis, Debye-Ang):
   XX=           -132.8372   YY=           -134.1440   ZZ=           -115.4635
   XY=              8.5343   XZ=             -0.0011   YZ=             -0.0029

 Normal termination of Gaussian 16 at Tue Jan 16 05:53:07 2024.
