 Gaussian 16, Revision A.03,
 Gaussian 16:  ES64L-G16RevA.03 25-Dec-2016

 ----------------------------------------------------------------------
 #P UB3LYP/6-311++G(d,p) nosym opt freq SCRF=(PCM,Solvent=n,n-DiMethylF
 ormamide)
 ----------------------------------------------------------------------

 -------
 Radical
 -------
 Symbolic Z-matrix:
 Charge = -1 Multiplicity = 2

 SCF Done:  E(UB3LYP) =  -1144.98112006     A.U. after   17 cycles
 SCF Done:  E(UB3LYP) =  -1144.98174602     A.U. after   14 cycles
 SCF Done:  E(UB3LYP) =  -1144.98212773     A.U. after   14 cycles
 SCF Done:  E(UB3LYP) =  -1144.98251907     A.U. after   13 cycles
 SCF Done:  E(UB3LYP) =  -1144.98252881     A.U. after   12 cycles
 SCF Done:  E(UB3LYP) =  -1144.98256064     A.U. after   13 cycles
 SCF Done:  E(UB3LYP) =  -1144.98257241     A.U. after   12 cycles
 SCF Done:  E(UB3LYP) =  -1144.98257721     A.U. after   10 cycles
 SCF Done:  E(UB3LYP) =  -1144.98257828     A.U. after   10 cycles
 SCF Done:  E(UB3LYP) =  -1144.98257874     A.U. after   10 cycles
 SCF Done:  E(UB3LYP) =  -1144.98257931     A.U. after    9 cycles
 SCF Done:  E(UB3LYP) =  -1144.98258064     A.U. after    9 cycles
 SCF Done:  E(UB3LYP) =  -1144.98258128     A.U. after   10 cycles
 SCF Done:  E(UB3LYP) =  -1144.98258154     A.U. after   10 cycles
 SCF Done:  E(UB3LYP) =  -1144.98258164     A.U. after    8 cycles
 Optimization completed.
    -- Stationary point found.
 Normal termination of Gaussian 16 at Sat Feb 10 19:06:35 2024.

 ----------------------------------------------------------------------
 #P Geom=AllCheck Guess=TCheck SCRF=Check GenChk UB3LYP/6-311++G(d,p) F
 req
 ----------------------------------------------------------------------

 Structure from the checkpoint file:  "145-rad.chk"
 -------
 Radical
 -------
 Charge = -1 Multiplicity = 2

                          Input orientation:
 ---------------------------------------------------------------------
 Center     Atomic      Atomic             Coordinates (Angstroms)
 Number     Number       Type             X           Y           Z
 ---------------------------------------------------------------------
      1          6           0       -4.995634   -1.443990   -0.619215
      2          6           0       -3.551139   -1.689869   -0.297579
      3          8           0       -3.123245   -2.176364    0.721877
      4          8           0       -2.757857   -1.319626   -1.338229
      5          6           0       -1.369350   -1.312871   -1.161904
      6          6           0       -0.690549   -2.339601   -1.773163
      7          6           0        0.709664   -2.371688   -1.722203
      8          6           0        1.388475   -1.376475   -1.060811
      9          8           0        2.784221   -1.445538   -1.136370
     10          6           0        3.484034   -1.848868   -0.041982
     11          6           0        4.956464   -1.659399   -0.256933
     12          8           0        2.963865   -2.320794    0.940705
     13          6           0        0.732307   -0.286084   -0.426336
     14          6           0        1.489586    0.778558    0.237595
     15          8           0        2.745234    0.760827    0.345545
     16          6           0        0.723487    1.898179    0.784568
     17          6           0        1.411803    2.972558    1.392940
     18          6           0        0.728456    4.046903    1.926311
     19          6           0       -0.680654    4.080535    1.872680
     20          6           0       -1.371873    3.039078    1.286785
     21          6           0       -0.691258    1.932071    0.730471
     22          6           0       -1.465961    0.849447    0.124294
     23          8           0       -2.725537    0.892742    0.134043
     24          6           0       -0.711911   -0.252171   -0.480349
     25          1           0       -5.174323   -0.366859   -0.584894
     26          1           0       -5.629344   -1.943307    0.110871
     27          1           0       -5.231046   -1.792002   -1.626244
     28          1           0       -1.247404   -3.110230   -2.291220
     29          1           0        1.266891   -3.167563   -2.200144
     30          1           0        5.170611   -0.588609   -0.229169
     31          1           0        5.253408   -2.036374   -1.237077
     32          1           0        5.515150   -2.166320    0.527143
     33          1           0        2.493158    2.929047    1.428426
     34          1           0        1.272626    4.864084    2.387193
     35          1           0       -1.218711    4.923498    2.292462
     36          1           0       -2.453643    3.047072    1.239915
 ---------------------------------------------------------------------

 SCF Done:  E(UB3LYP) =  -1144.98258164     A.U. after    2 cycles

 Alpha  occ. eigenvalues --  -19.17414 -19.17400 -19.11925 -19.11922 -19.07825
 Alpha  occ. eigenvalues --  -19.07822 -10.31309 -10.31308 -10.24404 -10.24400
 Alpha  occ. eigenvalues --  -10.23258 -10.23256 -10.19279 -10.19241 -10.18274
 Alpha  occ. eigenvalues --  -10.18223 -10.17686 -10.17640 -10.17611 -10.17599
 Alpha  occ. eigenvalues --  -10.17547 -10.17499 -10.17240 -10.17240  -1.11821
 Alpha  occ. eigenvalues --   -1.11787  -1.03425  -1.03371  -1.00609  -1.00365
 Alpha  occ. eigenvalues --   -0.87234  -0.85783  -0.79588  -0.79003  -0.75960
 Alpha  occ. eigenvalues --   -0.75290  -0.74957  -0.73172  -0.68088  -0.66211
 Alpha  occ. eigenvalues --   -0.63400  -0.63221  -0.60145  -0.57870  -0.54540
 Alpha  occ. eigenvalues --   -0.54259  -0.51352  -0.50342  -0.49904  -0.49586
 Alpha  occ. eigenvalues --   -0.48870  -0.48487  -0.47070  -0.46997  -0.46360
 Alpha  occ. eigenvalues --   -0.45313  -0.44474  -0.42794  -0.42643  -0.42133
 Alpha  occ. eigenvalues --   -0.41638  -0.41276  -0.41234  -0.40533  -0.40377
 Alpha  occ. eigenvalues --   -0.39906  -0.38456  -0.38388  -0.38031  -0.37783
 Alpha  occ. eigenvalues --   -0.36165  -0.35712  -0.34373  -0.34059  -0.32734
 Alpha  occ. eigenvalues --   -0.32156  -0.29188  -0.29043  -0.27508  -0.25856
 Alpha  occ. eigenvalues --   -0.25736  -0.25598  -0.24727  -0.23752  -0.14749
 Alpha virt. eigenvalues --   -0.05947  -0.03009  -0.01128  -0.00450  -0.00444
 Alpha virt. eigenvalues --    0.00036   0.00259   0.00467   0.01586   0.02164
 Alpha virt. eigenvalues --    0.02616   0.03481   0.03550   0.04048   0.04105

  Beta  occ. eigenvalues --  -19.17411 -19.17396 -19.11925 -19.11922 -19.07255
  Beta  occ. eigenvalues --  -19.07252 -10.31306 -10.31306 -10.24402 -10.24399
  Beta  occ. eigenvalues --  -10.23101 -10.23099 -10.19178 -10.19139 -10.18204
  Beta  occ. eigenvalues --  -10.18152 -10.17627 -10.17612 -10.17600 -10.17581
  Beta  occ. eigenvalues --  -10.17512 -10.17464 -10.17237 -10.17236  -1.11811
  Beta  occ. eigenvalues --   -1.11778  -1.03412  -1.03361  -0.99633  -0.99360
  Beta  occ. eigenvalues --   -0.86988  -0.85654  -0.79179  -0.78910  -0.75948
  Beta  occ. eigenvalues --   -0.75104  -0.74776  -0.73063  -0.67384  -0.66147
  Beta  occ. eigenvalues --   -0.63248  -0.62950  -0.60063  -0.57740  -0.54297
  Beta  occ. eigenvalues --   -0.54117  -0.51231  -0.50297  -0.49895  -0.49520
  Beta  occ. eigenvalues --   -0.48832  -0.48252  -0.46961  -0.46941  -0.46204
  Beta  occ. eigenvalues --   -0.45264  -0.44394  -0.42612  -0.42184  -0.41929
  Beta  occ. eigenvalues --   -0.41468  -0.40855  -0.40769  -0.40257  -0.40230
  Beta  occ. eigenvalues --   -0.39792  -0.38310  -0.38061  -0.37871  -0.36038
  Beta  occ. eigenvalues --   -0.35888  -0.35516  -0.33948  -0.33263  -0.32592
  Beta  occ. eigenvalues --   -0.32101  -0.29173  -0.29023  -0.25524  -0.25443
  Beta  occ. eigenvalues --   -0.24890  -0.24801  -0.24196  -0.23242
  Beta virt. eigenvalues --   -0.08867  -0.04959  -0.01940  -0.00961  -0.00426
  Beta virt. eigenvalues --   -0.00403   0.00109   0.00265   0.00471   0.01590
  Beta virt. eigenvalues --    0.02164   0.02644   0.03506   0.03556   0.04074

 Mulliken charges and spin densities:
               1          2
     1  C   -0.482165   0.001389
     2  C    0.043709   0.000387
     3  O   -0.291168  -0.000923
     4  O    0.013173  -0.001474
     5  C   -0.469916   0.033587
     6  C    0.027865   0.056614
     7  C    0.028853   0.056439
     8  C   -0.467207   0.033600
     9  O    0.011899  -0.001417
    10  C    0.045839   0.000177
    11  C   -0.481817   0.001436
    12  O   -0.291140  -0.000904
    13  C    0.670933   0.048939
    14  C   -0.427193   0.070160
    15  O   -0.424295   0.215799
    16  C    0.180349   0.023306
    17  C   -0.069141   0.031129
    18  C   -0.379380   0.029208
    19  C   -0.379324   0.029156
    20  C   -0.068790   0.031114
    21  C    0.184854   0.023464
    22  C   -0.424573   0.069872
    23  O   -0.425118   0.215855
    24  C    0.665233   0.049002
    25  H    0.194598  -0.000260
    26  H    0.168773  -0.000188
    27  H    0.178150   0.000297
    28  H    0.210468  -0.004303
    29  H    0.210484  -0.004300
    30  H    0.194385  -0.000251
    31  H    0.178378   0.000287
    32  H    0.168797  -0.000178
    33  H    0.166934  -0.001142
    34  H    0.185281  -0.002367
    35  H    0.185343  -0.002369
    36  H    0.166931  -0.001143
 Sum of Mulliken charges =  -1.00000   1.00000

 Dipole moment (field-independent basis, Debye):
    X=              0.1624    Y=             -0.1112    Z=             -4.6261  Tot=              4.6302
 Quadrupole moment (field-independent basis, Debye-Ang):
   XX=           -150.5990   YY=           -145.9001   ZZ=           -146.3306
   XY=             -0.3011   XZ=              0.1143   YZ=             15.3763

  Exact polarizability: 441.090  -5.037 429.495   9.332 124.623 272.909
 Approx polarizability: 500.169  -5.774 450.722   9.986 120.867 314.601

                      1                      2                      3
                      A                      A                      A
 Frequencies --     40.2798                42.4366                46.0325
 Red. masses --      7.0971                 6.6589                 5.2029
 Frc consts  --      0.0068                 0.0071                 0.0065
 IR Inten    --     10.4256                 0.4057                 0.3617

                      4                      5                      6
                      A                      A                      A
 Frequencies --     56.1591                71.5318                76.2104
 Red. masses --      1.5648                 3.9539                 2.2876
 Frc consts  --      0.0029                 0.0119                 0.0078
 IR Inten    --      8.3439                 6.2766                 3.1305

                      7                      8                      9
                      A                      A                      A
 Frequencies --     88.4509               100.1253               109.0550
 Red. masses --      1.2458                 2.7539                 3.9159
 Frc consts  --      0.0057                 0.0163                 0.0274
 IR Inten    --      2.4146                 0.6780                 7.4778

                     10                     11                     12
                      A                      A                      A
 Frequencies --    118.5920               145.1962               163.1985
 Red. masses --      5.5596                 8.0913                 7.9880
 Frc consts  --      0.0461                 0.1005                 0.1253
 IR Inten    --      0.9634                 3.6770                 1.0801

                     13                     14                     15
                      A                      A                      A
 Frequencies --    187.8961               218.2755               261.1761
 Red. masses --      7.1120                 6.5500                 6.0632
 Frc consts  --      0.1479                 0.1839                 0.2437
 IR Inten    --      4.1075                 7.9994                 0.8058

                     16                     17                     18
                      A                      A                      A
 Frequencies --    281.5100               300.2712               319.2609
 Red. masses --      4.1930                 5.3886                 8.1692
 Frc consts  --      0.1958                 0.2863                 0.4906
 IR Inten    --     10.5441                 2.4072                 4.5935

                     19                     20                     21
                      A                      A                      A
 Frequencies --    340.6139               384.7159               403.8881
 Red. masses --      7.5380                 5.6194                12.8215
 Frc consts  --      0.5153                 0.4900                 1.2323
 IR Inten    --      0.0807                 1.3703                25.7477

                     22                     23                     24
                      A                      A                      A
 Frequencies --    419.7053               421.7131               430.6149
 Red. masses --      5.9095                 5.1182                 5.2450
 Frc consts  --      0.6133                 0.5363                 0.5730
 IR Inten    --      0.9377                13.0174                 2.5161

                     25                     26                     27
                      A                      A                      A
 Frequencies --    438.6874               490.2364               493.6457
 Red. masses --      4.2841                 6.1067                 8.5187
 Frc consts  --      0.4858                 0.8647                 1.2231
 IR Inten    --      3.0191                 2.5613                 2.3369

                     28                     29                     30
                      A                      A                      A
 Frequencies --    504.0379               526.4825               573.0029
 Red. masses --      4.4031                 5.0929                 3.2848
 Frc consts  --      0.6591                 0.8317                 0.6354
 IR Inten    --      2.3492                 6.7094                16.8290

                     31                     32                     33
                      A                      A                      A
 Frequencies --    576.0877               582.2156               601.9960
 Red. masses --      4.3316                 3.3379                 4.6121
 Frc consts  --      0.8470                 0.6666                 0.9848
 IR Inten    --     26.6801                37.9309                59.4569

                     34                     35                     36
                      A                      A                      A
 Frequencies --    629.7985               650.7397               658.4876
 Red. masses --      5.6706                 4.9567                 6.4149
 Frc consts  --      1.3252                 1.2367                 1.6388
 IR Inten    --      1.9531                 0.0501                 6.6726

                     37                     38                     39
                      A                      A                      A
 Frequencies --    692.4701               713.0975               730.1653
 Red. masses --      3.9596                 6.9633                 2.4272
 Frc consts  --      1.1187                 2.0862                 0.7624
 IR Inten    --     42.9072                 0.9989                19.3409

                     40                     41                     42
                      A                      A                      A
 Frequencies --    734.4966               779.9960               792.9396
 Red. masses --      6.2691                 5.6211                 1.8810
 Frc consts  --      1.9927                 2.0149                 0.6968
 IR Inten    --      0.9356                11.8383                58.4763

                     43                     44                     45
                      A                      A                      A
 Frequencies --    805.6945               821.1673               868.3720
 Red. masses --      6.3906                 1.9521                 4.4463
 Frc consts  --      2.4442                 0.7755                 1.9754
 IR Inten    --      5.2276                16.5358                55.1394

                     46                     47                     48
                      A                      A                      A
 Frequencies --    876.5787               887.3120               923.7208
 Red. masses --      5.6940                 1.4603                 3.0550
 Frc consts  --      2.5778                 0.6774                 1.5358
 IR Inten    --     11.6721                 0.0351                27.2076

                     49                     50                     51
                      A                      A                      A
 Frequencies --    924.3970               940.8088               961.3981
 Red. masses --      5.5363                 2.3133                 4.1710
 Frc consts  --      2.7873                 1.2064                 2.2714
 IR Inten    --    120.1402                 7.0384                75.6541

                     52                     53                     54
                      A                      A                      A
 Frequencies --    991.0718              1003.3215              1010.6289
 Red. masses --      1.3642                 1.2909                 2.0035
 Frc consts  --      0.7895                 0.7656                 1.2057
 IR Inten    --      1.9568                 0.0026                16.4775

                     55                     56                     57
                      A                      A                      A
 Frequencies --   1024.6009              1036.8318              1052.1349
 Red. masses --      1.9262                 2.2825                 1.7912
 Frc consts  --      1.1914                 1.4457                 1.1682
 IR Inten    --    324.0000                24.5011                25.9407

                     58                     59                     60
                      A                      A                      A
 Frequencies --   1054.2760              1068.1234              1114.2248
 Red. masses --      1.7741                 2.3532                 2.1345
 Frc consts  --      1.1618                 1.5818                 1.5613
 IR Inten    --     21.6527                75.5152                29.6216

                     61                     62                     63
                      A                      A                      A
 Frequencies --   1143.4795              1166.6333              1189.2502
 Red. masses --      1.5291                 1.4360                 4.2071
 Frc consts  --      1.1780                 1.1515                 3.5057
 IR Inten    --     44.1665                12.7712               968.8305

                     64                     65                     66
                      A                      A                      A
 Frequencies --   1201.9616              1219.0097              1226.2619
 Red. masses --      2.2037                 4.3697                 3.1750
 Frc consts  --      1.8758                 3.8257                 2.8129
 IR Inten    --    423.5883               363.9303                33.8876

                     67                     68                     69
                      A                      A                      A
 Frequencies --   1228.4408              1238.7419              1243.5734
 Red. masses --      4.9200                 1.9981                 2.8254
 Frc consts  --      4.3745                 1.8065                 2.5744
 IR Inten    --     55.7927               333.1662                 0.0598

                     70                     71                     72
                      A                      A                      A
 Frequencies --   1318.7343              1345.9014              1368.1987
 Red. masses --     11.2907                 2.5919                 9.9027
 Frc consts  --     11.5688                 2.7663                10.9220
 IR Inten    --     54.8884                 0.0041                 1.0387

                     73                     74                     75
                      A                      A                      A
 Frequencies --   1384.6344              1386.6318              1389.3092
 Red. masses --      1.3948                 1.4937                 3.2061
 Frc consts  --      1.5756                 1.6921                 3.6461
 IR Inten    --    184.8726               194.3444                15.8862

                     76                     77                     78
                      A                      A                      A
 Frequencies --   1398.3066              1460.5743              1461.4840
 Red. masses --      3.4678                 1.0551                 1.0514
 Frc consts  --      3.9949                 1.3262                 1.3231
 IR Inten    --    899.9321                28.0334                33.4712

                     79                     80                     81
                      A                      A                      A
 Frequencies --   1464.1093              1464.4626              1480.7272
 Red. masses --      1.0579                 1.0555                 2.5973
 Frc consts  --      1.3361                 1.3337                 3.3552
 IR Inten    --     16.5949                 7.9856                65.5665

                     82                     83                     84
                      A                      A                      A
 Frequencies --   1480.9009              1514.8860              1525.4815
 Red. masses --      3.4097                 5.3305                 7.8524
 Frc consts  --      4.4058                 7.2074                10.7664
 IR Inten    --     21.0925              1493.5665                33.7666

                     85                     86                     87
                      A                      A                      A
 Frequencies --   1566.5006              1614.7352              1618.9683
 Red. masses --      6.1295                 8.5768                 6.3600
 Frc consts  --      8.8620                13.1758                 9.8216
 IR Inten    --    160.2789                 7.8466                22.6456

                     88                     89                     90
                      A                      A                      A
 Frequencies --   1631.1607              1765.2171              1767.3529
 Red. masses --      6.0994                11.4293                11.3757
 Frc consts  --      9.5616                20.9829                20.9352
 IR Inten    --      0.6105                46.9622               909.3526

                     91                     92                     93
                      A                      A                      A
 Frequencies --   3053.9206              3054.3662              3119.0862
 Red. masses --      1.0357                 1.0357                 1.1001
 Frc consts  --      5.6912                 5.6930                 6.3057
 IR Inten    --      3.0262                 2.5560                 5.3985

                     94                     95                     96
                      A                      A                      A
 Frequencies --   3119.7255              3154.0426              3154.1006
 Red. masses --      1.1000                 1.1041                 1.1041
 Frc consts  --      6.3079                 6.4714                 6.4718
 IR Inten    --      5.8719                12.9969                14.9077

                     97                     98                     99
                      A                      A                      A
 Frequencies --   3161.3858              3175.6360              3190.0616
 Red. masses --      1.0864                 1.0911                 1.0888
 Frc consts  --      6.3971                 6.4829                 6.5281
 IR Inten    --     13.4883                25.4054                15.7861

                    100                    101                    102
                      A                      A                      A
 Frequencies --   3194.5067              3197.3258              3203.0771
 Red. masses --      1.0917                 1.0939                 1.0956
 Frc consts  --      6.5637                 6.5888                 6.6226
 IR Inten    --     12.6510                41.0610                 3.7782

 - Thermochemistry -
 -------------------
 Temperature   298.150 Kelvin.  Pressure   1.00000 Atm.
 Atom     1 has atomic number  6 and mass  12.00000

 Molecular mass:   324.06339 amu.
 Principal axes and moments of inertia in atomic units:
                           1         2         3
     Eigenvalues --  6188.970817824.95821**********
           X            0.99907   0.00563  -0.04273
           Y           -0.02202   0.91903  -0.39358
           Z            0.03706   0.39416   0.91830
 This molecule is an asymmetric top.
 Rotational symmetry number  1.
 Warning -- assumption of classical behavior for rotation
           may cause significant error
 Rotational temperatures (Kelvin)      0.01399     0.01107     0.00662
 Rotational constants (GHZ):           0.29161     0.23064     0.13804
 Zero-point vibrational energy     679497.0 (Joules/Mol)
                                  162.40367 (Kcal/Mol)
 Warning -- explicit consideration of  33 degrees of freedom as
           vibrations may cause significant error
 Vibrational temperatures:     57.95    61.06    66.23    80.80   102.92
          (Kelvin)            109.65   127.26   144.06   156.91   170.63
                              208.90   234.81   270.34   314.05   375.77
                              405.03   432.02   459.35   490.07   553.52
                              581.10   603.86   606.75   619.56   631.17
                              705.34   710.25   725.20   757.49   824.42
                              828.86   837.68   866.14   906.14   936.27
                              947.42   996.31  1025.99  1050.54  1056.78
                             1122.24  1140.86  1159.21  1181.48  1249.39
                             1261.20  1276.64  1329.03  1330.00  1353.61
                             1383.24  1425.93  1443.56  1454.07  1474.17
                             1491.77  1513.79  1516.87  1536.79  1603.12
                             1645.21  1678.53  1711.07  1729.35  1753.88
                             1764.32  1767.45  1782.27  1789.22  1897.36
                             1936.45  1968.53  1992.18  1995.05  1998.91
                             2011.85  2101.44  2102.75  2106.53  2107.04
                             2130.44  2130.69  2179.58  2194.83  2253.84
                             2323.24  2329.33  2346.88  2539.75  2542.83
                             4393.91  4394.55  4487.67  4488.59  4537.96
                             4538.05  4548.53  4569.03  4589.79  4596.18
                             4600.24  4608.51

 Zero-point correction=                           0.258807 (Hartree/Particle)
 Thermal correction to Energy=                    0.279371
 Thermal correction to Enthalpy=                  0.280315
 Thermal correction to Gibbs Free Energy=         0.207633
 Sum of electronic and zero-point Energies=          -1144.723775
 Sum of electronic and thermal Energies=             -1144.703210
 Sum of electronic and thermal Enthalpies=           -1144.702266
 Sum of electronic and thermal Free Energies=        -1144.774948

                     E (Thermal)             CV                S
                      KCal/Mol        Cal/Mol-Kelvin    Cal/Mol-Kelvin
 Total                  175.308             77.831            152.972
 Electronic               0.000              0.000              1.377
 Translational            0.889              2.981             43.223
 Rotational               0.889              2.981             34.803
 Vibrational            173.531             71.869             73.569
 Vibration     1          0.594              1.981              5.245
 Vibration     2          0.595              1.980              5.142
 Vibration     3          0.595              1.979              4.981
 Vibration     4          0.596              1.975              4.588
 Vibration     5          0.598              1.968              4.111
 Vibration     6          0.599              1.965              3.986
 Vibration     7          0.601              1.957              3.694
 Vibration     8          0.604              1.949              3.452
 Vibration     9          0.606              1.942              3.286
 Vibration    10          0.609              1.934              3.123
 Vibration    11          0.617              1.908              2.734
 Vibration    12          0.623              1.888              2.512
 Vibration    13          0.633              1.856              2.248
 Vibration    14          0.646              1.813              1.973
 Vibration    15          0.669              1.744              1.654
 Vibration    16          0.681              1.708              1.524
 Vibration    17          0.693              1.673              1.415
 Vibration    18          0.705              1.637              1.314
 Vibration    19          0.720              1.594              1.209
 Vibration    20          0.754              1.503              1.021
 Vibration    21          0.769              1.462              0.948
 Vibration    22          0.782              1.427              0.893
 Vibration    23          0.784              1.423              0.886
 Vibration    24          0.792              1.404              0.857
 Vibration    25          0.799              1.386              0.831
 Vibration    26          0.846              1.272              0.683
 Vibration    27          0.849              1.264              0.674
 Vibration    28          0.859              1.241              0.648
 Vibration    29          0.881              1.191              0.595
 Vibration    30          0.929              1.090              0.498
 Vibration    31          0.933              1.083              0.493
 Vibration    32          0.939              1.070              0.481
 Vibration    33          0.960              1.028              0.446

                           ! Non-Optimized Parameters !
 Normal termination of Gaussian 16 at Sat Feb 10 22:08:08 2024.
