 Gaussian 16, Revision A.03,
 Gaussian 16:  ES64L-G16RevA.03 25-Dec-2016

 ----------------------------------------------------------------
 #P UB3LYP/6-311++G(d,p) SCRF=(PCM,Solvent=n,n-DiMethylFormamide)
 ----------------------------------------------------------------

 ------------------
 Radical PCM in DMF
 ------------------
 Symbolic Z-matrix:
 Charge = -1 Multiplicity = 2

                         Standard orientation:
 ---------------------------------------------------------------------
 Center     Atomic      Atomic             Coordinates (Angstroms)
 Number     Number       Type             X           Y           Z
 ---------------------------------------------------------------------
      1          6           0       -2.291877   -0.223635   -0.130153
      2          6           0       -2.535469    1.205290   -0.179228
      3          6           0       -1.548073    2.143047   -0.082713
      4          6           0       -0.155123    1.788763    0.080572
      5          6           0        0.117765    0.356447    0.143562
      6          6           0       -0.886513   -0.571696    0.038632
      7          8           0       -3.211989   -1.071212   -0.228462
      8          8           0        0.766756    2.641768    0.166699
      9         17           0       -0.502942   -2.297433    0.089740
     10          6           0        1.548268   -0.030095    0.347381
     11          8           0        2.076136   -0.262833    1.407944
     12          8           0        2.219032   -0.077726   -0.829348
     13          6           0        3.617843   -0.364963   -0.730193
     14          1           0       -3.574865    1.495041   -0.302304
     15          1           0       -1.772201    3.204704   -0.126917
     16          1           0        3.992624   -0.352603   -1.752987
     17          1           0        3.781432   -1.344565   -0.275321
     18          1           0        4.122611    0.394866   -0.129875
 ---------------------------------------------------------------------

 SCF Done:  E(UB3LYP) =  -1069.29312708     A.U. after   21 cycles

 The electronic state is 2-A.
 Alpha  occ. eigenvalues -- -101.55657 -19.17768 -19.12868 -19.09226 -19.09184
 Alpha  occ. eigenvalues --  -10.31830 -10.24011 -10.24000 -10.23975 -10.22324
 Alpha  occ. eigenvalues --  -10.19757 -10.17792 -10.17608  -9.47102  -7.23534
 Alpha  occ. eigenvalues --   -7.22623  -7.22552  -1.12051  -1.03524  -1.01841
 Alpha  occ. eigenvalues --   -1.01510  -0.88275  -0.82460  -0.77425  -0.72626
 Alpha  occ. eigenvalues --   -0.69648  -0.63449  -0.58815  -0.57048  -0.52588
 Alpha  occ. eigenvalues --   -0.50533  -0.49285  -0.47901  -0.47409  -0.44681
 Alpha  occ. eigenvalues --   -0.43285  -0.42714  -0.42102  -0.40845  -0.39480
 Alpha  occ. eigenvalues --   -0.39213  -0.38145  -0.36792  -0.35408  -0.32055
 Alpha  occ. eigenvalues --   -0.31815  -0.30489  -0.29224  -0.26414  -0.25967
 Alpha  occ. eigenvalues --   -0.25418  -0.17724
 Alpha virt. eigenvalues --   -0.02786  -0.01193  -0.00267   0.00780   0.00951
 Alpha virt. eigenvalues --    0.01390   0.02345   0.03215   0.03435   0.03970
 Alpha virt. eigenvalues --    0.05468   0.05756   0.06262   0.06613   0.07445

  Beta  occ. eigenvalues -- -101.55652 -19.17764 -19.12856 -19.08509 -19.08483
  Beta  occ. eigenvalues --  -10.31838 -10.23885 -10.23877 -10.23829 -10.22322
  Beta  occ. eigenvalues --  -10.19633 -10.17706 -10.17504  -9.47098  -7.23539
  Beta  occ. eigenvalues --   -7.22600  -7.22550  -1.12037  -1.03503  -1.00624
  Beta  occ. eigenvalues --   -1.00278  -0.87961  -0.82023  -0.77189  -0.72504
  Beta  occ. eigenvalues --   -0.68672  -0.63123  -0.58422  -0.56919  -0.52401
  Beta  occ. eigenvalues --   -0.50325  -0.49229  -0.47782  -0.47077  -0.44432
  Beta  occ. eigenvalues --   -0.42965  -0.41620  -0.41123  -0.40632  -0.39187
  Beta  occ. eigenvalues --   -0.37946  -0.36795  -0.36545  -0.34301  -0.32011
  Beta  occ. eigenvalues --   -0.31788  -0.30279  -0.26209  -0.25576  -0.25299
  Beta  occ. eigenvalues --   -0.24784
  Beta virt. eigenvalues --   -0.10469  -0.01611  -0.00845  -0.00206   0.00821
  Beta virt. eigenvalues --    0.01030   0.02398   0.03057   0.03367   0.03857
  Beta virt. eigenvalues --    0.03997   0.05630   0.05841   0.06363   0.06650

 Mulliken charges and spin densities:
               1          2
     1  C   -0.587011   0.120773
     2  C    0.019439   0.069311
     3  C    0.186137   0.098313
     4  C   -0.793066   0.060465
     5  C    0.629537   0.092287
     6  C    0.452418   0.049941
     7  O   -0.430059   0.256027
     8  O   -0.430587   0.253594
     9  Cl   0.435938   0.008707
    10  C   -0.940178   0.000182
    11  O   -0.228865   0.002659
    12  O   -0.006199  -0.000657
    13  C   -0.235794   0.001350
    14  H    0.203470  -0.005823
    15  H    0.200267  -0.007177
    16  H    0.169794   0.000302
    17  H    0.174428   0.000033
    18  H    0.180331  -0.000289
 Sum of Mulliken charges =  -1.00000   1.00000

 Dipole moment (field-independent basis, Debye):
    X=              4.6090    Y=             -0.9230    Z=             -2.1793  Tot=              5.1811
 Quadrupole moment (field-independent basis, Debye-Ang):
   XX=           -100.1966   YY=           -103.6395   ZZ=            -89.7533
   XY=            -18.7042   XZ=             -8.3490   YZ=             -0.6206

 Normal termination of Gaussian 16 at Wed Jan 24 22:50:31 2024.
