 Q-Chem 5.4, Q-Chem, Inc., Pleasanton, CA (2021)
 Q-Chem 5.4.0 for Intel X86 EM64T Linux

User input:
--------------------------------------------------------------
$molecule
0 1
C                  5.1095050000     -2.8445280000      0.1266160000
C                  5.9215700000     -2.2046650000     -0.8001110000
C                  5.3439800000     -1.2933380000     -1.6855800000
C                  3.7384050000     -2.5740450000      0.1669900000
C                  3.1739850000     -1.6560410000     -0.7354180000
C                  3.9864480000     -1.0118490000     -1.6723760000
C                  2.8950890000     -3.2803380000      1.1804310000
C                  1.4344330000     -2.9720860000      1.1938180000
C                  0.8700070000     -2.0541040000      0.2913840000
C                  1.7133210000     -1.3478360000     -0.7220750000
C                  0.6219790000     -3.6162330000      2.1308110000
C                 -0.5010850000     -1.7836080000      0.3317730000
C                 -1.3131400000     -2.4234230000      1.2585480000
O                  3.3821740000     -4.0761800000      1.9616350000
O                  1.2262240000     -0.5520660000     -1.5033470000
H                  5.5194100000     -3.5596380000      0.8285690000
H                  6.9834730000     -2.4092560000     -0.8519980000
S                  6.3931780000     -0.4662390000     -2.8846310000
H                 -2.3750320000     -2.2187730000      1.3104430000
H                  3.5459310000     -0.3147260000     -2.3738220000
H                  1.0624760000     -4.3133430000      2.8322820000
H                 -0.9110060000     -1.0685180000     -0.3701910000
C                 -0.7355500000     -3.3347090000      2.1440510000
S                 -1.7847200000     -4.1617220000      3.3431920000
O                 -0.9982250000     -4.5473830000      4.5053470000
O                 -3.0159230000     -3.4023860000      3.5101290000
O                 -2.0985070000     -5.4976380000      2.4471690000
C                 -2.9091190000     -6.5170660000      3.0879970000
H                 -2.4080920000     -6.8904970000      3.9822510000
H                 -2.9962820000     -7.3074490000      2.3462710000
H                 -3.8949340000     -6.1180790000      3.3322530000
O                  5.6068440000     -0.0811950000     -4.0471060000
O                  7.6246250000     -1.2252920000     -3.0510250000
O                  6.7062040000      0.8700130000     -1.9888560000
C                  7.5155650000      1.8901410000     -2.6301400000
H                  7.0138930000      2.2628410000     -3.5243350000
H                  8.5017280000      1.4921280000     -2.8745890000
H                  7.6021210000      2.6807750000     -1.8886110000
$end

$rem
BASIS  =  6-311++G(d,p)
GUI  =  2
JOB_TYPE  =  SP
METHOD  =  B3LYP
SCF_CONVERGENCE  = 8
SOLVENT_METHOD = sm12
$end

$smx
solvent dimethylformamide
charges CM5
$end

--------------------------------------------------------------

             Standard Nuclear Orientation (Angstroms)
    I     Atom           X                Y                Z
 ----------------------------------------------------------------
    1      C       5.1095050000    -2.8445280000     0.1266160000
    2      C       5.9215700000    -2.2046650000    -0.8001110000
    3      C       5.3439800000    -1.2933380000    -1.6855800000
    4      C       3.7384050000    -2.5740450000     0.1669900000
    5      C       3.1739850000    -1.6560410000    -0.7354180000
    6      C       3.9864480000    -1.0118490000    -1.6723760000
    7      C       2.8950890000    -3.2803380000     1.1804310000
    8      C       1.4344330000    -2.9720860000     1.1938180000
    9      C       0.8700070000    -2.0541040000     0.2913840000
   10      C       1.7133210000    -1.3478360000    -0.7220750000
   11      C       0.6219790000    -3.6162330000     2.1308110000
   12      C      -0.5010850000    -1.7836080000     0.3317730000
   13      C      -1.3131400000    -2.4234230000     1.2585480000
   14      O       3.3821740000    -4.0761800000     1.9616350000
   15      O       1.2262240000    -0.5520660000    -1.5033470000
   16      H       5.5194100000    -3.5596380000     0.8285690000
   17      H       6.9834730000    -2.4092560000    -0.8519980000
   18      S       6.3931780000    -0.4662390000    -2.8846310000
   19      H      -2.3750320000    -2.2187730000     1.3104430000
   20      H       3.5459310000    -0.3147260000    -2.3738220000
   21      H       1.0624760000    -4.3133430000     2.8322820000
   22      H      -0.9110060000    -1.0685180000    -0.3701910000
   23      C      -0.7355500000    -3.3347090000     2.1440510000
   24      S      -1.7847200000    -4.1617220000     3.3431920000
   25      O      -0.9982250000    -4.5473830000     4.5053470000
   26      O      -3.0159230000    -3.4023860000     3.5101290000
   27      O      -2.0985070000    -5.4976380000     2.4471690000
   28      C      -2.9091190000    -6.5170660000     3.0879970000
   29      H      -2.4080920000    -6.8904970000     3.9822510000
   30      H      -2.9962820000    -7.3074490000     2.3462710000
   31      H      -3.8949340000    -6.1180790000     3.3322530000
   32      O       5.6068440000    -0.0811950000    -4.0471060000
   33      O       7.6246250000    -1.2252920000    -3.0510250000
   34      O       6.7062040000     0.8700130000    -1.9888560000
   35      C       7.5155650000     1.8901410000    -2.6301400000
   36      H       7.0138930000     2.2628410000    -3.5243350000
   37      H       8.5017280000     1.4921280000    -2.8745890000
   38      H       7.6021210000     2.6807750000    -1.8886110000
 ----------------------------------------------------------------

   15   -2015.3465458273      7.49e-09  Convergence criterion met
 Total energy in the final basis set =    -2015.3853367553

                    Orbital Energies (a.u.)
 --------------------------------------------------------------

 Alpha MOs
 -- Occupied --
-89.0960 -89.0960 -19.1831 -19.1831 -19.1443 -19.1443 -19.1432 -19.1432
-19.1432 -19.1432 -10.2969 -10.2969 -10.2467 -10.2467 -10.2315 -10.2315
-10.2298 -10.2298 -10.2288 -10.2288 -10.2249 -10.2249 -10.2238 -10.2238
-10.2153 -10.2153  -8.1571  -8.1571  -6.1208  -6.1208  -6.1189  -6.1189
 -6.1179  -6.1179  -1.1652  -1.1652  -1.0806  -1.0787  -1.0550  -1.0550
 -1.0386  -1.0386  -0.9189  -0.9101  -0.8453  -0.8146  -0.8032  -0.8000
 -0.7557  -0.7479  -0.7099  -0.6984  -0.6753  -0.6572  -0.6332  -0.6213
 -0.6054  -0.5837  -0.5794  -0.5608  -0.5357  -0.5305  -0.5252  -0.5241
 -0.5107  -0.5005  -0.4935  -0.4845  -0.4732  -0.4724  -0.4708  -0.4695
 -0.4676  -0.4612  -0.4606  -0.4575  -0.4555  -0.4370  -0.4331  -0.4215
 -0.4125  -0.4117  -0.4105  -0.4033  -0.3913  -0.3895  -0.3626  -0.3625
 -0.3578  -0.3573  -0.3466  -0.3463  -0.3442  -0.3441  -0.3103  -0.3099
 -0.3092  -0.3011  -0.3008  -0.2999  -0.2954  -0.2890

          Ground-State Mulliken Net Atomic Charges

     Atom                 Charge (a.u.)
  ----------------------------------------
      1 C                     0.584398
      2 C                     0.192737
      3 C                    -1.262929
      4 C                     0.605750
      5 C                     0.229652
      6 C                     0.046630
      7 C                    -0.921682
      8 C                     0.229395
      9 C                     0.606065
     10 C                    -0.921711
     11 C                     0.046882
     12 C                     0.584585
     13 C                     0.192815
     14 O                    -0.248080
     15 O                    -0.248058
     16 H                     0.262851
     17 H                     0.332273
     18 S                    -0.187792
     19 H                     0.332336
     20 H                     0.228686
     21 H                     0.228681
     22 H                     0.262854
     23 C                    -1.263296
     24 S                    -0.188101
     25 O                    -0.241058
     26 O                    -0.193653
     27 O                     0.000778
     28 C                    -0.049717
     29 H                     0.187904
     30 H                     0.242698
     31 H                     0.190655
     32 O                    -0.241228
     33 O                    -0.193480
     34 O                     0.000682
     35 C                    -0.049818
     36 H                     0.187912
     37 H                     0.190677
     38 H                     0.242709
  ----------------------------------------
  Sum of atomic charges =     0.000000

                    Cartesian Multipole Moments
 -----------------------------------------------------------------
    Charge (ESU x 10^10)
                -0.0000
    Dipole Moment (Debye)
         X      -0.0025      Y       0.0022      Z      -0.0014
       Tot       0.0036
    Quadrupole Moments (Debye-Ang)
        XX    -153.1300     XY      26.5856     YY    -140.5254
        XZ      14.3449     YZ       0.2722     ZZ    -202.8182

 Total job time:  1373.74s(wall), 10663.94s(cpu)
        *  Thank you very much for using Q-Chem.  Have a nice day.  *
