 Gaussian 16, Revision A.03,
 Gaussian 16:  ES64L-G16RevA.03 25-Dec-2016

 ----------------------------------------------------------------
 #P UB3LYP/6-311++G(d,p) SCRF=(PCM,Solvent=n,n-DiMethylFormamide)
 ----------------------------------------------------------------

 ------------------
 Quinone PCM in DMF
 ------------------
 Symbolic Z-matrix:
 Charge =  0 Multiplicity = 1

                         Standard orientation:
 ---------------------------------------------------------------------
 Center     Atomic      Atomic             Coordinates (Angstroms)
 Number     Number       Type             X           Y           Z
 ---------------------------------------------------------------------
      1          6           0       -0.345127    1.705326   -0.030918
      2          6           0        1.024637    2.271722   -0.027467
      3          6           0        2.102636    1.481674    0.009225
      4          6           0        1.991204    0.002265    0.040122
      5          6           0        0.599622   -0.564968   -0.006731
      6          6           0       -0.489347    0.220388   -0.059110
      7          8           0       -1.328283    2.425341   -0.000195
      8          8           0        2.974695   -0.704109    0.100126
      9          6           0       -1.910759   -0.316377   -0.184736
     10          6           0       -2.705073   -0.429428    1.087630
     11          8           0       -2.329520   -0.604278   -1.278356
     12          1           0       -2.812566    0.564115    1.533499
     13          1           0       -2.173931   -1.059748    1.807721
     14          1           0       -3.687755   -0.849150    0.874946
     15          1           0        3.115203    1.868475    0.023735
     16         17           0        0.489918   -2.296284    0.015445
     17          1           0        1.088541    3.353883   -0.043140
 ---------------------------------------------------------------------

 SCF Done:  E(UB3LYP) =  -993.873979001     A.U. after   16 cycles

 The electronic state is 1-A.
 Alpha  occ. eigenvalues -- -101.58624 -19.16135 -19.15903 -19.15117 -10.30990
 Alpha  occ. eigenvalues --  -10.30813 -10.30231 -10.28644 -10.23982 -10.22628
 Alpha  occ. eigenvalues --  -10.22525 -10.18710  -9.50074  -7.26545  -7.25580
 Alpha  occ. eigenvalues --   -7.25483  -1.09571  -1.09302  -1.08504  -0.92277
 Alpha  occ. eigenvalues --   -0.86413  -0.81010  -0.76331  -0.72508  -0.66806
 Alpha  occ. eigenvalues --   -0.62787  -0.57928  -0.55082  -0.52165  -0.50550
 Alpha  occ. eigenvalues --   -0.48947  -0.48368  -0.47253  -0.46598  -0.46220
 Alpha  occ. eigenvalues --   -0.44844  -0.44049  -0.43179  -0.41255  -0.39251
 Alpha  occ. eigenvalues --   -0.38453  -0.34702  -0.32572  -0.31394  -0.30909
 Alpha  occ. eigenvalues --   -0.29924  -0.28332
 Alpha virt. eigenvalues --   -0.15196  -0.05820  -0.04643  -0.01929  -0.00987
 Alpha virt. eigenvalues --   -0.00089   0.00751   0.01832   0.03096   0.03309
 Alpha virt. eigenvalues --    0.04051   0.05354   0.05777   0.05967   0.06409

  Beta  occ. eigenvalues -- -101.58624 -19.16135 -19.15903 -19.15117 -10.30990
  Beta  occ. eigenvalues --  -10.30813 -10.30231 -10.28644 -10.23982 -10.22628
  Beta  occ. eigenvalues --  -10.22525 -10.18710  -9.50074  -7.26545  -7.25580
  Beta  occ. eigenvalues --   -7.25483  -1.09571  -1.09302  -1.08504  -0.92277
  Beta  occ. eigenvalues --   -0.86413  -0.81010  -0.76331  -0.72508  -0.66806
  Beta  occ. eigenvalues --   -0.62787  -0.57928  -0.55082  -0.52165  -0.50550
  Beta  occ. eigenvalues --   -0.48947  -0.48368  -0.47253  -0.46598  -0.46220
  Beta  occ. eigenvalues --   -0.44844  -0.44049  -0.43179  -0.41255  -0.39251
  Beta  occ. eigenvalues --   -0.38453  -0.34702  -0.32572  -0.31394  -0.30909
  Beta  occ. eigenvalues --   -0.29924  -0.28332
  Beta virt. eigenvalues --   -0.15196  -0.05820  -0.04643  -0.01929  -0.00987
  Beta virt. eigenvalues --   -0.00089   0.00751   0.01832   0.03096   0.03309
  Beta virt. eigenvalues --    0.04051   0.05354   0.05777   0.05967   0.06409

 Mulliken charges and spin densities:
               1          2
     1  C   -0.946246   0.000000
     2  C    0.161999  -0.000000
     3  C    0.113168  -0.000000
     4  C   -0.656991  -0.000000
     5  C    0.212456   0.000000
     6  C    0.934225  -0.000000
     7  O   -0.228997  -0.000000
     8  O   -0.221291  -0.000000
     9  C   -0.144965   0.000000
    10  C   -0.564315   0.000000
    11  O   -0.264626   0.000000
    12  H    0.211437   0.000000
    13  H    0.171514  -0.000000
    14  H    0.181473  -0.000000
    15  H    0.255639  -0.000000
    16  Cl   0.530856   0.000000
    17  H    0.254664  -0.000000
 Sum of Mulliken charges =  -0.00000   0.00000

 Dipole moment (field-independent basis, Debye):
    X=              1.1804    Y=              2.2408    Z=              3.1837  Tot=              4.0682
 Quadrupole moment (field-independent basis, Debye-Ang):
   XX=            -83.8685   YY=            -75.4415   ZZ=            -76.6374
   XY=             13.0063   XZ=             -8.8631   YZ=             -2.0815

 Normal termination of Gaussian 16 at Sun Jan 21 07:06:54 2024.
