 Gaussian 16, Revision A.03,
 Gaussian 16:  ES64L-G16RevA.03 25-Dec-2016

 --------------------------------------
 #P UB3LYP/6-311++G(d,p) nosym opt freq
 --------------------------------------

 --------
 Oxidized
 --------
 Symbolic Z-matrix:
 Charge =  0 Multiplicity = 1

 SCF Done:  E(UB3LYP) =  -993.861250379     A.U. after   17 cycles
 Optimization completed.
    -- Stationary point found.
 Normal termination of Gaussian 16 at Sat Jan  6 05:39:20 2024.

 ----------------------------------------------------------------------
 #P Geom=AllCheck Guess=TCheck SCRF=Check GenChk UB3LYP/6-311++G(d,p) F
 req
 ----------------------------------------------------------------------

 Structure from the checkpoint file:  "060.chk"
 --------
 Oxidized
 --------
 Charge =  0 Multiplicity = 1

                          Input orientation:
 ---------------------------------------------------------------------
 Center     Atomic      Atomic             Coordinates (Angstroms)
 Number     Number       Type             X           Y           Z
 ---------------------------------------------------------------------
      1          6           0       -0.064774    0.998596   -0.408243
      2          6           0       -1.003383    0.138719   -1.167648
      3          6           0       -1.159292   -1.154460   -0.866013
      4          6           0       -0.413092   -1.797346    0.243900
      5          6           0        0.504747   -0.908380    1.036214
      6          6           0        0.656675    0.395715    0.750498
      7          8           0        0.125078    2.160911   -0.722795
      8          8           0       -0.542236   -2.977024    0.491890
      9          6           0        1.517495    1.345087    1.576326
     10          6           0        2.906121    1.615420    1.065181
     11          8           0        1.049008    1.838076    2.572185
     12          1           0        2.840993    2.076204    0.074768
     13          1           0        3.456747    0.675649    0.957535
     14          1           0        3.430220    2.280851    1.750446
     15          1           0       -1.829909   -1.808921   -1.411056
     16         17           0        1.357314   -1.674257    2.338728
     17          1           0       -1.535284    0.621781   -1.979518
 ---------------------------------------------------------------------

 SCF Done:  E(UB3LYP) =  -993.861250379     A.U. after    1 cycles

 Alpha  occ. eigenvalues -- -101.58790 -19.16375 -19.16222 -19.14691 -10.31306
 Alpha  occ. eigenvalues --  -10.31200 -10.29987 -10.29056 -10.24370 -10.23840
 Alpha  occ. eigenvalues --  -10.23729 -10.19524  -9.50237  -7.26715  -7.25746
 Alpha  occ. eigenvalues --   -7.25634  -1.09767  -1.09463  -1.08127  -0.92622
 Alpha  occ. eigenvalues --   -0.87205  -0.81606  -0.76973  -0.73174  -0.67478
 Alpha  occ. eigenvalues --   -0.63428  -0.58219  -0.55685  -0.52693  -0.50711
 Alpha  occ. eigenvalues --   -0.49463  -0.48640  -0.47448  -0.46917  -0.46266
 Alpha  occ. eigenvalues --   -0.45458  -0.44426  -0.43890  -0.41849  -0.39324
 Alpha  occ. eigenvalues --   -0.38616  -0.34773  -0.33471  -0.31468  -0.31090
 Alpha  occ. eigenvalues --   -0.30367  -0.28115
 Alpha virt. eigenvalues --   -0.15727  -0.06019  -0.05202  -0.02505  -0.01596
 Alpha virt. eigenvalues --   -0.01128  -0.00146   0.01467   0.02291   0.03101
 Alpha virt. eigenvalues --    0.03395   0.04783   0.05377   0.05744   0.06332

  Beta  occ. eigenvalues -- -101.58790 -19.16375 -19.16222 -19.14691 -10.31306
  Beta  occ. eigenvalues --  -10.31200 -10.29987 -10.29056 -10.24370 -10.23840
  Beta  occ. eigenvalues --  -10.23729 -10.19524  -9.50237  -7.26715  -7.25746
  Beta  occ. eigenvalues --   -7.25634  -1.09767  -1.09463  -1.08127  -0.92622
  Beta  occ. eigenvalues --   -0.87205  -0.81606  -0.76973  -0.73174  -0.67478
  Beta  occ. eigenvalues --   -0.63428  -0.58219  -0.55685  -0.52693  -0.50711
  Beta  occ. eigenvalues --   -0.49463  -0.48640  -0.47448  -0.46917  -0.46266
  Beta  occ. eigenvalues --   -0.45458  -0.44426  -0.43890  -0.41849  -0.39324
  Beta  occ. eigenvalues --   -0.38616  -0.34773  -0.33471  -0.31468  -0.31090
  Beta  occ. eigenvalues --   -0.30367  -0.28115
  Beta virt. eigenvalues --   -0.15727  -0.06019  -0.05202  -0.02505  -0.01596
  Beta virt. eigenvalues --   -0.01128  -0.00146   0.01467   0.02291   0.03101
  Beta virt. eigenvalues --    0.03395   0.04783   0.05377   0.05744   0.06332

 Mulliken charges and spin densities:
               1          2
     1  C   -0.973134   0.000000
     2  C    0.168730  -0.000000
     3  C    0.115374   0.000000
     4  C   -0.746831  -0.000000
     5  C    0.278561   0.000000
     6  C    0.851702  -0.000000
     7  O   -0.181976  -0.000000
     8  O   -0.161149   0.000000
     9  C   -0.163111  -0.000000
    10  C   -0.543198   0.000000
    11  O   -0.195114   0.000000
    12  H    0.203644   0.000000
    13  H    0.150082   0.000000
    14  H    0.179032  -0.000000
    15  H    0.232470   0.000000
    16  Cl   0.553195  -0.000000
    17  H    0.231722  -0.000000
 Sum of Mulliken charges =  -0.00000   0.00000

 Dipole moment (field-independent basis, Debye):
    X=              0.5967    Y=             -0.5351    Z=             -2.9702  Tot=              3.0764
 Quadrupole moment (field-independent basis, Debye-Ang):
   XX=            -65.6279   YY=            -91.6446   ZZ=            -80.6562
   XY=              1.2176   XZ=              3.3760   YZ=             -0.2526

  Exact polarizability:  92.256  12.600 147.281  18.549 -15.031 102.552
 Approx polarizability: 126.635  14.657 291.746  14.136 -44.959 157.740

                      1                      2                      3
                      A                      A                      A
 Frequencies --     38.5306                67.9538                82.2032
 Red. masses --      4.4590                 9.6536                 7.2392
 Frc consts  --      0.0039                 0.0263                 0.0288
 IR Inten    --      3.6130                 1.1072                10.0662

                      4                      5                      6
                      A                      A                      A
 Frequencies --    129.6867               138.4821               150.5401
 Red. masses --      1.3946                 2.7450                 6.0578
 Frc consts  --      0.0138                 0.0310                 0.0809
 IR Inten    --      0.1633                 0.0641                 4.5834

                      7                      8                      9
                      A                      A                      A
 Frequencies --    221.8776               259.0109               302.9745
 Red. masses --     11.7450                 4.8131                 6.4704
 Frc consts  --      0.3407                 0.1902                 0.3499
 IR Inten    --      0.2808                 0.1054                 1.5544

                     10                     11                     12
                      A                      A                      A
 Frequencies --    346.3811               350.6163               445.7048
 Red. masses --     17.7024                 6.5657                 8.5676
 Frc consts  --      1.2514                 0.4756                 1.0028
 IR Inten    --      2.3844                 1.6788                12.2084

                     13                     14                     15
                      A                      A                      A
 Frequencies --    481.8454               529.7704               558.4698
 Red. masses --      5.9783                 3.9415                 5.1871
 Frc consts  --      0.8178                 0.6518                 0.9532
 IR Inten    --     16.0210                11.6010                10.3566

                     16                     17                     18
                      A                      A                      A
 Frequencies --    587.1223               610.3881               643.9972
 Red. masses --      3.5511                 3.3155                 3.5643
 Frc consts  --      0.7212                 0.7278                 0.8709
 IR Inten    --      6.8096                 1.7790                 6.1033

                     19                     20                     21
                      A                      A                      A
 Frequencies --    707.7111               791.8105               853.1613
 Red. masses --      6.9149                 9.2467                 2.9696
 Frc consts  --      2.0406                 3.4157                 1.2735
 IR Inten    --      7.9576                 0.4214                18.3711

                     22                     23                     24
                      A                      A                      A
 Frequencies --    861.0130               898.0501               975.9326
 Red. masses --      2.8728                 7.9478                 2.3663
 Frc consts  --      1.2548                 3.7766                 1.3279
 IR Inten    --     27.4806                39.1830                34.8746

                     25                     26                     27
                      A                      A                      A
 Frequencies --   1009.7714              1023.9421              1076.0899
 Red. masses --      1.2473                 2.3835                 2.6652
 Frc consts  --      0.7493                 1.4724                 1.8183
 IR Inten    --      0.0536                47.1356                36.1762

                     28                     29                     30
                      A                      A                      A
 Frequencies --   1116.1659              1198.8507              1270.9469
 Red. masses --      1.4757                 3.3941                 3.3523
 Frc consts  --      1.0832                 2.8741                 3.1904
 IR Inten    --     35.9497                78.8443                18.1479

                     31                     32                     33
                      A                      A                      A
 Frequencies --   1291.2397              1382.9111              1385.0475
 Red. masses --      3.5753                 1.4421                 1.6043
 Frc consts  --      3.5122                 1.6249                 1.8133
 IR Inten    --    203.9665                25.6123                36.5758

                     34                     35                     36
                      A                      A                      A
 Frequencies --   1461.4194              1468.7564              1626.9325
 Red. masses --      1.0584                 1.0488                10.9054
 Frc consts  --      1.3318                 1.3330                17.0072
 IR Inten    --     13.2633                17.2500                57.9591

                     37                     38                     39
                      A                      A                      A
 Frequencies --   1677.7007              1715.4955              1744.0007
 Red. masses --      8.3989                10.9183                12.0259
 Frc consts  --     13.9284                18.9315                21.5507
 IR Inten    --      1.5716               193.9914               242.3357

                     40                     41                     42
                      A                      A                      A
 Frequencies --   1794.4973              3030.3197              3091.5731
 Red. masses --     11.3567                 1.0357                 1.0989
 Frc consts  --     21.5470                 5.6036                 6.1882
 IR Inten    --    184.1821                 0.6886                 1.5262

                     43                     44                     45
                      A                      A                      A
 Frequencies --   3139.6443              3181.7163              3198.7851
 Red. masses --      1.1030                 1.0875                 1.0996
 Frc consts  --      6.4059                 6.4865                 6.6292
 IR Inten    --      5.5562                 0.2147                 0.7554

 - Thermochemistry -
 -------------------
 Temperature   298.150 Kelvin.  Pressure   1.00000 Atm.
 Atom     1 has atomic number  6 and mass  12.00000

 Molecular mass:   183.99272 amu.
 Principal axes and moments of inertia in atomic units:
                           1         2         3
     Eigenvalues --  1733.649492159.487553556.94697
           X            0.42699   0.50174   0.75229
           Y            0.88850  -0.38744  -0.24589
           Z            0.16810   0.77340  -0.61123
 This molecule is an asymmetric top.
 Rotational symmetry number  1.
 Warning -- assumption of classical behavior for rotation
           may cause significant error
 Rotational temperatures (Kelvin)      0.04996     0.04011     0.02435
 Rotational constants (GHZ):           1.04101     0.83573     0.50738
 Zero-point vibrational energy     292600.8 (Joules/Mol)
                                   69.93328 (Kcal/Mol)
 Warning -- explicit consideration of  17 degrees of freedom as
           vibrations may cause significant error
 Vibrational temperatures:     55.44    97.77   118.27   186.59   199.24
          (Kelvin)            216.59   319.23   372.66   435.91   498.37
                              504.46   641.27   693.27   762.22   803.51
                              844.74   878.21   926.57  1018.24  1139.24
                             1227.51  1238.81  1292.09  1404.15  1452.84
                             1473.22  1548.25  1605.91  1724.88  1828.61
                             1857.81  1989.70  1992.77  2102.66  2113.21
                             2340.79  2413.84  2468.22  2509.23  2581.88
                             4359.95  4448.08  4517.25  4577.78  4602.34

 Zero-point correction=                           0.111446 (Hartree/Particle)
 Thermal correction to Energy=                    0.122796
 Thermal correction to Enthalpy=                  0.123740
 Thermal correction to Gibbs Free Energy=         0.072817
 Sum of electronic and zero-point Energies=           -993.749805
 Sum of electronic and thermal Energies=              -993.738455
 Sum of electronic and thermal Enthalpies=            -993.737511
 Sum of electronic and thermal Free Energies=         -993.788433

                     E (Thermal)             CV                S
                      KCal/Mol        Cal/Mol-Kelvin    Cal/Mol-Kelvin
 Total                   77.055             39.857            107.175
 Electronic               0.000              0.000              0.000
 Translational            0.889              2.981             41.535
 Rotational               0.889              2.981             30.966
 Vibrational             75.278             33.896             34.674
 Vibration     1          0.594              1.981              5.333
 Vibration     2          0.598              1.969              4.212
 Vibration     3          0.600              1.961              3.838
 Vibration     4          0.612              1.924              2.951
 Vibration     5          0.614              1.915              2.825
 Vibration     6          0.618              1.902              2.665
 Vibration     7          0.648              1.808              1.944
 Vibration     8          0.668              1.748              1.668
 Vibration     9          0.694              1.668              1.400
 Vibration    10          0.724              1.583              1.183
 Vibration    11          0.728              1.574              1.163
 Vibration    12          0.805              1.370              0.809
 Vibration    13          0.838              1.290              0.705
 Vibration    14          0.885              1.184              0.588
 Vibration    15          0.914              1.121              0.527
 Vibration    16          0.944              1.059              0.472
 Vibration    17          0.969              1.010              0.432

 Optimization completed.
    -- Stationary point found.
 Normal termination of Gaussian 16 at Sat Jan  6 05:55:56 2024.
