 Gaussian 16, Revision A.03,
 Gaussian 16:  ES64L-G16RevA.03 25-Dec-2016

 ----------------------------------------------------------------------
 #P UB3LYP/6-311++G(d,p) nosym opt freq SCRF=(PCM,Solvent=n,n-DiMethylF
 ormamide)
 ----------------------------------------------------------------------

 -------
 Radical
 -------
 Symbolic Z-matrix:
 Charge = -1 Multiplicity = 2

 SCF Done:  E(UB3LYP) =  -10675.8901867     A.U. after   16 cycles
 SCF Done:  E(UB3LYP) =  -10675.8903048     A.U. after   12 cycles
 SCF Done:  E(UB3LYP) =  -10675.8903307     A.U. after   12 cycles
 SCF Done:  E(UB3LYP) =  -10675.8903312     A.U. after    9 cycles
 Optimization completed.
    -- Stationary point found.
 Normal termination of Gaussian 16 at Sat Feb 10 10:10:59 2024.

 ----------------------------------------------------------------------
 #P Geom=AllCheck Guess=TCheck SCRF=Check GenChk UB3LYP/6-311++G(d,p) F
 req
 ----------------------------------------------------------------------

 Structure from the checkpoint file:  "030-rad.chk"
 -------
 Radical
 -------
 Charge = -1 Multiplicity = 2

                          Input orientation:
 ---------------------------------------------------------------------
 Center     Atomic      Atomic             Coordinates (Angstroms)
 Number     Number       Type             X           Y           Z
 ---------------------------------------------------------------------
      1         35           0       -3.113155   -1.139887    0.015894
      2          6           0       -1.335763   -0.440203    0.006827
      3          6           0       -1.076816    0.904556    0.008686
      4         35           0       -2.466669    2.214793    0.019990
      5          6           0        0.278465    1.446489    0.002104
      6          8           0        0.514197    2.672439    0.004267
      7          6           0        1.335759    0.440198   -0.006832
      8          6           0        1.076812   -0.904559   -0.008691
      9         35           0        2.466674   -2.214787   -0.019978
     10          6           0       -0.278461   -1.446493   -0.002122
     11          8           0       -0.514196   -2.672440   -0.004264
     12         35           0        3.113153    1.139894   -0.015881
 ---------------------------------------------------------------------

 SCF Done:  E(UB3LYP) =  -10675.8903312     A.U. after    1 cycles

 Alpha  occ. eigenvalues -- -482.83706-482.83706-482.83706-482.83706 -62.48979
 Alpha  occ. eigenvalues --  -62.48979 -62.48978 -62.48978 -56.31020 -56.31020
 Alpha  occ. eigenvalues --  -56.31019 -56.31019 -56.30642 -56.30642 -56.30641
 Alpha  occ. eigenvalues --  -56.30641 -56.30598 -56.30598 -56.30597 -56.30597
 Alpha  occ. eigenvalues --  -19.10225 -19.10225 -10.25978 -10.25977 -10.24420
 Alpha  occ. eigenvalues --  -10.24418 -10.24356 -10.24356  -8.69947  -8.69947
 Alpha  occ. eigenvalues --   -8.69947  -8.69946  -6.53102  -6.53102  -6.53101
 Alpha  occ. eigenvalues --   -6.53101  -6.51836  -6.51836  -6.51836  -6.51836
 Alpha  occ. eigenvalues --   -6.51713  -6.51713  -6.51712  -6.51712  -2.64195
 Alpha  occ. eigenvalues --   -2.64195  -2.64194  -2.64194  -2.63854  -2.63854
 Alpha  occ. eigenvalues --   -2.63853  -2.63853  -2.63761  -2.63760  -2.63760
 Alpha  occ. eigenvalues --   -2.63759  -2.62751  -2.62751  -2.62751  -2.62751
 Alpha  occ. eigenvalues --   -2.62750  -2.62750  -2.62749  -2.62749  -1.03479
 Alpha  occ. eigenvalues --   -1.03181  -0.88429  -0.85351  -0.80283  -0.80253
 Alpha  occ. eigenvalues --   -0.77789  -0.71302  -0.69582  -0.59449  -0.59013
 Alpha  occ. eigenvalues --   -0.52837  -0.47593  -0.45183  -0.44645  -0.42313
 Alpha  occ. eigenvalues --   -0.42259  -0.41183  -0.40854  -0.38553  -0.36736
 Alpha  occ. eigenvalues --   -0.33959  -0.31679  -0.31438  -0.30855  -0.30834
 Alpha  occ. eigenvalues --   -0.29042  -0.28495  -0.27996  -0.27290  -0.25672
 Alpha  occ. eigenvalues --   -0.25058  -0.18562
 Alpha virt. eigenvalues --   -0.05296  -0.03964  -0.02585  -0.00567   0.00202
 Alpha virt. eigenvalues --    0.00377   0.01689   0.02128   0.02572   0.03694
 Alpha virt. eigenvalues --    0.04181   0.04852   0.05137   0.05452   0.06236

  Beta  occ. eigenvalues -- -482.83705-482.83705-482.83705-482.83704 -62.48978
  Beta  occ. eigenvalues --  -62.48977 -62.48977 -62.48977 -56.31021 -56.31021
  Beta  occ. eigenvalues --  -56.31021 -56.31021 -56.30636 -56.30636 -56.30635
  Beta  occ. eigenvalues --  -56.30635 -56.30598 -56.30597 -56.30597 -56.30597
  Beta  occ. eigenvalues --  -19.09539 -19.09538 -10.25862 -10.25861 -10.24299
  Beta  occ. eigenvalues --  -10.24296 -10.24234 -10.24234  -8.69945  -8.69945
  Beta  occ. eigenvalues --   -8.69944  -8.69943  -6.53105  -6.53105  -6.53104
  Beta  occ. eigenvalues --   -6.53104  -6.51826  -6.51825  -6.51825  -6.51825
  Beta  occ. eigenvalues --   -6.51712  -6.51712  -6.51711  -6.51711  -2.64196
  Beta  occ. eigenvalues --   -2.64196  -2.64195  -2.64195  -2.63849  -2.63849
  Beta  occ. eigenvalues --   -2.63848  -2.63848  -2.63763  -2.63762  -2.63762
  Beta  occ. eigenvalues --   -2.63761  -2.62746  -2.62745  -2.62745  -2.62745
  Beta  occ. eigenvalues --   -2.62745  -2.62744  -2.62744  -2.62744  -1.02328
  Beta  occ. eigenvalues --   -1.01990  -0.87924  -0.85191  -0.80168  -0.80072
  Beta  occ. eigenvalues --   -0.77591  -0.71142  -0.68643  -0.59034  -0.58578
  Beta  occ. eigenvalues --   -0.52610  -0.47168  -0.44066  -0.43587  -0.42236
  Beta  occ. eigenvalues --   -0.41878  -0.40776  -0.38384  -0.38241  -0.36295
  Beta  occ. eigenvalues --   -0.32034  -0.31632  -0.31277  -0.30809  -0.30298
  Beta  occ. eigenvalues --   -0.28834  -0.28478  -0.26634  -0.26166  -0.25223
  Beta  occ. eigenvalues --   -0.24524
  Beta virt. eigenvalues --   -0.11615  -0.05157  -0.02508  -0.02444  -0.00395
  Beta virt. eigenvalues --    0.00238   0.01754   0.02136   0.02631   0.02874
  Beta virt. eigenvalues --    0.03742   0.04206   0.04891   0.05140   0.05550

 Mulliken charges and spin densities:
               1          2
     1  Br  -0.087276   0.006008
     2  C    0.322626   0.079541
     3  C    0.322863   0.079666
     4  Br  -0.087115   0.006008
     5  C   -0.626832   0.078571
     6  O   -0.344270   0.250203
     7  C    0.322622   0.079544
     8  C    0.322872   0.079669
     9  Br  -0.087117   0.006009
    10  C   -0.626825   0.078571
    11  O   -0.344271   0.250202
    12  Br  -0.087278   0.006008
 Sum of Mulliken charges =  -1.00000   1.00000

 Dipole moment (field-independent basis, Debye):
    X=             -0.0000    Y=             -0.0000    Z=             -0.0000  Tot=              0.0000
 Quadrupole moment (field-independent basis, Debye-Ang):
   XX=           -131.4506   YY=           -157.6128   ZZ=           -121.0326
   XY=             -5.2300   XZ=              0.0473   YZ=             -0.0690

  Exact polarizability: 306.945   3.788 326.109  -1.077   0.487 124.081
 Approx polarizability: 311.483  14.631 384.802  -0.961   0.538 143.070

                      1                      2                      3
                      A                      A                      A
 Frequencies --     37.5545                56.2504                83.2745
 Red. masses --     75.7754                17.5979                19.1439
 Frc consts  --      0.0630                 0.0328                 0.0782
 IR Inten    --      0.0389                 9.3828                 0.0000

                      4                      5                      6
                      A                      A                      A
 Frequencies --    127.4098               136.9259               138.0732
 Red. masses --     78.1427                40.2896                66.3674
 Frc consts  --      0.7474                 0.4451                 0.7455
 IR Inten    --      0.0000                 2.8637                 1.7446

                      7                      8                      9
                      A                      A                      A
 Frequencies --    170.9828               192.3089               212.6388
 Red. masses --     13.4423                60.2448                68.3334
 Frc consts  --      0.2315                 1.3127                 1.8204
 IR Inten    --      5.3541                 0.0000                 0.0000

                     10                     11                     12
                      A                      A                      A
 Frequencies --    287.8720               289.3089               331.1748
 Red. masses --     16.6024                12.2898                20.6218
 Frc consts  --      0.8106                 0.6061                 1.3326
 IR Inten    --      0.0000                 0.0000                 0.7041

                     13                     14                     15
                      A                      A                      A
 Frequencies --    334.7043               358.2784               487.5978
 Red. masses --     18.3129                12.3917                14.0766
 Frc consts  --      1.2087                 0.9372                 1.9718
 IR Inten    --      4.1525                 0.0000                 0.0000

                     16                     17                     18
                      A                      A                      A
 Frequencies --    519.4523               598.4072               693.8465
 Red. masses --     12.0499                13.7351                12.6428
 Frc consts  --      1.9157                 2.8979                 3.5861
 IR Inten    --      0.0002               176.8941                 0.0000

                     19                     20                     21
                      A                      A                      A
 Frequencies --    700.4922               721.5358               756.5508
 Red. masses --     12.2154                12.1372                12.4577
 Frc consts  --      3.5315                 3.7229                 4.2011
 IR Inten    --     17.5303                 0.0000                 0.0000

                     22                     23                     24
                      A                      A                      A
 Frequencies --    864.5184               943.4906              1092.6091
 Red. masses --     12.9077                12.4399                12.1494
 Frc consts  --      5.6839                 6.5244                 8.5455
 IR Inten    --    369.7462                 0.0000               444.0377

                     25                     26                     27
                      A                      A                      A
 Frequencies --   1111.6931              1298.1329              1446.5202
 Red. masses --     12.0245                12.0132                12.0267
 Frc consts  --      8.7556                11.9275                14.8268
 IR Inten    --    106.5881                 0.0000                 0.4239

                     28                     29                     30
                      A                      A                      A
 Frequencies --   1524.0076              1529.1911              1580.0429
 Red. masses --     13.0458                12.7669                12.3944
 Frc consts  --     17.8524                17.5897                18.2311
 IR Inten    --   1067.3893                 0.0007                 0.0000

 - Thermochemistry -
 -------------------
 Temperature   298.150 Kelvin.  Pressure   1.00000 Atm.
 Atom     1 has atomic number 35 and mass  78.91834

 Molecular mass:   419.66317 amu.
 Principal axes and moments of inertia in atomic units:
                           1         2         3
     Eigenvalues --  4401.809969359.04762**********
           X            0.98193   0.18917   0.00596
           Y           -0.18916   0.98194  -0.00245
           Z           -0.00631   0.00128   0.99998
 This molecule is an asymmetric top.
 Rotational symmetry number  1.
 Warning -- assumption of classical behavior for rotation
           may cause significant error
 Rotational temperatures (Kelvin)      0.01968     0.00925     0.00629
 Rotational constants (GHZ):           0.41000     0.19283     0.13115
 Zero-point vibrational energy     111401.3 (Joules/Mol)
                                   26.62555 (Kcal/Mol)
 Warning -- explicit consideration of  17 degrees of freedom as
           vibrations may cause significant error
 Vibrational temperatures:     54.03    80.93   119.81   183.31   197.01
          (Kelvin)            198.66   246.01   276.69   305.94   414.18
                              416.25   476.49   481.56   515.48   701.54
                              747.38   860.97   998.29  1007.85  1038.13
                             1088.51  1243.85  1357.47  1572.02  1599.48
                             1867.72  2081.22  2192.71  2200.16  2273.33

 Zero-point correction=                           0.042431 (Hartree/Particle)
 Thermal correction to Energy=                    0.054647
 Thermal correction to Enthalpy=                  0.055591
 Thermal correction to Gibbs Free Energy=        -0.001005
 Sum of electronic and zero-point Energies=         -10675.847901
 Sum of electronic and thermal Energies=            -10675.835685
 Sum of electronic and thermal Enthalpies=          -10675.834740
 Sum of electronic and thermal Free Energies=       -10675.891336

                     E (Thermal)             CV                S
                      KCal/Mol        Cal/Mol-Kelvin    Cal/Mol-Kelvin
 Total                   34.291             40.039            119.116
 Electronic               0.000              0.000              1.377
 Translational            0.889              2.981             43.993
 Rotational               0.889              2.981             34.693
 Vibrational             32.514             34.078             39.052
 Vibration     1          0.594              1.982              5.384
 Vibration     2          0.596              1.975              4.585
 Vibration     3          0.600              1.961              3.812
 Vibration     4          0.611              1.926              2.985
 Vibration     5          0.614              1.916              2.846
 Vibration     6          0.614              1.915              2.830
 Vibration     7          0.626              1.878              2.425
 Vibration     8          0.634              1.851              2.205
 Vibration     9          0.644              1.822              2.021
 Vibration    10          0.685              1.696              1.486
 Vibration    11          0.686              1.694              1.478
 Vibration    12          0.714              1.613              1.254
 Vibration    13          0.716              1.606              1.237
 Vibration    14          0.733              1.558              1.130
 Vibration    15          0.844              1.278              0.690
 Vibration    16          0.874              1.207              0.611
 Vibration    17          0.956              1.035              0.452

 Optimization completed.
    -- Stationary point found.
 Normal termination of Gaussian 16 at Sat Feb 10 10:28:57 2024.
