 Q-Chem 5.4, Q-Chem, Inc., Pleasanton, CA (2021)
 Q-Chem 5.4.0 for Intel X86 EM64T Linux

User input:
--------------------------------------------------------------
$molecule
0 1
C                  7.1211830000     -1.8316450000     -0.5948240000
C                  7.6386430000     -0.7953740000     -1.4458740000
C                  6.7954580000      0.2850470000     -1.8595030000
C                  5.4901580000      0.3035390000     -1.4347810000
C                  4.9570000000     -0.7025260000     -0.6029270000
C                  5.7453320000     -1.7702990000     -0.1663250000
C                  5.1331050000     -2.7958070000      0.7347590000
C                  3.6784260000     -2.6674290000      1.0766380000
C                  2.9013930000     -1.5962390000      0.6184270000
C                  3.5142240000     -0.5499260000     -0.2351860000
C                  3.0906950000     -3.6467740000      1.8839870000
C                  1.7456650000     -3.5572570000      2.2235670000
C                  0.9730370000     -2.4864840000      1.7645590000
C                  1.5496950000     -1.5074310000      0.9650950000
O                  5.7595890000     -3.7330400000      1.2094320000
O                  2.8623960000      0.4038570000     -0.6324030000
H                  4.8246120000      1.1040470000     -1.7321640000
H                  3.7052420000     -4.4666520000      2.2328680000
H                  0.9752980000     -0.6662310000      0.5976650000
C                  7.3106670000      1.3899800000     -2.7461550000
H                 -0.0752400000     -2.4193920000      2.0325480000
C                  8.9916250000     -0.8551960000     -1.8715380000
C                  8.0165940000     -2.8773920000     -0.2287840000
C                  9.3178120000     -2.8942610000     -0.6670960000
C                  9.8377330000     -1.8765740000     -1.5018120000
C                 11.2723600000     -1.9289740000     -1.9600100000
H                  1.2956180000     -4.3211140000      2.8475970000
H                  8.1472080000      1.9211740000     -2.2816070000
H                  6.5222480000      2.1158320000     -2.9475630000
H                  7.6656110000      1.0029350000     -3.7063770000
H                  9.3713130000     -0.0689060000     -2.5117600000
H                  7.6575320000     -3.6675620000      0.4084760000
H                  9.9643250000     -3.7119830000     -0.3637240000
H                 11.5206150000     -1.0794950000     -2.5989390000
H                 11.4712120000     -2.8461290000     -2.5234730000
H                 11.9572920000     -1.9218590000     -1.1061350000
$end

$rem
BASIS  =  6-311++G(d,p)
GUI  =  2
JOB_TYPE  =  SP
METHOD  =  B3LYP
SCF_CONVERGENCE  = 8
SOLVENT_METHOD = sm12
$end

$smx
solvent dimethylformamide
charges CM5
$end

--------------------------------------------------------------

             Standard Nuclear Orientation (Angstroms)
    I     Atom           X                Y                Z
 ----------------------------------------------------------------
    1      C       7.1211830000    -1.8316450000    -0.5948240000
    2      C       7.6386430000    -0.7953740000    -1.4458740000
    3      C       6.7954580000     0.2850470000    -1.8595030000
    4      C       5.4901580000     0.3035390000    -1.4347810000
    5      C       4.9570000000    -0.7025260000    -0.6029270000
    6      C       5.7453320000    -1.7702990000    -0.1663250000
    7      C       5.1331050000    -2.7958070000     0.7347590000
    8      C       3.6784260000    -2.6674290000     1.0766380000
    9      C       2.9013930000    -1.5962390000     0.6184270000
   10      C       3.5142240000    -0.5499260000    -0.2351860000
   11      C       3.0906950000    -3.6467740000     1.8839870000
   12      C       1.7456650000    -3.5572570000     2.2235670000
   13      C       0.9730370000    -2.4864840000     1.7645590000
   14      C       1.5496950000    -1.5074310000     0.9650950000
   15      O       5.7595890000    -3.7330400000     1.2094320000
   16      O       2.8623960000     0.4038570000    -0.6324030000
   17      H       4.8246120000     1.1040470000    -1.7321640000
   18      H       3.7052420000    -4.4666520000     2.2328680000
   19      H       0.9752980000    -0.6662310000     0.5976650000
   20      C       7.3106670000     1.3899800000    -2.7461550000
   21      H      -0.0752400000    -2.4193920000     2.0325480000
   22      C       8.9916250000    -0.8551960000    -1.8715380000
   23      C       8.0165940000    -2.8773920000    -0.2287840000
   24      C       9.3178120000    -2.8942610000    -0.6670960000
   25      C       9.8377330000    -1.8765740000    -1.5018120000
   26      C      11.2723600000    -1.9289740000    -1.9600100000
   27      H       1.2956180000    -4.3211140000     2.8475970000
   28      H       8.1472080000     1.9211740000    -2.2816070000
   29      H       6.5222480000     2.1158320000    -2.9475630000
   30      H       7.6656110000     1.0029350000    -3.7063770000
   31      H       9.3713130000    -0.0689060000    -2.5117600000
   32      H       7.6575320000    -3.6675620000     0.4084760000
   33      H       9.9643250000    -3.7119830000    -0.3637240000
   34      H      11.5206150000    -1.0794950000    -2.5989390000
   35      H      11.4712120000    -2.8461290000    -2.5234730000
   36      H      11.9572920000    -1.9218590000    -1.1061350000
 ----------------------------------------------------------------

   15    -921.2792502230      4.57e-09  Convergence criterion met
 Total energy in the final basis set =     -921.3044877079

                    Orbital Energies (a.u.)
 --------------------------------------------------------------

 Alpha MOs
 -- Occupied --
-19.1288 -19.1267 -10.2827 -10.2799 -10.2141 -10.2099 -10.2088 -10.2072
-10.2068 -10.2052 -10.2038 -10.1974 -10.1965 -10.1961 -10.1956 -10.1947
-10.1872 -10.1850 -10.1836 -10.1820 -10.1716 -10.1693  -1.0639  -1.0622
 -0.8994  -0.8864  -0.8535  -0.8207  -0.7940  -0.7760  -0.7756  -0.7512
 -0.7220  -0.7032  -0.6785  -0.6488  -0.6390  -0.6251  -0.6050  -0.5851
 -0.5569  -0.5447  -0.5218  -0.5074  -0.4979  -0.4814  -0.4702  -0.4591
 -0.4571  -0.4568  -0.4512  -0.4496  -0.4349  -0.4329  -0.4292  -0.4226
 -0.4175  -0.4135  -0.3991  -0.3904  -0.3872  -0.3847  -0.3755  -0.3722
 -0.3670  -0.3559  -0.3509  -0.3344  -0.2962  -0.2836  -0.2825  -0.2764
 -0.2688  -0.2618  -0.2384

          Ground-State Mulliken Net Atomic Charges

     Atom                 Charge (a.u.)
  ----------------------------------------
      1 C                    -0.174792
      2 C                    -0.154817
      3 C                     0.538147
      4 C                    -0.293716
      5 C                    -0.700107
      6 C                    -0.210576
      7 C                    -2.039169
      8 C                    -0.632943
      9 C                     0.236702
     10 C                    -1.180244
     11 C                     0.137042
     12 C                     0.530245
     13 C                     0.569506
     14 C                     0.215292
     15 O                    -0.209566
     16 O                    -0.237363
     17 H                     0.099357
     18 H                     0.202958
     19 H                     0.187600
     20 C                     0.944085
     21 H                     0.332949
     22 C                    -0.403467
     23 C                    -1.149647
     24 C                    -0.440009
     25 C                     0.750302
     26 C                     0.837265
     27 H                     0.327525
     28 H                     0.233769
     29 H                     0.275986
     30 H                     0.230610
     31 H                     0.155057
     32 H                     0.115084
     33 H                     0.260414
     34 H                     0.231701
     35 H                     0.206501
     36 H                     0.208323
  ----------------------------------------
  Sum of atomic charges =     0.000000

                    Cartesian Multipole Moments
 -----------------------------------------------------------------
    Charge (ESU x 10^10)
                 0.0000
    Dipole Moment (Debye)
         X       1.8574      Y       0.0779      Z      -0.9221
       Tot       2.0752
    Quadrupole Moments (Debye-Ang)
        XX     -78.9091     XY       9.2331     YY    -127.1265
        XZ     -23.5697     YZ      -4.9866     ZZ    -121.5008

 Total job time:  1209.34s(wall), 9506.02s(cpu)
        *  Thank you very much for using Q-Chem.  Have a nice day.  *
