 Q-Chem 5.4, Q-Chem, Inc., Pleasanton, CA (2021)
 Q-Chem 5.4.0 for Intel X86 EM64T Linux

User input:
--------------------------------------------------------------
$molecule
0 1
N                  3.5795880000     -1.2794230000     -0.0276780000
C                  2.8899850000     -0.1152570000     -0.1432880000
C                  3.5939200000      1.0962910000     -0.3383910000
C                  2.9258600000      2.2975520000     -0.4550120000
C                  1.5298250000      2.3513540000     -0.3833820000
C                  0.8092980000      1.1808940000     -0.1937110000
C                 -0.6817410000      1.2911750000     -0.1251760000
O                 -1.2099400000      2.4039200000     -0.2354340000
C                 -1.4645420000      0.0698850000      0.0711240000
C                 -2.8899630000      0.1153330000      0.1438670000
N                 -3.5794580000      1.2796740000      0.0293770000
C                 -3.5939340000     -1.0963230000      0.3382020000
C                 -2.9259040000     -2.2976310000      0.4544350000
C                 -1.5298470000     -2.3514000000      0.3831150000
C                 -0.8093000000     -1.1808720000      0.1939560000
C                  0.6817670000     -1.2911470000      0.1256460000
O                  1.2099500000     -2.4038900000      0.2358560000
C                  1.4645750000     -0.0698170000     -0.0705430000
H                  3.0577910000     -2.1378340000      0.0983540000
H                  4.5819220000     -1.2816990000     -0.1025850000
H                  4.6773510000      1.0652420000     -0.3945670000
H                  3.4929260000      3.2099200000     -0.6038620000
H                  0.9942520000      3.2863960000     -0.4728690000
H                 -4.5820060000      1.2815790000      0.1013770000
H                 -3.0577210000      2.1378990000     -0.0981690000
H                 -4.6773740000     -1.0653000000      0.3942000000
H                 -3.4930090000     -3.2100630000      0.6027350000
H                 -0.9942720000     -3.2864580000      0.4724240000
$end
$rem
MAX_SCF_CYCLES=200
BASIS  =  6-311++G(d,p)
GUI  =  2
JOB_TYPE  =  SP
METHOD  =  B3LYP
SOLVENT_METHOD = COSMO
$end
$solvent
dielectric 37.219
opticaldielectric 1.43
$end

--------------------------------------------------------------

             Standard Nuclear Orientation (Angstroms)
    I     Atom           X                Y                Z
 ----------------------------------------------------------------
    1      N       3.2970853273    -1.8921736851     0.0067002809
    2      C       2.8292721538    -0.6172934273     0.0010781571
    3      C       3.7442574366     0.4617035591    -0.0013002093
    4      C       3.3040722495     1.7690554645    -0.0020799713
    5      C       1.9368594114     2.0651396364    -0.0005141890
    6      C       1.0130739922     1.0298958197     0.0007494729
    7      C      -0.4374719966     1.3986401728     0.0011748476
    8      O      -0.7560403942     2.5935722084     0.0031877092
    9      C      -1.4316815516     0.3242082943    -0.0007895753
   10      C      -2.8292788237     0.6173020622    -0.0007758038
   11      N      -3.2970408731     1.8922059139    -0.0052605980
   12      C      -3.7442597187    -0.4617062411     0.0008262658
   13      C      -3.3040826125    -1.7690543457     0.0012141437
   14      C      -1.9368660363    -2.0651456459    -0.0000392156
   15      C      -1.0130881602    -1.0298974713    -0.0007860679
   16      C       0.4374692644    -1.3986667057    -0.0009862867
   17      O       0.7560259405    -2.5935884211    -0.0030473158
   18      C       1.4316841539    -0.3242096868     0.0010935030
   19      H       2.6270938958    -2.6511210823    -0.0049594459
   20      H       4.2867753675    -2.0665614222    -0.0131044603
   21      H       4.8072099485     0.2424451000    -0.0017480954
   22      H       4.0295563831     2.5751605942    -0.0037622688
   23      H       1.5788411757     3.0854203889    -0.0006936146
   24      H      -4.2867841331     2.0666017566     0.0116062549
   25      H      -2.6270253818     2.6511553104     0.0048727577
   26      H      -4.8072120252    -0.2424512330     0.0010940712
   27      H      -4.0295742859    -2.5751521602     0.0023414576
   28      H      -1.5788350684    -3.0854220631    -0.0000380120
 ----------------------------------------------------------------

    9    -799.7227451805      3.59e-06  Convergence criterion met
 Total energy in the final basis set =     -799.7227451805
    5    -799.7416273241      5.66e-06  Convergence criterion met
 Total energy in the final basis set =     -799.7416273241

                    Orbital Energies (a.u.)
 --------------------------------------------------------------

 Alpha MOs
 -- Occupied --
-19.1200 -19.1200 -14.3296 -14.3295 -10.2734 -10.2734 -10.2435 -10.2434
-10.2009 -10.2009 -10.1955 -10.1955 -10.1920 -10.1920 -10.1861 -10.1861
-10.1801 -10.1801  -1.0554  -1.0534  -0.9403  -0.9398  -0.8728  -0.8564
 -0.8041  -0.7649  -0.7566  -0.7478  -0.6816  -0.6609  -0.6483  -0.6093
 -0.5857  -0.5800  -0.5528  -0.5323  -0.5227  -0.5087  -0.4950  -0.4844
 -0.4706  -0.4623  -0.4618  -0.4520  -0.4481  -0.4308  -0.4238  -0.4181
 -0.4011  -0.3864  -0.3842  -0.3804  -0.3791  -0.3655  -0.3336  -0.3268
 -0.2848  -0.2813  -0.2709  -0.2684  -0.2269  -0.2198

          Ground-State Mulliken Net Atomic Charges

     Atom                 Charge (a.u.)
  ----------------------------------------
      1 N                    -0.474492
      2 C                     0.262200
      3 C                    -0.229418
      4 C                    -0.455257
      5 C                    -0.093667
      6 C                     0.555419
      7 C                    -0.706500
      8 O                    -0.351722
      9 C                     0.189186
     10 C                     0.262860
     11 N                    -0.474283
     12 C                    -0.231730
     13 C                    -0.455366
     14 C                    -0.094100
     15 C                     0.555327
     16 C                    -0.706518
     17 O                    -0.351628
     18 C                     0.188782
     19 H                     0.349811
     20 H                     0.333432
     21 H                     0.203603
     22 H                     0.226645
     23 H                     0.191953
     24 H                     0.333497
     25 H                     0.349760
     26 H                     0.203570
     27 H                     0.226684
     28 H                     0.191954
  ----------------------------------------
  Sum of atomic charges =     0.000000

                    Cartesian Multipole Moments
 -----------------------------------------------------------------
    Charge (ESU x 10^10)
                -0.0000
    Dipole Moment (Debye)
         X      -0.0029      Y       0.0014      Z      -0.0105
       Tot       0.0110
    Quadrupole Moments (Debye-Ang)
        XX     -56.1169     XY      -2.9975     YY    -107.1805
        XZ      -0.4242     YZ       0.2094     ZZ    -109.6532

 Total job time:  78.30s(wall), 493.69s(cpu)
        *  Thank you very much for using Q-Chem.  Have a nice day.  *
