 Gaussian 16, Revision A.03,
 Gaussian 16:  ES64L-G16RevA.03 25-Dec-2016

 --------------------------------------
 #P UB3LYP/6-311++G(d,p) nosym opt freq
 --------------------------------------

 -------
 Reduced
 -------
 Symbolic Z-matrix:
 Charge = -2 Multiplicity = 1

 SCF Done:  E(UB3LYP) =  -2220.03928195     A.U. after   21 cycles
 SCF Done:  E(UB3LYP) =  -2220.06849378     A.U. after   22 cycles
 SCF Done:  E(UB3LYP) =  -2220.07241494     A.U. after   22 cycles
 SCF Done:  E(UB3LYP) =  -2220.07260928     A.U. after   19 cycles
 SCF Done:  E(UB3LYP) =  -2220.07273522     A.U. after   21 cycles
 SCF Done:  E(UB3LYP) =  -2220.07273830     A.U. after   22 cycles
 Optimization completed.
    -- Stationary point found.
 Normal termination of Gaussian 16 at Sun Dec 17 21:04:16 2023.

 ----------------------------------------------------------------------
 #P Geom=AllCheck Guess=TCheck SCRF=Check GenChk UB3LYP/6-311++G(d,p) F
 req
 ----------------------------------------------------------------------

 Structure from the checkpoint file:  "029-an.chk"
 -------
 Reduced
 -------
 Charge = -2 Multiplicity = 1

                          Input orientation:
 ---------------------------------------------------------------------
 Center     Atomic      Atomic             Coordinates (Angstroms)
 Number     Number       Type             X           Y           Z
 ---------------------------------------------------------------------
      1         17           0       -2.558687    1.771473    0.703909
      2          6           0       -1.110438    0.774996    0.400405
      3          6           0       -1.169907   -0.617174    0.538118
      4         17           0       -2.695424   -1.408803    1.018533
      5          6           0       -0.064881   -1.510810    0.318294
      6          8           0       -0.119625   -2.779910    0.443995
      7          6           0        1.110222   -0.774944   -0.062824
      8          6           0        1.170006    0.617370   -0.200634
      9         17           0        2.695587    1.408464   -0.680971
     10          6           0        0.065002    1.510848    0.019165
     11          8           0        0.119390    2.779931   -0.106384
     12         17           0        2.558755   -1.771441   -0.366362
 ---------------------------------------------------------------------

 SCF Done:  E(UB3LYP) =  -2220.07273830     A.U. after    8 cycles

 Alpha  occ. eigenvalues -- -101.29136-101.29131-101.29130-101.29128 -18.76956
 Alpha  occ. eigenvalues --  -18.76954  -9.95401  -9.95398  -9.95351  -9.95347
 Alpha  occ. eigenvalues --   -9.94795  -9.94793  -9.20568  -9.20563  -9.20561
 Alpha  occ. eigenvalues --   -9.20559  -6.96984  -6.96979  -6.96977  -6.96975
 Alpha  occ. eigenvalues --   -6.96110  -6.96105  -6.96104  -6.96102  -6.96022
 Alpha  occ. eigenvalues --   -6.96017  -6.96016  -6.96014  -0.69997  -0.69339
 Alpha  occ. eigenvalues --   -0.61634  -0.61297  -0.57791  -0.57445  -0.52020
 Alpha  occ. eigenvalues --   -0.43017  -0.41217  -0.30934  -0.30102  -0.23304
 Alpha  occ. eigenvalues --   -0.20212  -0.18405  -0.16133  -0.15521  -0.12416
 Alpha  occ. eigenvalues --   -0.11484  -0.11170  -0.11065  -0.09939  -0.07640
 Alpha  occ. eigenvalues --   -0.06591  -0.05993  -0.05813  -0.04786  -0.04642
 Alpha  occ. eigenvalues --   -0.03830   0.01877   0.03265   0.04664   0.04825
 Alpha  occ. eigenvalues --    0.12133
 Alpha virt. eigenvalues --    0.20249   0.21430   0.22507   0.23375   0.25128
 Alpha virt. eigenvalues --    0.25900   0.27104   0.27189   0.27477   0.27963
 Alpha virt. eigenvalues --    0.28352   0.28521   0.28552   0.29515   0.30472

  Beta  occ. eigenvalues -- -101.29136-101.29131-101.29130-101.29128 -18.76956
  Beta  occ. eigenvalues --  -18.76954  -9.95401  -9.95398  -9.95351  -9.95347
  Beta  occ. eigenvalues --   -9.94795  -9.94793  -9.20568  -9.20563  -9.20561
  Beta  occ. eigenvalues --   -9.20559  -6.96984  -6.96979  -6.96977  -6.96975
  Beta  occ. eigenvalues --   -6.96110  -6.96105  -6.96104  -6.96102  -6.96022
  Beta  occ. eigenvalues --   -6.96017  -6.96016  -6.96014  -0.69997  -0.69339
  Beta  occ. eigenvalues --   -0.61634  -0.61297  -0.57791  -0.57445  -0.52020
  Beta  occ. eigenvalues --   -0.43017  -0.41217  -0.30934  -0.30102  -0.23304
  Beta  occ. eigenvalues --   -0.20212  -0.18405  -0.16133  -0.15521  -0.12416
  Beta  occ. eigenvalues --   -0.11484  -0.11170  -0.11065  -0.09939  -0.07640
  Beta  occ. eigenvalues --   -0.06591  -0.05993  -0.05813  -0.04786  -0.04642
  Beta  occ. eigenvalues --   -0.03830   0.01877   0.03265   0.04664   0.04825
  Beta  occ. eigenvalues --    0.12133
  Beta virt. eigenvalues --    0.20249   0.21430   0.22507   0.23375   0.25128
  Beta virt. eigenvalues --    0.25900   0.27104   0.27189   0.27477   0.27963
  Beta virt. eigenvalues --    0.28352   0.28521   0.28552   0.29515   0.30472

 Mulliken charges and spin densities:
               1          2
     1  Cl   0.181328  -0.000000
     2  C    0.900748   0.000000
     3  C    0.901725   0.000000
     4  Cl   0.181010   0.000000
     5  C   -2.751519   0.000000
     6  O   -0.414884  -0.000000
     7  C    0.902471  -0.000000
     8  C    0.901821  -0.000000
     9  Cl   0.181049  -0.000000
    10  C   -2.750160  -0.000000
    11  O   -0.414891   0.000000
    12  Cl   0.181300   0.000000
 Sum of Mulliken charges =  -2.00000  -0.00000

 Dipole moment (field-independent basis, Debye):
    X=             -0.0010    Y=              0.0022    Z=             -1.6213  Tot=              1.6213
 Quadrupole moment (field-independent basis, Debye-Ang):
   XX=           -137.2323   YY=           -163.4802   ZZ=           -106.5651
   XY=             -0.2551   XZ=              9.1550   YZ=              5.3231

  Exact polarizability: 202.538  -3.864 183.680 -31.148  -7.510  94.805
 Approx polarizability: 295.685  -4.257 299.171 -45.057 -13.879 140.547

                      1                      2                      3
                      A                      A                      A
 Frequencies --     65.8303                81.7765                89.8403
 Red. masses --     34.4864                18.5287                20.0887
 Frc consts  --      0.0881                 0.0730                 0.0955
 IR Inten    --      0.0001                 7.6849                 0.0001

                      4                      5                      6
                      A                      A                      A
 Frequencies --    178.2793               201.9178               202.1300
 Red. masses --     13.7103                34.4926                24.6192
 Frc consts  --      0.2567                 0.8286                 0.5926
 IR Inten    --      5.7694                 0.0240                 4.6683

                      7                      8                      9
                      A                      A                      A
 Frequencies --    213.3389               274.1785               282.8591
 Red. masses --     32.5848                21.7146                12.7792
 Frc consts  --      0.8738                 0.9618                 0.6024
 IR Inten    --      2.5895                 0.0000                 0.0000

                     10                     11                     12
                      A                      A                      A
 Frequencies --    311.5204               319.5223               319.8555
 Red. masses --     22.2178                30.5389                12.5151
 Frc consts  --      1.2704                 1.8370                 0.7544
 IR Inten    --      0.0000                 0.0000                 0.0000

                     13                     14                     15
                      A                      A                      A
 Frequencies --    332.2605               415.5027               493.2138
 Red. masses --     17.9659                22.8667                14.3395
 Frc consts  --      1.1686                 2.3260                 2.0552
 IR Inten    --      0.6398                 0.0016                 0.0000

                     16                     17                     18
                      A                      A                      A
 Frequencies --    537.7534               651.3421               711.8197
 Red. masses --     12.0578                14.7186                12.6374
 Frc consts  --      2.0544                 3.6790                 3.7726
 IR Inten    --      0.0000               124.8415                 0.0000

                     19                     20                     21
                      A                      A                      A
 Frequencies --    712.9279               763.9199               783.1659
 Red. masses --     12.2448                12.1198                12.7405
 Frc consts  --      3.6669                 4.1672                 4.6041
 IR Inten    --      1.7447                 0.0000                 0.0000

                     22                     23                     24
                      A                      A                      A
 Frequencies --    859.9086               974.7863              1084.7346
 Red. masses --     12.9948                12.6975                12.0121
 Frc consts  --      5.6614                 7.1087                 8.3275
 IR Inten    --    260.4148                 0.0015               357.8856

                     25                     26                     27
                      A                      A                      A
 Frequencies --   1132.3040              1351.9267              1358.8361
 Red. masses --     12.3880                12.0533                12.0140
 Frc consts  --      9.3579                12.9796                13.0699
 IR Inten    --     39.1533                10.4169                 0.0086

                     28                     29                     30
                      A                      A                      A
 Frequencies --   1412.1205              1469.4204              1584.2951
 Red. masses --     12.8527                12.7521                12.2181
 Frc consts  --     15.1004                16.2227                18.0686
 IR Inten    --      0.0029              1186.5706                 0.0000

 - Thermochemistry -
 -------------------
 Temperature   298.150 Kelvin.  Pressure   1.00000 Atm.
 Atom     1 has atomic number 17 and mass  34.96885

 Molecular mass:   243.86524 amu.
 Principal axes and moments of inertia in atomic units:
                           1         2         3
     Eigenvalues --  2452.611723942.745706395.35741
           X            0.96483   0.04270   0.25939
           Y           -0.06660   0.99423   0.08406
           Z           -0.25431  -0.09838   0.96211
 This molecule is an asymmetric top.
 Rotational symmetry number  1.
 Warning -- assumption of classical behavior for rotation
           may cause significant error
 Rotational temperatures (Kelvin)      0.03531     0.02197     0.01354
 Rotational constants (GHZ):           0.73584     0.45774     0.28220
 Zero-point vibrational energy     114669.8 (Joules/Mol)
                                   27.40673 (Kcal/Mol)
 Warning -- explicit consideration of  16 degrees of freedom as
           vibrations may cause significant error
 Vibrational temperatures:     94.72   117.66   129.26   256.50   290.51
          (Kelvin)            290.82   306.95   394.48   406.97   448.21
                              459.72   460.20   478.05   597.82   709.62
                              773.71   937.14  1024.15  1025.74  1099.11
                             1126.80  1237.22  1402.50  1560.69  1629.13
                             1945.12  1955.06  2031.73  2114.17  2279.45

 Zero-point correction=                           0.043675 (Hartree/Particle)
 Thermal correction to Energy=                    0.054990
 Thermal correction to Enthalpy=                  0.055934
 Thermal correction to Gibbs Free Energy=         0.004813
 Sum of electronic and zero-point Energies=          -2220.029063
 Sum of electronic and thermal Energies=             -2220.017749
 Sum of electronic and thermal Enthalpies=           -2220.016804
 Sum of electronic and thermal Free Energies=        -2220.067925

                     E (Thermal)             CV                S
                      KCal/Mol        Cal/Mol-Kelvin    Cal/Mol-Kelvin
 Total                   34.507             38.967            107.592
 Electronic               0.000              0.000              0.000
 Translational            0.889              2.981             42.375
 Rotational               0.889              2.981             32.492
 Vibrational             32.729             33.005             32.725
 Vibration     1          0.597              1.971              4.274
 Vibration     2          0.600              1.962              3.848
 Vibration     3          0.602              1.956              3.664
 Vibration     4          0.629              1.869              2.346
 Vibration     5          0.639              1.837              2.116
 Vibration     6          0.639              1.837              2.114
 Vibration     7          0.644              1.821              2.015
 Vibration     8          0.676              1.721              1.570
 Vibration     9          0.682              1.705              1.516
 Vibration    10          0.700              1.652              1.354
 Vibration    11          0.705              1.636              1.313
 Vibration    12          0.706              1.636              1.311
 Vibration    13          0.714              1.611              1.249
 Vibration    14          0.779              1.437              0.907
 Vibration    15          0.849              1.265              0.675
 Vibration    16          0.893              1.167              0.570

 Optimization completed.
    -- Stationary point found.
 Normal termination of Gaussian 16 at Sun Dec 17 21:12:36 2023.
