 Q-Chem 5.4, Q-Chem, Inc., Pleasanton, CA (2021)
 Q-Chem 5.4.0 for Intel X86 EM64T Linux

User input:
--------------------------------------------------------------
$molecule
-1 2
C                 -1.8525700000     -3.6688570000      1.3200340000
C                 -0.4588360000     -3.9001430000      1.0672240000
C                  0.3584190000     -2.8964670000      0.5890280000
C                 -0.1365610000     -1.5449930000      0.3112500000
C                 -1.5528400000     -1.3069270000      0.5669800000
C                 -2.3354660000     -2.3185440000      1.0396350000
O                 -2.6882490000     -4.5125710000      1.7561980000
O                  0.6048460000     -0.6354300000     -0.1221330000
O                 -3.6644620000     -2.1668040000      1.3006660000
C                 -2.0893130000      0.0701450000      0.2910710000
Br                 0.1659640000     -5.6763570000      1.4381710000
Br                 2.2212690000     -3.1761500000      0.2424130000
H                 -1.5624690000      0.8190660000      0.8916570000
H                 -3.1563330000      0.1224680000      0.5109120000
H                 -1.9238910000      0.3476790000     -0.7550810000
H                 -3.9177630000     -3.0612860000      1.6177270000
$end

$rem
BASIS  =  6-311++G(d,p)
GUI  =  2
JOB_TYPE  =  SP
METHOD  =  B3LYP
SCF_CONVERGENCE  = 8
SOLVENT_METHOD = sm12
$end

$smx
solvent dimethylformamide
charges CM5
$end

--------------------------------------------------------------

             Standard Nuclear Orientation (Angstroms)
    I     Atom           X                Y                Z
 ----------------------------------------------------------------
    1      C      -1.8525700000    -3.6688570000     1.3200340000
    2      C      -0.4588360000    -3.9001430000     1.0672240000
    3      C       0.3584190000    -2.8964670000     0.5890280000
    4      C      -0.1365610000    -1.5449930000     0.3112500000
    5      C      -1.5528400000    -1.3069270000     0.5669800000
    6      C      -2.3354660000    -2.3185440000     1.0396350000
    7      O      -2.6882490000    -4.5125710000     1.7561980000
    8      O       0.6048460000    -0.6354300000    -0.1221330000
    9      O      -3.6644620000    -2.1668040000     1.3006660000
   10      C      -2.0893130000     0.0701450000     0.2910710000
   11      Br      0.1659640000    -5.6763570000     1.4381710000
   12      Br      2.2212690000    -3.1761500000     0.2424130000
   13      H      -1.5624690000     0.8190660000     0.8916570000
   14      H      -3.1563330000     0.1224680000     0.5109120000
   15      H      -1.9238910000     0.3476790000    -0.7550810000
   16      H      -3.9177630000    -3.0612860000     1.6177270000
 ----------------------------------------------------------------

   19   -5643.3192288606      5.55e-09  Convergence criterion met
 Total energy in the final basis set =    -5643.3970035581

                    Orbital Energies (a.u.)
 --------------------------------------------------------------

 Alpha MOs
 -- Occupied --
********-482.8239 -62.4781 -62.4764 -56.2986 -56.2969 -56.2949 -56.2945
-56.2933 -56.2928 -19.1506 -19.0960 -19.0829 -10.2382 -10.2369 -10.2328
-10.2287 -10.2275 -10.1757 -10.1691  -8.6867  -8.6851  -6.5182  -6.5165
 -6.5056  -6.5044  -6.5041  -6.5027  -2.6290  -2.6274  -2.6257  -2.6248
 -2.6240  -2.6230  -2.6147  -2.6146  -2.6132  -2.6131  -1.0722  -1.0116
 -1.0094  -0.8607  -0.8072  -0.7901  -0.7449  -0.6924  -0.6690  -0.5953
 -0.5763  -0.5361  -0.4979  -0.4513  -0.4509  -0.4293  -0.4131  -0.4126
 -0.4083  -0.4011  -0.3925  -0.3732  -0.3677  -0.3575  -0.3315  -0.2981
 -0.2972  -0.2742  -0.2666  -0.2657  -0.2455  -0.2306  -0.1695

 Beta MOs
 -- Occupied --
********-482.8238 -62.4781 -62.4764 -56.2987 -56.2969 -56.2948 -56.2945
-56.2931 -56.2928 -19.1502 -19.0891 -19.0765 -10.2361 -10.2361 -10.2321
-10.2279 -10.2247 -10.1754 -10.1691  -8.6867  -8.6850  -6.5182  -6.5165
 -6.5055  -6.5044  -6.5038  -6.5027  -2.6290  -2.6274  -2.6256  -2.6248
 -2.6239  -2.6230  -2.6147  -2.6146  -2.6130  -2.6130  -1.0702  -1.0008
 -0.9982  -0.8556  -0.8056  -0.7882  -0.7425  -0.6883  -0.6622  -0.5922
 -0.5727  -0.5329  -0.4962  -0.4476  -0.4411  -0.4248  -0.4099  -0.4067
 -0.4044  -0.3982  -0.3791  -0.3711  -0.3558  -0.3508  -0.3147  -0.2968
 -0.2934  -0.2721  -0.2606  -0.2453  -0.2399  -0.2245

          Ground-State Mulliken Net Atomic Charges

     Atom                 Charge (a.u.)    Spin (a.u.)
  --------------------------------------------------------
      1 C                    -1.080275       0.112472
      2 C                     1.420068       0.051863
      3 C                    -0.016194       0.185947
      4 C                    -1.579282       0.042816
      5 C                     1.686662       0.032349
      6 C                    -1.853068       0.045288
      7 O                    -0.321100       0.252138
      8 O                    -0.280975       0.237441
      9 O                    -0.183804       0.012901
     10 C                     0.329052       0.005436
     11 Br                    0.059147       0.006633
     12 Br                    0.008533       0.015379
     13 H                     0.164797       0.001508
     14 H                     0.193486      -0.000101
     15 H                     0.164521       0.001492
     16 H                     0.288431      -0.003562
  --------------------------------------------------------
  Sum of atomic charges =    -1.000000

                    Cartesian Multipole Moments
 -----------------------------------------------------------------
    Charge (ESU x 10^10)
                -4.8032
    Dipole Moment (Debye)
         X       2.8157      Y      13.3480      Z      -3.7060
       Tot      14.1362
    Quadrupole Moments (Debye-Ang)
        XX    -118.7616     XY     -14.9631     YY    -156.3533
        XZ       8.6215     YZ      18.0921     ZZ    -104.6076

 Total job time:  256.56s(wall), 1771.46s(cpu)
        *  Thank you very much for using Q-Chem.  Have a nice day.  *
