 Gaussian 16, Revision A.03,
 Gaussian 16:  ES64L-G16RevA.03 25-Dec-2016

 --------------------------------------
 #P UB3LYP/6-311++G(d,p) nosym opt freq
 --------------------------------------

 -------
 Reduced
 -------
 Symbolic Z-matrix:
 Charge = -2 Multiplicity = 1

 SCF Done:  E(UB3LYP) =  -678.673717849     A.U. after   18 cycles
 SCF Done:  E(UB3LYP) =  -678.782387968     A.U. after   17 cycles
 SCF Done:  E(UB3LYP) =  -678.854680411     A.U. after   17 cycles
 SCF Done:  E(UB3LYP) =  -678.872202901     A.U. after   16 cycles
 SCF Done:  E(UB3LYP) =  -678.855085414     A.U. after   18 cycles
 SCF Done:  E(UB3LYP) =  -678.867515125     A.U. after   16 cycles
 SCF Done:  E(UB3LYP) =  -678.875047608     A.U. after   13 cycles
 SCF Done:  E(UB3LYP) =  -678.874359214     A.U. after   15 cycles
 SCF Done:  E(UB3LYP) =  -678.875815126     A.U. after   14 cycles
 SCF Done:  E(UB3LYP) =  -678.875454062     A.U. after   14 cycles
 SCF Done:  E(UB3LYP) =  -678.876044698     A.U. after   13 cycles
 SCF Done:  E(UB3LYP) =  -678.876045013     A.U. after   12 cycles
 SCF Done:  E(UB3LYP) =  -678.876057016     A.U. after   12 cycles
 SCF Done:  E(UB3LYP) =  -678.876064628     A.U. after   12 cycles
 SCF Done:  E(UB3LYP) =  -678.876071523     A.U. after   11 cycles
 SCF Done:  E(UB3LYP) =  -678.876075366     A.U. after   11 cycles
 SCF Done:  E(UB3LYP) =  -678.876076339     A.U. after   11 cycles
 SCF Done:  E(UB3LYP) =  -678.876076736     A.U. after   10 cycles
 SCF Done:  E(UB3LYP) =  -678.876076858     A.U. after    9 cycles
 Optimization completed.
    -- Stationary point found.
 Normal termination of Gaussian 16 at Sat Jan  6 02:38:40 2024.

 ----------------------------------------------------------------------
 #P Geom=AllCheck Guess=TCheck SCRF=Check GenChk UB3LYP/6-311++G(d,p) F
 req
 ----------------------------------------------------------------------

 Structure from the checkpoint file:  "347-an.chk"
 -------
 Reduced
 -------
 Charge = -2 Multiplicity = 1

                          Input orientation:
 ---------------------------------------------------------------------
 Center     Atomic      Atomic             Coordinates (Angstroms)
 Number     Number       Type             X           Y           Z
 ---------------------------------------------------------------------
      1          7           0       -4.763222    0.362667    0.356463
      2          6           0       -3.779318   -0.188728    0.672969
      3          6           0       -2.595417   -0.839235    1.043144
      4          6           0       -2.714168   -1.911127    1.936807
      5          7           0       -2.801397   -2.809205    2.683875
      6          6           0       -1.285882   -0.415749    0.516827
      7          6           0       -1.150747    0.662594   -0.380863
      8          6           0        0.086687    1.062745   -0.878328
      9          6           0        1.285899    0.415890   -0.516775
     10          6           0        1.150740   -0.662514    0.380901
     11          6           0       -0.086768   -1.062742    0.878216
     12          6           0        2.595342    0.839386   -1.042974
     13          6           0        3.779010    0.187326   -0.674652
     14          7           0        4.762520   -0.365721   -0.359688
     15          6           0        2.714526    1.912735   -1.934944
     16          7           0        2.802370    2.811941   -2.680631
     17          1           0       -2.040418    1.199812   -0.695929
     18          1           0        0.127887    1.900993   -1.567537
     19          1           0        2.040356   -1.199848    0.695974
     20          1           0       -0.128001   -1.901219    1.567143
 ---------------------------------------------------------------------

 SCF Done:  E(UB3LYP) =  -678.876076858     A.U. after    1 cycles

 Alpha  occ. eigenvalues --  -14.06742 -14.06742 -14.06741 -14.06740  -9.97840
 Alpha  occ. eigenvalues --   -9.97838  -9.97837  -9.97835  -9.96390  -9.96388
 Alpha  occ. eigenvalues --   -9.95965  -9.95963  -9.94760  -9.94757  -9.94704
 Alpha  occ. eigenvalues --   -9.94703  -0.67554  -0.67443  -0.66313  -0.66312
 Alpha  occ. eigenvalues --   -0.63511  -0.57943  -0.53813  -0.52146  -0.48064
 Alpha  occ. eigenvalues --   -0.39598  -0.37772  -0.33903  -0.31311  -0.30562
 Alpha  occ. eigenvalues --   -0.26113  -0.21883  -0.21466  -0.19492  -0.17576
 Alpha  occ. eigenvalues --   -0.16328  -0.15751  -0.14317  -0.14174  -0.13878
 Alpha  occ. eigenvalues --   -0.13654  -0.13027  -0.11850  -0.10760  -0.10748
 Alpha  occ. eigenvalues --   -0.10539  -0.10439  -0.09664  -0.09562  -0.05709
 Alpha  occ. eigenvalues --   -0.03285   0.01771   0.06350
 Alpha virt. eigenvalues --    0.18358   0.19045   0.20101   0.20557   0.20824
 Alpha virt. eigenvalues --    0.21207   0.21561   0.22540   0.22955   0.23075
 Alpha virt. eigenvalues --    0.24173   0.24364   0.24591   0.24703   0.24771

  Beta  occ. eigenvalues --  -14.06742 -14.06742 -14.06741 -14.06740  -9.97840
  Beta  occ. eigenvalues --   -9.97838  -9.97837  -9.97835  -9.96390  -9.96388
  Beta  occ. eigenvalues --   -9.95965  -9.95963  -9.94760  -9.94757  -9.94704
  Beta  occ. eigenvalues --   -9.94703  -0.67554  -0.67443  -0.66313  -0.66312
  Beta  occ. eigenvalues --   -0.63511  -0.57943  -0.53813  -0.52146  -0.48064
  Beta  occ. eigenvalues --   -0.39598  -0.37772  -0.33903  -0.31311  -0.30562
  Beta  occ. eigenvalues --   -0.26113  -0.21883  -0.21466  -0.19492  -0.17576
  Beta  occ. eigenvalues --   -0.16328  -0.15751  -0.14317  -0.14174  -0.13878
  Beta  occ. eigenvalues --   -0.13654  -0.13027  -0.11850  -0.10760  -0.10748
  Beta  occ. eigenvalues --   -0.10539  -0.10439  -0.09664  -0.09562  -0.05709
  Beta  occ. eigenvalues --   -0.03285   0.01771   0.06350
  Beta virt. eigenvalues --    0.18358   0.19045   0.20101   0.20557   0.20824
  Beta virt. eigenvalues --    0.21207   0.21561   0.22540   0.22955   0.23075
  Beta virt. eigenvalues --    0.24173   0.24364   0.24591   0.24703   0.24771

 Mulliken charges and spin densities:
               1          2
     1  N   -0.370162   0.000000
     2  C   -1.409699  -0.000000
     3  C    2.194292   0.000000
     4  C   -1.409650   0.000000
     5  N   -0.370129  -0.000000
     6  C    1.455034  -0.000000
     7  C   -0.645395  -0.000000
     8  C   -0.645419  -0.000000
     9  C    1.455199  -0.000000
    10  C   -0.645696   0.000000
    11  C   -0.645673   0.000000
    12  C    2.194204   0.000000
    13  C   -1.409540  -0.000000
    14  N   -0.370114   0.000000
    15  C   -1.409874   0.000000
    16  N   -0.370123  -0.000000
    17  H    0.100684  -0.000000
    18  H    0.100688  -0.000000
    19  H    0.100688  -0.000000
    20  H    0.100687   0.000000
 Sum of Mulliken charges =  -2.00000  -0.00000

 Dipole moment (field-independent basis, Debye):
    X=              0.0000    Y=              0.0006    Z=             -0.0005  Tot=              0.0008
 Quadrupole moment (field-independent basis, Debye-Ang):
   XX=           -237.9917   YY=           -139.0349   ZZ=           -135.0575
   XY=            -26.1934   XZ=             40.1851   YZ=             34.2596

  Exact polarizability: 283.205  11.917 179.210 -35.353 -68.546 158.138
 Approx polarizability: 394.152 -14.871 294.997 -22.138-120.047 246.545

                      1                      2                      3
                      A                      A                      A
 Frequencies --     29.4860                58.3073                65.6838
 Red. masses --     13.5552                 9.4990                 4.1861
 Frc consts  --      0.0069                 0.0190                 0.0106
 IR Inten    --      0.0001                12.7118                 0.0001

                      4                      5                      6
                      A                      A                      A
 Frequencies --     79.5699               125.9375               131.3246
 Red. masses --     12.2282                13.7988                10.3963
 Frc consts  --      0.0456                 0.1289                 0.1056
 IR Inten    --      2.5871                 0.0002                 0.0000

                      7                      8                      9
                      A                      A                      A
 Frequencies --    140.8688               152.2050               220.0383
 Red. masses --     10.1612                12.2422                 9.6978
 Frc consts  --      0.1188                 0.1671                 0.2766
 IR Inten    --      0.0000                29.0453                 5.7151

                     10                     11                     12
                      A                      A                      A
 Frequencies --    289.6304               337.4612               362.8566
 Red. masses --      9.7608                12.1946                 8.1480
 Frc consts  --      0.4824                 0.8182                 0.6321
 IR Inten    --      0.2496                 0.0000                 0.0000

                     13                     14                     15
                      A                      A                      A
 Frequencies --    393.3036               418.7301               508.6176
 Red. masses --      5.5479                 3.1591                 2.7345
 Frc consts  --      0.5056                 0.3263                 0.4168
 IR Inten    --      0.0000                 0.0002                31.3677

                     16                     17                     18
                      A                      A                      A
 Frequencies --    518.2672               519.1941               533.8662
 Red. masses --     12.3001                12.1919                 8.1522
 Frc consts  --      1.9466                 1.9363                 1.3690
 IR Inten    --      0.0004                 0.0005                39.6019

                     19                     20                     21
                      A                      A                      A
 Frequencies --    544.7888               558.0289               595.2072
 Red. masses --     11.6850                 8.6989                11.5905
 Frc consts  --      2.0433                 1.5960                 2.4193
 IR Inten    --      1.2222                 0.0001                 0.0001

                     22                     23                     24
                      A                      A                      A
 Frequencies --    601.2408               649.3402               649.3628
 Red. masses --      6.5323                12.3356                12.3961
 Frc consts  --      1.3913                 3.0645                 3.0797
 IR Inten    --      3.1603                 1.8222                 5.6821

                     25                     26                     27
                      A                      A                      A
 Frequencies --    654.5013               733.5357               740.6155
 Red. masses --      7.1818                 4.0703                 7.3968
 Frc consts  --      1.8126                 1.2904                 2.3904
 IR Inten    --      0.0000                 0.0000                 0.0000

                     28                     29                     30
                      A                      A                      A
 Frequencies --    826.1458               832.5821               938.1982
 Red. masses --      1.2582                 1.7489                 1.3089
 Frc consts  --      0.5059                 0.7143                 0.6788
 IR Inten    --      0.0005                62.4678                 0.0000

                     31                     32                     33
                      A                      A                      A
 Frequencies --    954.6052              1006.4502              1010.3243
 Red. masses --      1.3193                 8.9225                 5.8338
 Frc consts  --      0.7083                 5.3250                 3.5085
 IR Inten    --      0.0001                 0.0000                 0.7701

                     34                     35                     36
                      A                      A                      A
 Frequencies --   1050.0074              1129.5318              1211.1784
 Red. masses --      2.6269                 1.5988                 1.1438
 Frc consts  --      1.7064                 1.2018                 0.9886
 IR Inten    --     13.6118                 0.0138                 0.0000

                     37                     38                     39
                      A                      A                      A
 Frequencies --   1243.7299              1250.6406              1301.2808
 Red. masses --      4.2768                 5.4524                 3.9169
 Frc consts  --      3.8978                 5.0246                 3.9078
 IR Inten    --     59.0504                 0.0107               353.8377

                     40                     41                     42
                      A                      A                      A
 Frequencies --   1306.0702              1310.9192              1348.9122
 Red. masses --     11.8823                10.6826                 1.5092
 Frc consts  --     11.9421                10.8163                 1.6180
 IR Inten    --      0.1547                 0.0483                 0.0000

                     43                     44                     45
                      A                      A                      A
 Frequencies --   1447.3454              1526.8154              1562.1120
 Red. masses --      3.1112                 2.2904                 6.0881
 Frc consts  --      3.8400                 3.1458                 8.7529
 IR Inten    --      3.9439               458.9023                 0.0001

                     46                     47                     48
                      A                      A                      A
 Frequencies --   1641.4970              2174.3152              2175.8350
 Red. masses --      5.4838                12.6389                12.6422
 Frc consts  --      8.7059                35.2050                35.2634
 IR Inten    --      0.0000                10.6582              1409.2612

                     49                     50                     51
                      A                      A                      A
 Frequencies --   2222.4074              2236.3037              3139.1250
 Red. masses --     12.6505                12.6467                 1.0854
 Frc consts  --     36.8134                37.2639                 6.3014
 IR Inten    --   1183.9526                 0.0951                34.0562

                     52                     53                     54
                      A                      A                      A
 Frequencies --   3140.1907              3157.2529              3159.9311
 Red. masses --      1.0858                 1.0923                 1.0929
 Frc consts  --      6.3081                 6.4152                 6.4297
 IR Inten    --      0.0205                43.0753                 0.0044

 - Thermochemistry -
 -------------------
 Temperature   298.150 Kelvin.  Pressure   1.00000 Atm.
 Atom     1 has atomic number  7 and mass  14.00307

 Molecular mass:   204.04360 amu.
 Principal axes and moments of inertia in atomic units:
                           1         2         3
     Eigenvalues --  1520.852796925.727278446.57677
           X            0.88872  -0.44599   0.10612
           Y            0.28740   0.72235   0.62898
           Z           -0.35717  -0.52849   0.77015
 This molecule is an asymmetric top.
 Rotational symmetry number  1.
 Warning -- assumption of classical behavior for rotation
           may cause significant error
 Rotational temperatures (Kelvin)      0.05695     0.01251     0.01025
 Rotational constants (GHZ):           1.18666     0.26059     0.21367
 Zero-point vibrational energy     328468.7 (Joules/Mol)
                                   78.50590 (Kcal/Mol)
 Warning -- explicit consideration of  22 degrees of freedom as
           vibrations may cause significant error
 Vibrational temperatures:     42.42    83.89    94.50   114.48   181.20
          (Kelvin)            188.95   202.68   218.99   316.59   416.71
                              485.53   522.07   565.88   602.46   731.79
                              745.67   747.00   768.11   783.83   802.88
                              856.37   865.05   934.26   934.29   941.68
                             1055.39  1065.58  1188.64  1197.90  1349.86
                             1373.46  1448.06  1453.63  1510.73  1625.14
                             1742.62  1789.45  1799.39  1872.25  1879.14
                             1886.12  1940.78  2082.41  2196.75  2247.53
                             2361.75  3128.35  3130.54  3197.55  3217.54
                             4516.50  4518.03  4542.58  4546.44

 Zero-point correction=                           0.125107 (Hartree/Particle)
 Thermal correction to Energy=                    0.138764
 Thermal correction to Enthalpy=                  0.139709
 Thermal correction to Gibbs Free Energy=         0.082924
 Sum of electronic and zero-point Energies=           -678.750970
 Sum of electronic and thermal Energies=              -678.737313
 Sum of electronic and thermal Enthalpies=            -678.736368
 Sum of electronic and thermal Free Energies=         -678.793153

                     E (Thermal)             CV                S
                      KCal/Mol        Cal/Mol-Kelvin    Cal/Mol-Kelvin
 Total                   87.076             49.348            119.513
 Electronic               0.000              0.000              0.000
 Translational            0.889              2.981             41.844
 Rotational               0.889              2.981             32.853
 Vibrational             85.298             43.386             44.816
 Vibration     1          0.593              1.984              5.864
 Vibration     2          0.596              1.974              4.514
 Vibration     3          0.597              1.971              4.279
 Vibration     4          0.600              1.963              3.901
 Vibration     5          0.611              1.927              3.007
 Vibration     6          0.612              1.922              2.927
 Vibration     7          0.615              1.912              2.792
 Vibration     8          0.619              1.900              2.644
 Vibration     9          0.647              1.811              1.959
 Vibration    10          0.686              1.693              1.476
 Vibration    11          0.718              1.601              1.224
 Vibration    12          0.737              1.549              1.110
 Vibration    13          0.761              1.484              0.988
 Vibration    14          0.782              1.430              0.896
 Vibration    15          0.864              1.231              0.637
 Vibration    16          0.873              1.210              0.614
 Vibration    17          0.874              1.207              0.612
 Vibration    18          0.889              1.175              0.579
 Vibration    19          0.900              1.151              0.555
 Vibration    20          0.914              1.122              0.528
 Vibration    21          0.953              1.042              0.458
 Vibration    22          0.959              1.029              0.448

                           ! Non-Optimized Parameters !
 Normal termination of Gaussian 16 at Sat Jan  6 03:02:30 2024.
