 Q-Chem 5.4, Q-Chem, Inc., Pleasanton, CA (2021)
 Q-Chem 5.4.0 for Intel X86 EM64T Linux

User input:
--------------------------------------------------------------
$molecule
-2 1
C                 -0.0511530000      3.8828000000      0.1922980000
C                 -0.5180940000      3.4691480000      1.4243550000
C                 -0.1215370000      2.2119470000      1.9472410000
C                  0.8267040000      3.0776640000     -0.5793270000
C                  1.2331600000      1.7971870000     -0.0463070000
C                  0.7372500000      1.4085060000      1.2122150000
C                  1.3002570000      3.5163410000     -1.8566290000
C                  2.1770350000      2.6168020000     -2.5366420000
C                  2.5897360000      1.3737130000     -2.0625580000
C                  2.1388080000      0.9041240000     -0.7784390000
O                  1.0042510000      4.6404160000     -2.4426960000
O                  2.4956010000     -0.2262490000     -0.3027440000
H                 -0.3421490000      4.8408920000     -0.2270950000
H                 -1.1903300000      4.1076830000      1.9947200000
H                 -0.4871350000      1.8829400000      2.9174210000
H                  1.0616370000      0.4417960000      1.5850000000
O                  2.5906440000      3.0971650000     -3.7594490000
C                  3.5007460000      0.4924010000     -2.8794140000
C                  5.0029330000      0.6748220000     -2.5730970000
C                  5.9039390000     -0.2521730000     -3.3994320000
C                  7.4064040000     -0.0873930000     -3.1293930000
C                  8.2949980000     -1.0167560000     -3.9672220000
C                  9.7957470000     -0.8546230000     -3.7024780000
H                  2.1130310000      3.9635860000     -3.7673520000
H                  3.3369710000      0.6830070000     -3.9470260000
H                  3.2366990000     -0.5502880000     -2.6678630000
H                  5.1604810000      0.4887240000     -1.5050190000
H                  5.2806310000      1.7189730000     -2.7622570000
H                  5.7138000000     -0.0796940000     -4.4686360000
H                  5.6177300000     -1.2952630000     -3.2057660000
H                  7.6034960000     -0.2647230000     -2.0638990000
H                  7.6960070000      0.9546350000     -3.3199570000
H                  8.0949410000     -0.8405360000     -5.0323590000
H                  8.0044730000     -2.0582080000     -3.7766770000
H                 10.1323120000      0.1650360000     -3.9230610000
H                 10.3998350000     -1.5328480000     -4.3156910000
H                 10.0417430000     -1.0616030000     -2.6545640000
$end
$rem
MAX_SCF_CYCLES=200
BASIS  =  6-311++G(d,p)
GUI  =  2
JOB_TYPE  =  SP
METHOD  =  B3LYP
THRESH = 14
SCF_CONVERGENCE = 8
SCF_ALGORITHM = DIIS_GDM
SOLVENT_METHOD = PCM
$end
$pcm
theory = CPCM
$end
$solvent
dielectric 37.219
opticaldielectric 1.43
$end

--------------------------------------------------------------

             Standard Nuclear Orientation (Angstroms)
    I     Atom           X                Y                Z
 ----------------------------------------------------------------
    1      C      -0.0511530000     3.8828000000     0.1922980000
    2      C      -0.5180940000     3.4691480000     1.4243550000
    3      C      -0.1215370000     2.2119470000     1.9472410000
    4      C       0.8267040000     3.0776640000    -0.5793270000
    5      C       1.2331600000     1.7971870000    -0.0463070000
    6      C       0.7372500000     1.4085060000     1.2122150000
    7      C       1.3002570000     3.5163410000    -1.8566290000
    8      C       2.1770350000     2.6168020000    -2.5366420000
    9      C       2.5897360000     1.3737130000    -2.0625580000
   10      C       2.1388080000     0.9041240000    -0.7784390000
   11      O       1.0042510000     4.6404160000    -2.4426960000
   12      O       2.4956010000    -0.2262490000    -0.3027440000
   13      H      -0.3421490000     4.8408920000    -0.2270950000
   14      H      -1.1903300000     4.1076830000     1.9947200000
   15      H      -0.4871350000     1.8829400000     2.9174210000
   16      H       1.0616370000     0.4417960000     1.5850000000
   17      O       2.5906440000     3.0971650000    -3.7594490000
   18      C       3.5007460000     0.4924010000    -2.8794140000
   19      C       5.0029330000     0.6748220000    -2.5730970000
   20      C       5.9039390000    -0.2521730000    -3.3994320000
   21      C       7.4064040000    -0.0873930000    -3.1293930000
   22      C       8.2949980000    -1.0167560000    -3.9672220000
   23      C       9.7957470000    -0.8546230000    -3.7024780000
   24      H       2.1130310000     3.9635860000    -3.7673520000
   25      H       3.3369710000     0.6830070000    -3.9470260000
   26      H       3.2366990000    -0.5502880000    -2.6678630000
   27      H       5.1604810000     0.4887240000    -1.5050190000
   28      H       5.2806310000     1.7189730000    -2.7622570000
   29      H       5.7138000000    -0.0796940000    -4.4686360000
   30      H       5.6177300000    -1.2952630000    -3.2057660000
   31      H       7.6034960000    -0.2647230000    -2.0638990000
   32      H       7.6960070000     0.9546350000    -3.3199570000
   33      H       8.0949410000    -0.8405360000    -5.0323590000
   34      H       8.0044730000    -2.0582080000    -3.7766770000
   35      H      10.1323120000     0.1650360000    -3.9230610000
   36      H      10.3998350000    -1.5328480000    -4.3156910000
   37      H      10.0417430000    -1.0616030000    -2.6545640000
 ----------------------------------------------------------------

   26    -846.7226199755      2.88e-09  Convergence criterion met
 Total energy in the final basis set =     -846.7226199755

                    Orbital Energies (a.u.)
 --------------------------------------------------------------

 Alpha MOs
 -- Occupied --
-19.1118 -19.0276 -19.0203 -10.1761 -10.1736 -10.1616 -10.1552 -10.1514
-10.1495 -10.1492 -10.1476 -10.1454 -10.1443 -10.1439 -10.1429 -10.1405
-10.1360 -10.1320 -10.1238  -1.0259  -0.9425  -0.9322  -0.8235  -0.7956
 -0.7739  -0.7493  -0.7212  -0.7162  -0.6808  -0.6411  -0.6195  -0.5862
 -0.5765  -0.5648  -0.5524  -0.5342  -0.5023  -0.4711  -0.4674  -0.4487
 -0.4348  -0.4263  -0.4197  -0.4173  -0.4045  -0.3994  -0.3904  -0.3847
 -0.3742  -0.3661  -0.3634  -0.3583  -0.3507  -0.3480  -0.3359  -0.3323
 -0.3242  -0.3169  -0.3143  -0.3102  -0.3093  -0.3037  -0.2976  -0.2940
 -0.2295  -0.2252  -0.2167  -0.1988  -0.1919  -0.1085

          Ground-State Mulliken Net Atomic Charges

     Atom                 Charge (a.u.)
  ----------------------------------------
      1 C                    -0.062156
      2 C                    -0.405020
      3 C                    -0.510512
      4 C                     0.421356
      5 C                    -0.063124
      6 C                     0.016696
      7 C                    -0.908229
      8 C                    -0.619283
      9 C                     1.928592
     10 C                    -0.668531
     11 O                    -0.755698
     12 O                    -0.675586
     13 H                     0.143728
     14 H                     0.170813
     15 H                     0.164890
     16 H                     0.142776
     17 O                    -0.350734
     18 C                    -0.344751
     19 C                    -0.526456
     20 C                    -0.092245
     21 C                    -0.248897
     22 C                    -0.203715
     23 C                    -0.707336
     24 H                     0.286576
     25 H                     0.196051
     26 H                     0.168973
     27 H                     0.168693
     28 H                     0.152169
     29 H                     0.111160
     30 H                     0.113409
     31 H                     0.123545
     32 H                     0.124713
     33 H                     0.135295
     34 H                     0.135804
     35 H                     0.145293
     36 H                     0.146541
     37 H                     0.145201
  ----------------------------------------
  Sum of atomic charges =    -2.000000

                    Cartesian Multipole Moments
 -----------------------------------------------------------------
    Charge (ESU x 10^10)
                -9.6064
    Dipole Moment (Debye)
         X     -16.2805      Y     -21.3075      Z      12.0470
       Tot      29.3971
    Quadrupole Moments (Debye-Ang)
        XX    -165.5332     XY     -22.8416     YY    -213.1248
        XZ      22.3235     YZ      41.6196     ZZ    -160.1165

 Total job time:  402.17s(wall), 2392.47s(cpu)
        *  Thank you very much for using Q-Chem.  Have a nice day.  *
