 Q-Chem 5.4, Q-Chem, Inc., Pleasanton, CA (2021)
 Q-Chem 5.4.0 for Intel X86 EM64T Linux

User input:
--------------------------------------------------------------
$molecule
0 1
C                 -2.6040930000     -1.7731690000     -0.1673690000
O                 -2.3378090000     -0.4652990000     -0.7237870000
C                 -1.2973140000      0.2811890000     -0.3359010000
C                 -1.4156990000      1.6279640000     -0.2611050000
Br                -3.0684520000      2.4759880000     -0.5990310000
C                 -0.2714150000      2.5154160000      0.0899240000
O                 -0.4009460000      3.7175060000      0.1722420000
C                  1.0400930000      1.8518570000      0.3346650000
C                  1.2116430000      0.5132860000      0.2238150000
O                  2.3925550000     -0.0406350000      0.5220250000
C                  2.9222180000     -1.1748010000     -0.2017350000
C                  0.0391320000     -0.3620840000     -0.1085100000
O                  0.1694090000     -1.5695360000     -0.1920410000
Br                 2.4795150000      2.9774290000      0.8100440000
H                 -2.3680310000     -1.7979900000      0.8974890000
H                 -3.6736460000     -1.9174670000     -0.3112800000
H                 -2.0378310000     -2.5396010000     -0.6910160000
H                  4.0000620000     -1.1066980000     -0.0634140000
H                  2.5396530000     -2.1074600000      0.2058590000
H                  2.6809560000     -1.1058940000     -1.2634530000
$end

$rem
BASIS  =  6-311++G(d,p)
GUI  =  2
JOB_TYPE  =  SP
METHOD  =  B3LYP
SCF_CONVERGENCE  = 8
SOLVENT_METHOD = sm12
$end

$smx
solvent dimethylformamide
charges CM5
$end

--------------------------------------------------------------

             Standard Nuclear Orientation (Angstroms)
    I     Atom           X                Y                Z
 ----------------------------------------------------------------
    1      C      -2.6040930000    -1.7731690000    -0.1673690000
    2      O      -2.3378090000    -0.4652990000    -0.7237870000
    3      C      -1.2973140000     0.2811890000    -0.3359010000
    4      C      -1.4156990000     1.6279640000    -0.2611050000
    5      Br     -3.0684520000     2.4759880000    -0.5990310000
    6      C      -0.2714150000     2.5154160000     0.0899240000
    7      O      -0.4009460000     3.7175060000     0.1722420000
    8      C       1.0400930000     1.8518570000     0.3346650000
    9      C       1.2116430000     0.5132860000     0.2238150000
   10      O       2.3925550000    -0.0406350000     0.5220250000
   11      C       2.9222180000    -1.1748010000    -0.2017350000
   12      C       0.0391320000    -0.3620840000    -0.1085100000
   13      O       0.1694090000    -1.5695360000    -0.1920410000
   14      Br      2.4795150000     2.9774290000     0.8100440000
   15      H      -2.3680310000    -1.7979900000     0.8974890000
   16      H      -3.6736460000    -1.9174670000    -0.3112800000
   17      H      -2.0378310000    -2.5396010000    -0.6910160000
   18      H       4.0000620000    -1.1066980000    -0.0634140000
   19      H       2.5396530000    -2.1074600000     0.2058590000
   20      H       2.6809560000    -1.1058940000    -1.2634530000
 ----------------------------------------------------------------

   15   -5757.7390570598      4.03e-09  Convergence criterion met
 Total energy in the final basis set =    -5757.7538055144

                    Orbital Energies (a.u.)
 --------------------------------------------------------------

 Alpha MOs
 -- Occupied --
********-482.8458 -62.4987 -62.4986 -56.3193 -56.3193 -56.3154 -56.3153
-56.3149 -56.3148 -19.1811 -19.1811 -19.1618 -19.1417 -10.3127 -10.3019
-10.2862 -10.2862 -10.2580 -10.2580 -10.2269 -10.2268  -8.7075  -8.7074
 -6.5396  -6.5395  -6.5263  -6.5263  -6.5248  -6.5247  -2.6504  -2.6503
 -2.6469  -2.6468  -2.6458  -2.6456  -2.6351  -2.6351  -2.6351  -2.6350
 -1.1153  -1.0980  -1.0805  -1.0780  -0.8877  -0.8524  -0.8023  -0.7729
 -0.7409  -0.7004  -0.6987  -0.6234  -0.6148  -0.5702  -0.5457  -0.5245
 -0.5047  -0.5004  -0.4816  -0.4667  -0.4593  -0.4512  -0.4438  -0.4313
 -0.4271  -0.4207  -0.3893  -0.3823  -0.3613  -0.3597  -0.3306  -0.3292
 -0.3039  -0.3028  -0.2943  -0.2922  -0.2742  -0.2522

          Ground-State Mulliken Net Atomic Charges

     Atom                 Charge (a.u.)
  ----------------------------------------
      1 C                    -0.164333
      2 O                    -0.109622
      3 C                     0.014695
      4 C                     0.459968
      5 Br                   -0.080191
      6 C                    -1.753105
      7 O                    -0.211026
      8 C                     0.436005
      9 C                     0.039167
     10 O                    -0.110551
     11 C                    -0.163960
     12 C                     0.631111
     13 O                    -0.161635
     14 Br                   -0.079173
     15 H                     0.199346
     16 H                     0.227264
     17 H                     0.199799
     18 H                     0.227289
     19 H                     0.199849
     20 H                     0.199104
  ----------------------------------------
  Sum of atomic charges =     0.000000

                    Cartesian Multipole Moments
 -----------------------------------------------------------------
    Charge (ESU x 10^10)
                 0.0000
    Dipole Moment (Debye)
         X       0.6479      Y      -5.9843      Z      -0.4089
       Tot       6.0332
    Quadrupole Moments (Debye-Ang)
        XX     -96.9080     XY       2.9089     YY    -120.5208
        XZ      -4.5397     YZ      -1.0453     ZZ    -105.4201

 Total job time:  284.16s(wall), 2185.54s(cpu)
        *  Thank you very much for using Q-Chem.  Have a nice day.  *
