 Gaussian 16, Revision A.03,
 Gaussian 16:  ES64L-G16RevA.03 25-Dec-2016

 --------------------------------------
 #P UB3LYP/6-311++G(d,p) nosym opt freq
 --------------------------------------

 --------
 Oxidized
 --------
 Symbolic Z-matrix:
 Charge =  0 Multiplicity = 1

 SCF Done:  E(UB3LYP) =  -5757.74403637     A.U. after   15 cycles
 Optimization completed.
    -- Stationary point found.
 Normal termination of Gaussian 16 at Sat Jan  6 05:40:54 2024.

 ----------------------------------------------------------------------
 #P Geom=AllCheck Guess=TCheck SCRF=Check GenChk UB3LYP/6-311++G(d,p) F
 req
 ----------------------------------------------------------------------

 Structure from the checkpoint file:  "023.chk"
 --------
 Oxidized
 --------
 Charge =  0 Multiplicity = 1

                          Input orientation:
 ---------------------------------------------------------------------
 Center     Atomic      Atomic             Coordinates (Angstroms)
 Number     Number       Type             X           Y           Z
 ---------------------------------------------------------------------
      1          6           0       -2.604093   -1.773169   -0.167369
      2          8           0       -2.337809   -0.465299   -0.723787
      3          6           0       -1.297314    0.281189   -0.335901
      4          6           0       -1.415699    1.627964   -0.261105
      5         35           0       -3.068452    2.475988   -0.599031
      6          6           0       -0.271415    2.515416    0.089924
      7          8           0       -0.400946    3.717506    0.172242
      8          6           0        1.040093    1.851857    0.334665
      9          6           0        1.211643    0.513286    0.223815
     10          8           0        2.392555   -0.040635    0.522025
     11          6           0        2.922218   -1.174801   -0.201735
     12          6           0        0.039132   -0.362084   -0.108510
     13          8           0        0.169409   -1.569536   -0.192041
     14         35           0        2.479515    2.977429    0.810044
     15          1           0       -2.368031   -1.797990    0.897489
     16          1           0       -3.673646   -1.917467   -0.311280
     17          1           0       -2.037831   -2.539601   -0.691016
     18          1           0        4.000062   -1.106698   -0.063414
     19          1           0        2.539653   -2.107460    0.205859
     20          1           0        2.680956   -1.105894   -1.263453
 ---------------------------------------------------------------------

 SCF Done:  E(UB3LYP) =  -5757.74403637     A.U. after    2 cycles

 Alpha  occ. eigenvalues -- -482.84602-482.84601 -62.49862 -62.49862 -56.31918
 Alpha  occ. eigenvalues --  -56.31918 -56.31524 -56.31523 -56.31470 -56.31470
 Alpha  occ. eigenvalues --  -19.18838 -19.18836 -19.16458 -19.14261 -10.31606
 Alpha  occ. eigenvalues --  -10.30185 -10.28877 -10.28876 -10.26073 -10.26072
 Alpha  occ. eigenvalues --  -10.24407 -10.24407  -8.70829  -8.70828  -6.54032
 Alpha  occ. eigenvalues --   -6.54031  -6.52711  -6.52710  -6.52546  -6.52546
 Alpha  occ. eigenvalues --   -2.65118  -2.65118  -2.64768  -2.64767  -2.64642
 Alpha  occ. eigenvalues --   -2.64642  -2.63590  -2.63589  -2.63587  -2.63586
 Alpha  occ. eigenvalues --   -1.12088  -1.10536  -1.08378  -1.07989  -0.89064
 Alpha  occ. eigenvalues --   -0.85463  -0.80348  -0.77876  -0.75063  -0.70944
 Alpha  occ. eigenvalues --   -0.70311  -0.62809  -0.62049  -0.57422  -0.55467
 Alpha  occ. eigenvalues --   -0.53288  -0.51229  -0.50591  -0.49307  -0.47086
 Alpha  occ. eigenvalues --   -0.46312  -0.46192  -0.45208  -0.43629  -0.43285
 Alpha  occ. eigenvalues --   -0.42257  -0.40114  -0.39233  -0.36818  -0.36745
 Alpha  occ. eigenvalues --   -0.33442  -0.33088  -0.30352  -0.30216  -0.29897
 Alpha  occ. eigenvalues --   -0.29128  -0.27740  -0.25494
 Alpha virt. eigenvalues --   -0.14530  -0.04033  -0.03581  -0.01534  -0.01311
 Alpha virt. eigenvalues --   -0.01092  -0.00204   0.00461   0.01589   0.02147
 Alpha virt. eigenvalues --    0.02795   0.03369   0.03803   0.04335   0.04736

  Beta  occ. eigenvalues -- -482.84602-482.84601 -62.49862 -62.49862 -56.31918
  Beta  occ. eigenvalues --  -56.31918 -56.31524 -56.31523 -56.31470 -56.31470
  Beta  occ. eigenvalues --  -19.18838 -19.18836 -19.16458 -19.14261 -10.31606
  Beta  occ. eigenvalues --  -10.30185 -10.28877 -10.28876 -10.26073 -10.26072
  Beta  occ. eigenvalues --  -10.24407 -10.24407  -8.70829  -8.70828  -6.54032
  Beta  occ. eigenvalues --   -6.54031  -6.52711  -6.52710  -6.52546  -6.52546
  Beta  occ. eigenvalues --   -2.65118  -2.65118  -2.64768  -2.64767  -2.64642
  Beta  occ. eigenvalues --   -2.64642  -2.63590  -2.63589  -2.63587  -2.63586
  Beta  occ. eigenvalues --   -1.12088  -1.10536  -1.08378  -1.07989  -0.89064
  Beta  occ. eigenvalues --   -0.85463  -0.80348  -0.77876  -0.75063  -0.70944
  Beta  occ. eigenvalues --   -0.70311  -0.62809  -0.62049  -0.57422  -0.55467
  Beta  occ. eigenvalues --   -0.53288  -0.51229  -0.50591  -0.49307  -0.47086
  Beta  occ. eigenvalues --   -0.46312  -0.46192  -0.45208  -0.43629  -0.43285
  Beta  occ. eigenvalues --   -0.42257  -0.40114  -0.39233  -0.36818  -0.36745
  Beta  occ. eigenvalues --   -0.33442  -0.33088  -0.30352  -0.30216  -0.29897
  Beta  occ. eigenvalues --   -0.29128  -0.27740  -0.25494
  Beta virt. eigenvalues --   -0.14530  -0.04033  -0.03581  -0.01534  -0.01311
  Beta virt. eigenvalues --   -0.01092  -0.00204   0.00461   0.01589   0.02147
  Beta virt. eigenvalues --    0.02795   0.03369   0.03803   0.04335   0.04736

 Mulliken charges and spin densities:
               1          2
     1  C   -0.281103   0.000000
     2  O   -0.108472  -0.000000
     3  C   -0.412966   0.000000
     4  C    0.676744  -0.000000
     5  Br   0.006589   0.000000
     6  C   -0.476142   0.000000
     7  O   -0.135112   0.000000
     8  C    0.672930  -0.000000
     9  C   -0.409889   0.000000
    10  O   -0.108454  -0.000000
    11  C   -0.281071  -0.000000
    12  C    0.033308   0.000000
    13  O   -0.215913   0.000000
    14  Br   0.006593  -0.000000
    15  H    0.159899   0.000000
    16  H    0.169668  -0.000000
    17  H    0.186898  -0.000000
    18  H    0.169637  -0.000000
    19  H    0.186877   0.000000
    20  H    0.159979   0.000000
 Sum of Mulliken charges =  -0.00000  -0.00000

 Dipole moment (field-independent basis, Debye):
    X=              0.4992    Y=             -4.6266    Z=             -0.3166  Tot=              4.6642
 Quadrupole moment (field-independent basis, Debye-Ang):
   XX=            -97.6794   YY=           -118.1539   ZZ=           -105.3798
   XY=              2.5262   XZ=             -4.1168   YZ=             -0.9550

  Exact polarizability: 177.197  -4.390 205.928  16.804   9.804  91.339
 Approx polarizability: 236.460 -20.064 404.756  21.805  20.633 143.629

                      1                      2                      3
                      A                      A                      A
 Frequencies --     41.5169                41.6889                54.5670
 Red. masses --      5.8073                 4.8492                 4.0870
 Frc consts  --      0.0059                 0.0050                 0.0072
 IR Inten    --      4.5997                 3.0935                 1.1342

                      4                      5                      6
                      A                      A                      A
 Frequencies --     74.5343                79.1448               128.2015
 Red. masses --      6.1978                 3.0486                23.7787
 Frc consts  --      0.0203                 0.0113                 0.2303
 IR Inten    --      0.2866                10.2167                 0.4555

                      7                      8                      9
                      A                      A                      A
 Frequencies --    151.3311               164.6828               164.8010
 Red. masses --      1.9948                 1.5876                 2.1612
 Frc consts  --      0.0269                 0.0254                 0.0346
 IR Inten    --      1.4945                 1.4112                 1.3583

                     10                     11                     12
                      A                      A                      A
 Frequencies --    197.7298               199.4943               234.5177
 Red. masses --      2.8611                 5.4463                 8.9804
 Frc consts  --      0.0659                 0.1277                 0.2910
 IR Inten    --      0.3018                 6.3989                 0.3400

                     13                     14                     15
                      A                      A                      A
 Frequencies --    246.8910               303.8154               332.0776
 Red. masses --      8.6289                11.9066                 4.6582
 Frc consts  --      0.3099                 0.6475                 0.3027
 IR Inten    --      0.3142                 4.5786                 6.9877

                     16                     17                     18
                      A                      A                      A
 Frequencies --    362.5224               394.5659               416.0535
 Red. masses --      8.8622                11.6790                 5.9736
 Frc consts  --      0.6862                 1.0713                 0.6092
 IR Inten    --      1.5874                10.7812                 0.1414

                     19                     20                     21
                      A                      A                      A
 Frequencies --    462.8118               480.0946               540.2343
 Red. masses --     12.1810                 9.6655                 9.5694
 Frc consts  --      1.5372                 1.3126                 1.6455
 IR Inten    --      1.0889                 5.1899                 1.4669

                     22                     23                     24
                      A                      A                      A
 Frequencies --    622.5303               680.9294               733.2597
 Red. masses --      9.0317                12.4036                12.1575
 Frc consts  --      2.0623                 3.3885                 3.8513
 IR Inten    --      1.4403               100.7849                 9.1924

                     25                     26                     27
                      A                      A                      A
 Frequencies --    759.0764               789.7665               903.6200
 Red. masses --     12.1891                 9.9169                10.9712
 Frc consts  --      4.1380                 3.6444                 5.2781
 IR Inten    --      1.6425                35.4908                 0.7318

                     28                     29                     30
                      A                      A                      A
 Frequencies --    920.0506               950.0207              1096.6840
 Red. masses --      7.5521                10.0427                 6.7917
 Frc consts  --      3.7665                 5.3403                 4.8128
 IR Inten    --     27.4392               153.2804               259.3706

                     31                     32                     33
                      A                      A                      A
 Frequencies --   1099.9431              1160.0667              1160.6591
 Red. masses --     11.4318                 1.2417                 1.2462
 Frc consts  --      8.1490                 0.9845                 0.9891
 IR Inten    --     26.6908                 1.6161                 0.0676

                     34                     35                     36
                      A                      A                      A
 Frequencies --   1184.4296              1202.6602              1237.5027
 Red. masses --      1.4256                 1.5168                11.1300
 Frc consts  --      1.1783                 1.2926                10.0424
 IR Inten    --     59.1181                78.8501                 0.3512

                     37                     38                     39
                      A                      A                      A
 Frequencies --   1301.6513              1325.4311              1477.9242
 Red. masses --      5.5629                 7.1054                 1.2179
 Frc consts  --      5.5532                 7.3545                 1.5674
 IR Inten    --    651.6068                 8.2591                25.3821

                     40                     41                     42
                      A                      A                      A
 Frequencies --   1479.2870              1488.3771              1488.8618
 Red. masses --      1.1970                 1.0547                 1.0533
 Frc consts  --      1.5433                 1.3766                 1.3756
 IR Inten    --     17.6050                 0.7296                12.0022

                     43                     44                     45
                      A                      A                      A
 Frequencies --   1495.6471              1495.9734              1605.3106
 Red. masses --      1.0473                 1.0487                 9.0283
 Frc consts  --      1.3804                 1.3827                13.7080
 IR Inten    --     40.1644                35.9671               284.5038

                     46                     47                     48
                      A                      A                      A
 Frequencies --   1653.9720              1716.4704              1726.4369
 Red. masses --     10.4109                12.5348                13.2527
 Frc consts  --     16.7800                21.7592                23.2731
 IR Inten    --    103.3382               388.9223               129.9685

                     49                     50                     51
                      A                      A                      A
 Frequencies --   3052.8051              3053.0725              3135.9933
 Red. masses --      1.0304                 1.0305                 1.1051
 Frc consts  --      5.6580                 5.6594                 6.4031
 IR Inten    --     38.6475                49.0704                33.2190

                     52                     53                     54
                      A                      A                      A
 Frequencies --   3136.0489              3155.7803              3156.1254
 Red. masses --      1.1050                 1.1080                 1.1081
 Frc consts  --      6.4032                 6.5015                 6.5031
 IR Inten    --     11.5053                10.9933                 6.2338

 - Thermochemistry -
 -------------------
 Temperature   298.150 Kelvin.  Pressure   1.00000 Atm.
 Atom     1 has atomic number  6 and mass  12.00000

 Molecular mass:   323.86328 amu.
 Principal axes and moments of inertia in atomic units:
                           1         2         3
     Eigenvalues --  3426.206646485.571359791.06198
           X            0.97291  -0.10701  -0.20492
           Y            0.09025   0.99189  -0.08947
           Z            0.21284   0.06855   0.97468
 This molecule is an asymmetric top.
 Rotational symmetry number  1.
 Warning -- assumption of classical behavior for rotation
           may cause significant error
 Rotational temperatures (Kelvin)      0.02528     0.01335     0.00885
 Rotational constants (GHZ):           0.52675     0.27827     0.18433
 Zero-point vibrational energy     338050.6 (Joules/Mol)
                                   80.79603 (Kcal/Mol)
 Warning -- explicit consideration of  21 degrees of freedom as
           vibrations may cause significant error
 Vibrational temperatures:     59.73    59.98    78.51   107.24   113.87
          (Kelvin)            184.45   217.73   236.94   237.11   284.49
                              287.03   337.42   355.22   437.12   477.79
                              521.59   567.69   598.61   665.88   690.75
                              777.28   895.68   979.71  1055.00  1092.14
                             1136.30  1300.11  1323.75  1366.87  1577.88
                             1582.57  1669.08  1669.93  1704.13  1730.36
                             1780.49  1872.79  1907.00  2126.40  2128.36
                             2141.44  2142.14  2151.90  2152.37  2309.68
                             2379.70  2469.62  2483.96  4392.31  4392.69
                             4511.99  4512.07  4540.46  4540.96

 Zero-point correction=                           0.128757 (Hartree/Particle)
 Thermal correction to Energy=                    0.143695
 Thermal correction to Enthalpy=                  0.144639
 Thermal correction to Gibbs Free Energy=         0.083614
 Sum of electronic and zero-point Energies=          -5757.615280
 Sum of electronic and thermal Energies=             -5757.600341
 Sum of electronic and thermal Enthalpies=           -5757.599397
 Sum of electronic and thermal Free Energies=        -5757.660423

                     E (Thermal)             CV                S
                      KCal/Mol        Cal/Mol-Kelvin    Cal/Mol-Kelvin
 Total                   90.170             50.150            128.439
 Electronic               0.000              0.000              0.000
 Translational            0.889              2.981             43.221
 Rotational               0.889              2.981             33.742
 Vibrational             88.392             44.188             51.476
 Vibration     1          0.594              1.981              5.185
 Vibration     2          0.594              1.981              5.177
 Vibration     3          0.596              1.976              4.645
 Vibration     4          0.599              1.966              4.030
 Vibration     5          0.600              1.963              3.912
 Vibration     6          0.611              1.925              2.973
 Vibration     7          0.619              1.901              2.655
 Vibration     8          0.623              1.886              2.495
 Vibration     9          0.623              1.886              2.494
 Vibration    10          0.637              1.843              2.154
 Vibration    11          0.638              1.841              2.138
 Vibration    12          0.654              1.788              1.844
 Vibration    13          0.661              1.768              1.753
 Vibration    14          0.695              1.666              1.396
 Vibration    15          0.714              1.611              1.250
 Vibration    16          0.736              1.549              1.111
 Vibration    17          0.762              1.482              0.983
 Vibration    18          0.779              1.435              0.905
 Vibration    19          0.820              1.333              0.758
 Vibration    20          0.836              1.294              0.710
 Vibration    21          0.895              1.161              0.565

 Optimization completed.
    -- Stationary point found.
 Normal termination of Gaussian 16 at Sat Jan  6 06:18:18 2024.
