 Q-Chem 5.4, Q-Chem, Inc., Pleasanton, CA (2021)
 Q-Chem 5.4.0 for Intel X86 EM64T Linux

User input:
--------------------------------------------------------------
$molecule
-2 1
C                 -3.4363880000      1.7603730000      0.5269850000
C                 -4.0063980000      1.4909060000     -0.7642990000
C                 -3.5934690000      0.4452350000     -1.5674620000
C                 -2.5527780000     -0.4643710000     -1.1825750000
C                 -1.9638120000     -0.2076600000      0.1173650000
C                 -2.3764700000      0.8529860000      0.9299780000
O                 -3.8446960000      2.7313650000      1.2657160000
O                 -2.1727790000     -1.4399990000     -1.9338780000
C                 -1.7493180000      1.1086070000      2.2813050000
C                 -0.9148990000     -1.2066250000      0.5813220000
C                  0.5277160000     -0.8895080000      0.2208080000
C                  0.9127070000     -0.7206260000     -1.1170170000
C                  1.5282130000     -0.7973950000      1.1950520000
C                  2.8608340000     -0.5522130000      0.8580500000
C                  2.2447990000     -0.4797020000     -1.4494570000
C                  3.2489570000     -0.3908770000     -0.4753490000
C                  4.6985660000     -0.1289570000     -0.8666370000
C                  5.2133150000      1.2217090000     -0.3334150000
C                  5.6371070000     -1.2753110000     -0.4450370000
H                 -4.7986460000      2.1621580000     -1.0927670000
H                 -4.0548310000      0.2744130000     -2.5389860000
H                 -0.6577060000      1.2028050000      2.2235360000
H                 -1.9614120000      0.3029220000      3.0012500000
H                 -2.1666020000      2.0351150000      2.6818010000
H                 -1.1657570000     -2.1594720000      0.0987360000
H                 -0.9735960000     -1.3484020000      1.6660980000
H                  0.1458060000     -0.8030660000     -1.8813300000
H                  1.2589780000     -0.9181530000      2.2412540000
H                  3.6027560000     -0.4877690000      1.6501860000
H                  2.5158110000     -0.3590110000     -2.4961370000
H                  4.7238990000     -0.0754320000     -1.9620520000
H                  4.5682000000      2.0433100000     -0.6597750000
H                  6.2324710000      1.4219670000     -0.6852510000
H                  5.2353430000      1.2319560000      0.7613050000
H                  5.2928020000     -2.2328010000     -0.8494550000
H                  5.6825150000     -1.3725250000      0.6450350000
H                  6.6590110000     -1.1022820000     -0.8004420000
$end
$rem
MAX_SCF_CYCLES=200
BASIS  =  6-311++G(d,p)
GUI  =  2
JOB_TYPE  =  SP
METHOD  =  B3LYP
SOLVENT_METHOD = PCM
$end
$pcm
theory = CPCM
$end
$solvent
dielectric 37.219
opticaldielectric 1.43
$end

--------------------------------------------------------------

             Standard Nuclear Orientation (Angstroms)
    I     Atom           X                Y                Z
 ----------------------------------------------------------------
    1      C      -3.4363880000     1.7603730000     0.5269850000
    2      C      -4.0063980000     1.4909060000    -0.7642990000
    3      C      -3.5934690000     0.4452350000    -1.5674620000
    4      C      -2.5527780000    -0.4643710000    -1.1825750000
    5      C      -1.9638120000    -0.2076600000     0.1173650000
    6      C      -2.3764700000     0.8529860000     0.9299780000
    7      O      -3.8446960000     2.7313650000     1.2657160000
    8      O      -2.1727790000    -1.4399990000    -1.9338780000
    9      C      -1.7493180000     1.1086070000     2.2813050000
   10      C      -0.9148990000    -1.2066250000     0.5813220000
   11      C       0.5277160000    -0.8895080000     0.2208080000
   12      C       0.9127070000    -0.7206260000    -1.1170170000
   13      C       1.5282130000    -0.7973950000     1.1950520000
   14      C       2.8608340000    -0.5522130000     0.8580500000
   15      C       2.2447990000    -0.4797020000    -1.4494570000
   16      C       3.2489570000    -0.3908770000    -0.4753490000
   17      C       4.6985660000    -0.1289570000    -0.8666370000
   18      C       5.2133150000     1.2217090000    -0.3334150000
   19      C       5.6371070000    -1.2753110000    -0.4450370000
   20      H      -4.7986460000     2.1621580000    -1.0927670000
   21      H      -4.0548310000     0.2744130000    -2.5389860000
   22      H      -0.6577060000     1.2028050000     2.2235360000
   23      H      -1.9614120000     0.3029220000     3.0012500000
   24      H      -2.1666020000     2.0351150000     2.6818010000
   25      H      -1.1657570000    -2.1594720000     0.0987360000
   26      H      -0.9735960000    -1.3484020000     1.6660980000
   27      H       0.1458060000    -0.8030660000    -1.8813300000
   28      H       1.2589780000    -0.9181530000     2.2412540000
   29      H       3.6027560000    -0.4877690000     1.6501860000
   30      H       2.5158110000    -0.3590110000    -2.4961370000
   31      H       4.7238990000    -0.0754320000    -1.9620520000
   32      H       4.5682000000     2.0433100000    -0.6597750000
   33      H       6.2324710000     1.4219670000    -0.6852510000
   34      H       5.2353430000     1.2319560000     0.7613050000
   35      H       5.2928020000    -2.2328010000    -0.8494550000
   36      H       5.6825150000    -1.3725250000     0.6450350000
   37      H       6.6590110000    -1.1022820000    -0.8004420000
 ----------------------------------------------------------------

    9    -809.5621903357      8.93e-06  Convergence criterion met
 Total energy in the final basis set =     -809.5621903357

                    Orbital Energies (a.u.)
 --------------------------------------------------------------

 Alpha MOs
 -- Occupied --
-19.0100 -19.0094 -10.1716 -10.1677 -10.1659 -10.1612 -10.1604 -10.1596
-10.1595 -10.1594 -10.1538 -10.1510 -10.1509 -10.1444 -10.1313 -10.1226
-10.1221 -10.1135 -10.1129  -0.9293  -0.9262  -0.8512  -0.7990  -0.7788
 -0.7438  -0.7331  -0.7193  -0.6839  -0.6765  -0.6340  -0.6182  -0.5998
 -0.5875  -0.5523  -0.5281  -0.5087  -0.4827  -0.4630  -0.4436  -0.4370
 -0.4224  -0.4210  -0.4150  -0.4079  -0.4040  -0.3940  -0.3870  -0.3792
 -0.3754  -0.3628  -0.3588  -0.3520  -0.3491  -0.3464  -0.3364  -0.3317
 -0.3297  -0.3175  -0.3159  -0.3081  -0.3035  -0.2968  -0.2459  -0.2290
 -0.2203  -0.1992  -0.1933  -0.1870  -0.1083

          Ground-State Mulliken Net Atomic Charges

     Atom                 Charge (a.u.)
  ----------------------------------------
      1 C                    -0.597825
      2 C                    -0.144108
      3 C                    -0.280665
      4 C                    -0.449433
      5 C                     0.646136
      6 C                     0.263095
      7 O                    -0.762190
      8 O                    -0.728979
      9 C                    -0.652831
     10 C                    -0.103843
     11 C                     0.920658
     12 C                    -0.735740
     13 C                    -0.294848
     14 C                    -0.582212
     15 C                    -0.684120
     16 C                     0.570927
     17 C                     0.118772
     18 C                    -0.719558
     19 C                    -0.710197
     20 H                     0.128239
     21 H                     0.131532
     22 H                     0.143595
     23 H                     0.144567
     24 H                     0.155378
     25 H                     0.173052
     26 H                     0.191552
     27 H                     0.173896
     28 H                     0.169436
     29 H                     0.199856
     30 H                     0.199420
     31 H                     0.189048
     32 H                     0.145160
     33 H                     0.159092
     34 H                     0.161029
     35 H                     0.143419
     36 H                     0.159832
     37 H                     0.158860
  ----------------------------------------
  Sum of atomic charges =    -2.000000

                    Cartesian Multipole Moments
 -----------------------------------------------------------------
    Charge (ESU x 10^10)
                -9.6064
    Dipole Moment (Debye)
         X      28.0028      Y      -6.2677      Z       3.1980
       Tot      28.8733
    Quadrupole Moments (Debye-Ang)
        XX    -214.1043     XY      35.3729     YY    -167.6156
        XZ      -0.3742     YZ     -25.2793     ZZ    -142.7077

 Total job time:  112.25s(wall), 566.27s(cpu)
        *  Thank you very much for using Q-Chem.  Have a nice day.  *
