 Gaussian 16, Revision A.03,
 Gaussian 16:  ES64L-G16RevA.03 25-Dec-2016

 --------------------------------------
 #P UB3LYP/6-311++G(d,p) nosym opt freq
 --------------------------------------

 -------
 Reduced
 -------
 Symbolic Z-matrix:
 Charge = -2 Multiplicity = 1

 SCF Done:  E(UB3LYP) =  -538.789738334     A.U. after   42 cycles
 SCF Done:  E(UB3LYP) =  -538.816342099     A.U. after   30 cycles
 SCF Done:  E(UB3LYP) =  -538.821127577     A.U. after   30 cycles
 SCF Done:  E(UB3LYP) =  -538.823455739     A.U. after   28 cycles
 SCF Done:  E(UB3LYP) =  -538.827999027     A.U. after   29 cycles
 SCF Done:  E(UB3LYP) =  -538.829956809     A.U. after   31 cycles
 SCF Done:  E(UB3LYP) =  -538.831227267     A.U. after   29 cycles
 SCF Done:  E(UB3LYP) =  -538.831730686     A.U. after   28 cycles
 SCF Done:  E(UB3LYP) =  -538.831789674     A.U. after   28 cycles
 SCF Done:  E(UB3LYP) =  -538.831809591     A.U. after   25 cycles
 SCF Done:  E(UB3LYP) =  -538.831813231     A.U. after   25 cycles
 SCF Done:  E(UB3LYP) =  -538.831814517     A.U. after   28 cycles
 SCF Done:  E(UB3LYP) =  -538.831814516     A.U. after   28 cycles
 Optimization completed.
    -- Stationary point found.
 Normal termination of Gaussian 16 at Sun Dec 17 22:07:16 2023.

 ----------------------------------------------------------------------
 #P Geom=AllCheck Guess=TCheck SCRF=Check GenChk UB3LYP/6-311++G(d,p) F
 req
 ----------------------------------------------------------------------

 Structure from the checkpoint file:  "033-an.chk"
 -------
 Reduced
 -------
 Charge = -2 Multiplicity = 1

                          Input orientation:
 ---------------------------------------------------------------------
 Center     Atomic      Atomic             Coordinates (Angstroms)
 Number     Number       Type             X           Y           Z
 ---------------------------------------------------------------------
      1          6           0       -1.785992    1.130540    0.630414
      2          6           0       -1.135871   -0.093685   -0.059342
      3          6           0       -1.683285   -1.365486    0.618043
      4          6           0       -1.577844   -0.130849   -1.545086
      5          6           0        0.402312    0.027155    0.014986
      6          6           0        1.177243   -0.949621    0.652985
      7          6           0        2.608065   -0.922425    0.783226
      8          8           0        3.280956   -1.853599    1.383618
      9          6           0        3.210969    0.236164    0.195755
     10          6           0        2.463238    1.223409   -0.437319
     11          6           0        1.039275    1.189322   -0.581494
     12          8           0        0.394291    2.138495   -1.195686
     13          1           0       -2.880361    1.104208    0.533868
     14          1           0       -1.537598    1.134579    1.698988
     15          1           0       -1.398647    2.044165    0.172957
     16          1           0       -2.776730   -1.397184    0.529265
     17          1           0       -1.431735   -1.397948    1.682934
     18          1           0       -1.283395   -2.273702    0.154095
     19          1           0       -1.161621   -1.017926   -2.036325
     20          1           0       -2.675482   -0.181529   -1.628104
     21          1           0       -1.207170    0.761093   -2.053270
     22          1           0        0.702249   -1.819818    1.096764
     23          1           0        4.296279    0.324605    0.263126
     24          1           0        2.960853    2.090038   -0.874397
 ---------------------------------------------------------------------

 SCF Done:  E(UB3LYP) =  -538.831814516     A.U. after    4 cycles

 Alpha  occ. eigenvalues --  -18.76383 -18.76115  -9.93823  -9.92376  -9.92057
 Alpha  occ. eigenvalues --   -9.91814  -9.91106  -9.91013  -9.88837  -9.87671
 Alpha  occ. eigenvalues --   -9.87569  -9.87247  -0.67478  -0.66858  -0.57210
 Alpha  occ. eigenvalues --   -0.52015  -0.44874  -0.44567  -0.43863  -0.39190
 Alpha  occ. eigenvalues --   -0.33322  -0.29317  -0.26209  -0.20820  -0.19927
 Alpha  occ. eigenvalues --   -0.19604  -0.17448  -0.16507  -0.15509  -0.15271
 Alpha  occ. eigenvalues --   -0.13036  -0.12518  -0.09934  -0.09751  -0.09695
 Alpha  occ. eigenvalues --   -0.08384  -0.08232  -0.06405  -0.05932  -0.04927
 Alpha  occ. eigenvalues --    0.03312   0.03649   0.06226   0.06496   0.14250
 Alpha virt. eigenvalues --    0.15786   0.18266   0.18802   0.19159   0.19871
 Alpha virt. eigenvalues --    0.21036   0.21720   0.21748   0.23006   0.23254
 Alpha virt. eigenvalues --    0.24384   0.25458   0.27003   0.27204   0.28377

  Beta  occ. eigenvalues --  -18.76383 -18.76115  -9.93823  -9.92376  -9.92057
  Beta  occ. eigenvalues --   -9.91814  -9.91106  -9.91013  -9.88837  -9.87671
  Beta  occ. eigenvalues --   -9.87569  -9.87247  -0.67478  -0.66858  -0.57210
  Beta  occ. eigenvalues --   -0.52015  -0.44874  -0.44567  -0.43863  -0.39190
  Beta  occ. eigenvalues --   -0.33322  -0.29317  -0.26209  -0.20820  -0.19927
  Beta  occ. eigenvalues --   -0.19604  -0.17448  -0.16507  -0.15509  -0.15271
  Beta  occ. eigenvalues --   -0.13036  -0.12518  -0.09934  -0.09751  -0.09695
  Beta  occ. eigenvalues --   -0.08384  -0.08232  -0.06405  -0.05932  -0.04927
  Beta  occ. eigenvalues --    0.03312   0.03649   0.06226   0.06496   0.14250
  Beta virt. eigenvalues --    0.15786   0.18266   0.18802   0.19159   0.19871
  Beta virt. eigenvalues --    0.21036   0.21720   0.21748   0.23006   0.23254
  Beta virt. eigenvalues --    0.24384   0.25458   0.27003   0.27204   0.28377

 Mulliken charges and spin densities:
               1          2
     1  C   -0.336131  -0.000000
     2  C   -0.244900  -0.000000
     3  C   -0.109249   0.000000
     4  C   -0.001961  -0.000000
     5  C    1.918439   0.000000
     6  C   -0.112619  -0.000000
     7  C   -0.898850   0.000000
     8  O   -0.552684  -0.000000
     9  C    0.301684  -0.000000
    10  C    0.180115   0.000000
    11  C   -1.273783  -0.000000
    12  O   -0.506404  -0.000000
    13  H   -0.082711   0.000000
    14  H    0.088924  -0.000000
    15  H    0.129501  -0.000000
    16  H   -0.740994   0.000000
    17  H    0.045115   0.000000
    18  H    0.051237   0.000000
    19  H    0.083705  -0.000000
    20  H   -0.435897   0.000000
    21  H    0.235984  -0.000000
    22  H    0.141652  -0.000000
    23  H    0.052920   0.000000
    24  H    0.066906  -0.000000
 Sum of Mulliken charges =  -2.00000   0.00000

 Dipole moment (field-independent basis, Debye):
    X=             -6.9029    Y=              1.2382    Z=             -0.6551  Tot=              7.0436
 Quadrupole moment (field-independent basis, Debye-Ang):
   XX=           -164.9918   YY=           -120.3765   ZZ=           -103.8963
   XY=              8.9488   XZ=            -16.0135   YZ=             16.8406

  Exact polarizability:1288.742 131.950 576.658  41.161-127.232 577.658
 Approx polarizability:5034.943 961.840 677.645 227.785 -51.993 439.817

                      1                      2                      3
                      A                      A                      A
 Frequencies --     71.1007               110.3334               171.1783
 Red. masses --      3.5688                 4.1172                 5.6384
 Frc consts  --      0.0106                 0.0295                 0.0973
 IR Inten    --      1.8159                 2.0207                 2.1563

                      4                      5                      6
                      A                      A                      A
 Frequencies --    206.1104               252.1653               276.9175
 Red. masses --      3.9813                 1.0530                 3.4709
 Frc consts  --      0.0997                 0.0395                 0.1568
 IR Inten    --     11.6515                 0.7563                 2.9583

                      7                      8                      9
                      A                      A                      A
 Frequencies --    291.1095               295.4965               323.3035
 Red. masses --      1.1017                 3.4534                 3.0678
 Frc consts  --      0.0550                 0.1777                 0.1889
 IR Inten    --      6.4059                 9.1599                36.9278

                     10                     11                     12
                      A                      A                      A
 Frequencies --    326.1963               356.4663               399.6743
 Red. masses --      1.0420                 3.8804                 2.6590
 Frc consts  --      0.0653                 0.2905                 0.2503
 IR Inten    --     28.2143                 2.2138                 2.1733

                     13                     14                     15
                      A                      A                      A
 Frequencies --    400.3899               416.9365               453.5479
 Red. masses --      4.0829                 3.4504                 7.7205
 Frc consts  --      0.3856                 0.3534                 0.9357
 IR Inten    --     11.3401                10.3805               904.4068

                     16                     17                     18
                      A                      A                      A
 Frequencies --    491.2431               521.3250               589.3038
 Red. masses --      2.5773                 3.5506                 3.7564
 Frc consts  --      0.3664                 0.5686                 0.7686
 IR Inten    --      4.1831                16.5547                 2.5112

                     19                     20                     21
                      A                      A                      A
 Frequencies --    623.7503               689.2410               735.7765
 Red. masses --      2.6234                 6.2108                 2.2168
 Frc consts  --      0.6014                 1.7384                 0.7071
 IR Inten    --      2.3387                 8.5400                 8.6246

                     22                     23                     24
                      A                      A                      A
 Frequencies --    802.2014               807.0453               808.0752
 Red. masses --      2.4153                 4.6437                 3.5566
 Frc consts  --      0.9158                 1.7820                 1.3683
 IR Inten    --     27.3187                23.7572                13.2221

                     25                     26                     27
                      A                      A                      A
 Frequencies --    846.8844               881.3150               914.8408
 Red. masses --      1.8002                 1.3301                 1.8309
 Frc consts  --      0.7607                 0.6087                 0.9029
 IR Inten    --     42.2834                 4.9484                54.7841

                     28                     29                     30
                      A                      A                      A
 Frequencies --    921.0437               924.5493               955.0336
 Red. masses --      2.6001                 1.9998                 1.2038
 Frc consts  --      1.2996                 1.0072                 0.6469
 IR Inten    --     15.0841               151.3101                 3.5501

                     31                     32                     33
                      A                      A                      A
 Frequencies --   1024.2451              1048.3654              1054.9303
 Red. masses --      1.6671                 1.3871                 2.0050
 Frc consts  --      1.0304                 0.8982                 1.3147
 IR Inten    --    158.8132                17.6806                81.2570

                     34                     35                     36
                      A                      A                      A
 Frequencies --   1094.9361              1186.2487              1206.7071
 Red. masses --      1.4759                 3.4223                 2.2174
 Frc consts  --      1.0425                 2.8374                 1.9024
 IR Inten    --    427.2131               202.3968               393.4499

                     37                     38                     39
                      A                      A                      A
 Frequencies --   1208.5218              1247.2599              1258.5715
 Red. masses --      2.5646                 2.0693                 1.9422
 Frc consts  --      2.2069                 1.8967                 1.8126
 IR Inten    --     43.3195               191.6969                56.2008

                     40                     41                     42
                      A                      A                      A
 Frequencies --   1302.8164              1338.2488              1352.9690
 Red. masses --      2.8470                 3.5063                 1.2156
 Frc consts  --      2.8472                 3.6998                 1.3110
 IR Inten    --    157.5915              1730.3641                27.3011

                     43                     44                     45
                      A                      A                      A
 Frequencies --   1367.4244              1388.8489              1409.8878
 Red. masses --      1.4490                 1.6133                 3.4821
 Frc consts  --      1.5963                 1.8335                 4.0781
 IR Inten    --    404.4973               206.5520                49.8140

                     46                     47                     48
                      A                      A                      A
 Frequencies --   1452.8714              1459.2536              1477.3835
 Red. masses --      3.0418                 1.0490                 2.2705
 Frc consts  --      3.7830                 1.3160                 2.9198
 IR Inten    --    233.1488                42.0925               154.9162

                     49                     50                     51
                      A                      A                      A
 Frequencies --   1483.0507              1490.4851              1491.0065
 Red. masses --      1.0603                 1.3847                 1.0733
 Frc consts  --      1.3741                 1.8124                 1.4058
 IR Inten    --    193.9805               203.6443                43.2452

                     52                     53                     54
                      A                      A                      A
 Frequencies --   1509.0308              1526.2550              1580.0892
 Red. masses --      1.0540                 1.0684                 5.4068
 Frc consts  --      1.4141                 1.4664                 7.9534
 IR Inten    --      4.3461                28.9913              3355.2365

                     55                     56                     57
                      A                      A                      A
 Frequencies --   2944.6105              2968.3389              2988.8747
 Red. masses --      1.0512                 1.0396                 1.0384
 Frc consts  --      5.3704                 5.3967                 5.4653
 IR Inten    --     69.9257               151.8735                76.1233

                     58                     59                     60
                      A                      A                      A
 Frequencies --   3025.3812              3028.7057              3043.3860
 Red. masses --      1.0957                 1.0857                 1.0956
 Frc consts  --      5.9089                 5.8680                 5.9787
 IR Inten    --    125.8126                 6.4454               140.7054

                     61                     62                     63
                      A                      A                      A
 Frequencies --   3063.8315              3069.6070              3080.8302
 Red. masses --      1.1006                 1.0829                 1.0996
 Frc consts  --      6.0872                 6.0120                 6.1495
 IR Inten    --     16.0390                71.2882                12.2203

                     64                     65                     66
                      A                      A                      A
 Frequencies --   3097.0644              3098.5479              3140.9657
 Red. masses --      1.0980                 1.0921                 1.0855
 Frc consts  --      6.2050                 6.1780                 6.3094
 IR Inten    --     41.8613               544.9580                69.6131

 - Thermochemistry -
 -------------------
 Temperature   298.150 Kelvin.  Pressure   1.00000 Atm.
 Atom     1 has atomic number  6 and mass  12.00000

 Molecular mass:   164.08373 amu.
 Principal axes and moments of inertia in atomic units:
                           1         2         3
     Eigenvalues --  1237.018892434.684523273.35883
           X            0.95468   0.28434  -0.08794
           Y           -0.20627   0.84510   0.49321
           Z            0.21455  -0.45272   0.86546
 This molecule is an asymmetric top.
 Rotational symmetry number  1.
 Warning -- assumption of classical behavior for rotation
           may cause significant error
 Rotational temperatures (Kelvin)      0.07002     0.03558     0.02646
 Rotational constants (GHZ):           1.45894     0.74126     0.55134
 Zero-point vibrational energy     504657.3 (Joules/Mol)
                                  120.61598 (Kcal/Mol)
 Warning -- explicit consideration of  18 degrees of freedom as
           vibrations may cause significant error
 Vibrational temperatures:    102.30   158.75   246.29   296.55   362.81
          (Kelvin)            398.42   418.84   425.15   465.16   469.32
                              512.88   575.04   576.07   599.88   652.55
                              706.79   750.07   847.88   897.44   991.66
                             1058.62  1154.19  1161.16  1162.64  1218.48
                             1268.02  1316.25  1325.18  1330.22  1374.08
                             1473.66  1508.36  1517.81  1575.37  1706.75
                             1736.18  1738.79  1794.53  1810.80  1874.46
                             1925.44  1946.62  1967.42  1998.24  2028.51
                             2090.36  2099.54  2125.63  2133.78  2144.48
                             2145.23  2171.16  2195.94  2273.40  4236.64
                             4270.78  4300.32  4352.85  4357.63  4378.75
                             4408.17  4416.48  4432.63  4455.98  4458.12
                             4519.15

 Zero-point correction=                           0.192214 (Hartree/Particle)
 Thermal correction to Energy=                    0.203621
 Thermal correction to Enthalpy=                  0.204565
 Thermal correction to Gibbs Free Energy=         0.156027
 Sum of electronic and zero-point Energies=           -538.639601
 Sum of electronic and thermal Energies=              -538.628194
 Sum of electronic and thermal Enthalpies=            -538.627249
 Sum of electronic and thermal Free Energies=         -538.675788

                     E (Thermal)             CV                S
                      KCal/Mol        Cal/Mol-Kelvin    Cal/Mol-Kelvin
 Total                  127.774             45.628            102.157
 Electronic               0.000              0.000              0.000
 Translational            0.889              2.981             41.194
 Rotational               0.889              2.981             30.667
 Vibrational            125.997             39.666             30.296
 Vibration     1          0.598              1.968              4.123
 Vibration     2          0.606              1.941              3.263
 Vibration     3          0.626              1.878              2.423
 Vibration     4          0.641              1.831              2.078
 Vibration     5          0.664              1.759              1.715
 Vibration     6          0.678              1.716              1.553
 Vibration     7          0.687              1.690              1.468
 Vibration     8          0.690              1.682              1.442
 Vibration     9          0.708              1.629              1.293
 Vibration    10          0.710              1.623              1.279
 Vibration    11          0.732              1.562              1.137
 Vibration    12          0.766              1.471              0.964
 Vibration    13          0.766              1.469              0.961
 Vibration    14          0.780              1.433              0.902
 Vibration    15          0.812              1.353              0.785
 Vibration    16          0.847              1.269              0.680
 Vibration    17          0.876              1.203              0.607
 Vibration    18          0.947              1.055              0.468

 Optimization completed.
    -- Stationary point found.
 Normal termination of Gaussian 16 at Sun Dec 17 22:26:06 2023.
