 Q-Chem 5.4, Q-Chem, Inc., Pleasanton, CA (2021)
 Q-Chem 5.4.0 for Intel X86 EM64T Linux

User input:
--------------------------------------------------------------
$molecule
-2 1
O                  4.8930030000      0.8889110000     -0.7218100000
C                  3.6297890000      0.3090650000     -0.5171080000
C                  3.5204460000     -1.1056140000     -0.4374380000
C                  2.2698340000     -1.6624870000     -0.2201470000
C                  1.1057540000     -0.8848350000     -0.1062110000
C                 -0.1787710000     -1.5554020000      0.1073160000
O                 -0.2358230000     -2.8156600000      0.1945540000
C                 -1.3443610000     -0.6726220000      0.2104090000
C                 -2.6650860000     -1.1820850000      0.4149130000
O                 -2.8900510000     -2.5604600000      0.5196210000
C                 -3.7451860000     -0.3300460000      0.5131530000
C                 -3.6041590000      1.0727750000      0.4121880000
C                 -2.3560190000      1.6685070000      0.2110800000
O                 -2.2106590000      2.9674170000      0.1173830000
C                 -1.1938870000      0.7694760000      0.1074730000
C                  0.0857420000      1.3510220000     -0.1016670000
O                  0.2282130000      2.7150790000     -0.2028770000
C                  1.2263060000      0.5499920000     -0.2080110000
C                  2.5325040000      1.1154160000     -0.3997410000
H                  5.5432700000      0.2629130000     -0.3801880000
H                  4.4000950000     -1.7300050000     -0.5838070000
H                  2.1415110000     -2.7379680000     -0.1483750000
H                 -3.8470890000     -2.6487800000      0.5824470000
H                 -4.7378260000     -0.7576280000      0.6761530000
H                 -4.4712140000      1.7233230000      0.4925270000
H                 -0.7326750000      3.0571080000     -0.0902200000
H                  2.6363400000      2.1925890000     -0.4416180000
$end
$rem
MAX_SCF_CYCLES=200
BASIS  =  6-311++G(d,p)
GUI  =  2
JOB_TYPE  =  SP
METHOD  =  B3LYP
SOLVENT_METHOD = PCM
$end
$pcm
theory = CPCM
$end
$solvent
dielectric 37.219
opticaldielectric 1.43
$end

--------------------------------------------------------------

             Standard Nuclear Orientation (Angstroms)
    I     Atom           X                Y                Z
 ----------------------------------------------------------------
    1      O       4.8930030000     0.8889110000    -0.7218100000
    2      C       3.6297890000     0.3090650000    -0.5171080000
    3      C       3.5204460000    -1.1056140000    -0.4374380000
    4      C       2.2698340000    -1.6624870000    -0.2201470000
    5      C       1.1057540000    -0.8848350000    -0.1062110000
    6      C      -0.1787710000    -1.5554020000     0.1073160000
    7      O      -0.2358230000    -2.8156600000     0.1945540000
    8      C      -1.3443610000    -0.6726220000     0.2104090000
    9      C      -2.6650860000    -1.1820850000     0.4149130000
   10      O      -2.8900510000    -2.5604600000     0.5196210000
   11      C      -3.7451860000    -0.3300460000     0.5131530000
   12      C      -3.6041590000     1.0727750000     0.4121880000
   13      C      -2.3560190000     1.6685070000     0.2110800000
   14      O      -2.2106590000     2.9674170000     0.1173830000
   15      C      -1.1938870000     0.7694760000     0.1074730000
   16      C       0.0857420000     1.3510220000    -0.1016670000
   17      O       0.2282130000     2.7150790000    -0.2028770000
   18      C       1.2263060000     0.5499920000    -0.2080110000
   19      C       2.5325040000     1.1154160000    -0.3997410000
   20      H       5.5432700000     0.2629130000    -0.3801880000
   21      H       4.4000950000    -1.7300050000    -0.5838070000
   22      H       2.1415110000    -2.7379680000    -0.1483750000
   23      H      -3.8470890000    -2.6487800000     0.5824470000
   24      H      -4.7378260000    -0.7576280000     0.6761530000
   25      H      -4.4712140000     1.7233230000     0.4925270000
   26      H      -0.7326750000     3.0571080000    -0.0902200000
   27      H       2.6363400000     2.1925890000    -0.4416180000
 ----------------------------------------------------------------

    9    -914.9587824728      3.95e-06  Convergence criterion met
 Total energy in the final basis set =     -914.9587824728

                    Orbital Energies (a.u.)
 --------------------------------------------------------------

 Alpha MOs
 -- Occupied --
-19.1407 -19.1246 -19.0913 -19.0459 -19.0342 -10.2181 -10.1997 -10.1981
-10.1923 -10.1845 -10.1581 -10.1550 -10.1540 -10.1533 -10.1491 -10.1491
-10.1425 -10.1412 -10.1295  -1.0414  -1.0297  -1.0094  -0.9616  -0.9525
 -0.8375  -0.8097  -0.7611  -0.7366  -0.7121  -0.6971  -0.6510  -0.6137
 -0.6093  -0.5658  -0.5610  -0.5245  -0.5223  -0.4981  -0.4729  -0.4631
 -0.4452  -0.4330  -0.4274  -0.4151  -0.4096  -0.4031  -0.3953  -0.3900
 -0.3728  -0.3712  -0.3682  -0.3629  -0.3551  -0.3496  -0.3348  -0.3326
 -0.3249  -0.3182  -0.3030  -0.2714  -0.2492  -0.2318  -0.2248  -0.2144
 -0.2039  -0.1777  -0.1181

          Ground-State Mulliken Net Atomic Charges

     Atom                 Charge (a.u.)
  ----------------------------------------
      1 O                    -0.342747
      2 C                    -0.610841
      3 C                    -0.019928
      4 C                    -0.109392
      5 C                    -0.267587
      6 C                    -0.241976
      7 O                    -0.606554
      8 C                     0.388755
      9 C                    -0.356954
     10 O                    -0.317113
     11 C                    -0.231070
     12 C                    -0.199803
     13 C                    -0.531599
     14 O                    -0.685676
     15 C                     0.757102
     16 C                    -0.072358
     17 O                    -0.543547
     18 C                     0.576850
     19 C                    -0.449630
     20 H                     0.305267
     21 H                     0.201590
     22 H                     0.155416
     23 H                     0.296956
     24 H                     0.159433
     25 H                     0.156974
     26 H                     0.418070
     27 H                     0.170361
  ----------------------------------------
  Sum of atomic charges =    -2.000000

                    Cartesian Multipole Moments
 -----------------------------------------------------------------
    Charge (ESU x 10^10)
                -9.6064
    Dipole Moment (Debye)
         X       5.7107      Y      -3.8937      Z       0.1520
       Tot       6.9134
    Quadrupole Moments (Debye-Ang)
        XX    -132.4763     XY       6.4578     YY    -181.6474
        XZ       6.0292     YZ       3.4423     ZZ    -122.5540

 Total job time:  53.14s(wall), 356.64s(cpu)
        *  Thank you very much for using Q-Chem.  Have a nice day.  *
