 Q-Chem 5.4, Q-Chem, Inc., Pleasanton, CA (2021)
 Q-Chem 5.4.0 for Intel X86 EM64T Linux

User input:
--------------------------------------------------------------
$molecule
-2 1
Br                 3.7430310000     -2.1820720000      0.6164710000
C                  2.2231580000     -0.9389230000      0.2604640000
C                  0.9521700000     -1.5252340000      0.3184000000
C                 -0.1585420000     -0.7096890000      0.0785140000
C                 -1.4996800000     -1.1929520000      0.1098700000
C                 -2.5844990000     -0.3764520000     -0.1288360000
C                 -2.3744370000      1.0077530000     -0.4199150000
C                 -1.0862870000      1.5050460000     -0.4572710000
C                  0.0588430000      0.7014510000     -0.2181150000
C                  1.3807680000      1.2996860000     -0.2758300000
O                  1.5488770000      2.5286340000     -0.5356640000
C                  2.5771410000      0.4149400000     -0.0162220000
O                  3.7583090000      0.8673870000     -0.0501310000
H                  0.8330540000     -2.5794170000      0.5423900000
H                 -1.6554130000     -2.2493040000      0.3322960000
H                 -3.5941530000     -0.7835870000     -0.0957370000
H                 -3.2250780000      1.6603620000     -0.6097670000
H                 -0.8972630000      2.5523700000     -0.6758190000
$end
$rem
MAX_SCF_CYCLES=200
BASIS  =  6-311++G(d,p)
GUI  =  2
JOB_TYPE  =  SP
METHOD  =  B3LYP
SOLVENT_METHOD = COSMO
$end
$solvent
dielectric 37.219
opticaldielectric 1.43
$end

--------------------------------------------------------------

             Standard Nuclear Orientation (Angstroms)
    I     Atom           X                Y                Z
 ----------------------------------------------------------------
    1      Br      2.9078353457    -0.6340154395     0.0000132730
    2      C       0.9783086050    -0.1249958830     0.0000799096
    3      C       0.0816501554    -1.2013467967     0.0000607810
    4      C      -1.2874609957    -0.9152091677     0.0000582594
    5      C      -2.2933365362    -1.9258484850    -0.0001103724
    6      C      -3.6393411426    -1.6279279172    -0.0001554885
    7      C      -4.0587435120    -0.2608221631    -0.0000153407
    8      C      -3.1072140594     0.7404859279     0.0001545473
    9      C      -1.7120928718     0.4798710683     0.0001377722
   10      C      -0.7743946877     1.5886649882     0.0001681844
   11      O      -1.1635253506     2.7947598409    -0.0000837262
   12      C       0.7030635075     1.2746627404     0.0000169019
   13      O       1.5770706703     2.1896093845    -0.0002478715
   14      H       0.4382052913    -2.2253245165     0.0000019956
   15      H      -1.9691073806    -2.9672327034    -0.0001814525
   16      H      -4.3774954945    -2.4287923202    -0.0002671253
   17      H      -5.1196365533    -0.0157949105    -0.0000211247
   18      H      -3.3971962929     1.7875251578     0.0002850095
 ----------------------------------------------------------------

   12   -3108.7834981014      4.92e-06  Convergence criterion met
 Total energy in the final basis set =    -3108.7834981014
    6   -3109.0725222829      6.14e-06  Convergence criterion met
 Total energy in the final basis set =    -3109.0725222829

                    Orbital Energies (a.u.)
 --------------------------------------------------------------

 Alpha MOs
 -- Occupied --
******** -62.4562 -56.2762 -56.2730 -56.2729 -19.0368 -19.0341 -10.1886
-10.1879 -10.1868 -10.1551 -10.1544 -10.1524 -10.1500 -10.1487 -10.1413
-10.1404  -8.6647  -6.4947  -6.4842  -6.4836  -2.6059  -2.6028  -2.6026
 -2.5941  -2.5941  -0.9710  -0.9433  -0.8366  -0.7946  -0.7508  -0.7311
 -0.6844  -0.6590  -0.5823  -0.5698  -0.5416  -0.4853  -0.4651  -0.4537
 -0.4177  -0.4064  -0.3914  -0.3867  -0.3856  -0.3741  -0.3527  -0.3424
 -0.3288  -0.3198  -0.3096  -0.2865  -0.2724  -0.2705  -0.2357  -0.2264
 -0.1989  -0.1957  -0.1281

          Ground-State Mulliken Net Atomic Charges

     Atom                 Charge (a.u.)
  ----------------------------------------
      1 Br                   -0.310884
      2 C                     0.867952
      3 C                    -0.434370
      4 C                    -0.459268
      5 C                    -0.172554
      6 C                    -0.436164
      7 C                    -0.411703
      8 C                     0.098169
      9 C                     0.689906
     10 C                    -0.405484
     11 O                    -0.666449
     12 C                    -0.536635
     13 O                    -0.660259
     14 H                     0.172061
     15 H                     0.151042
     16 H                     0.182867
     17 H                     0.181537
     18 H                     0.150237
  ----------------------------------------
  Sum of atomic charges =    -2.000000

                    Cartesian Multipole Moments
 -----------------------------------------------------------------
    Charge (ESU x 10^10)
                -9.6064
    Dipole Moment (Debye)
         X      -1.7085      Y     -14.5855      Z       0.0025
       Tot      14.6852
    Quadrupole Moments (Debye-Ang)
        XX    -128.7919     XY      -1.7474     YY    -138.9905
        XZ      -0.0071     YZ       0.0059     ZZ     -98.9117

 Total job time:  38.13s(wall), 275.85s(cpu)
        *  Thank you very much for using Q-Chem.  Have a nice day.  *
