 Q-Chem 5.4, Q-Chem, Inc., Pleasanton, CA (2021)
 Q-Chem 5.4.0 for Intel X86 EM64T Linux

User input:
--------------------------------------------------------------
$molecule
-2 1
C                  2.1478390000      3.7327650000      5.6239300000
C                  3.0231830000      3.0840190000      4.7174550000
C                  2.5825430000      2.2632890000      3.6757730000
C                  1.1965710000      1.9949730000      3.4287620000
C                  0.3256120000      2.6524780000      4.3580660000
C                  0.7535510000      3.4770430000      5.4136250000
O                  2.5903910000      4.5282320000      6.5963000000
O                  0.7749470000      1.2335100000      2.4623830000
C                 -0.2463960000      4.2226390000      6.2996980000
C                 -1.5806180000      3.5006820000      6.5250350000
O                  0.2922230000      4.5224210000      7.5853870000
H                  4.0908730000      3.2589500000      4.8601360000
H                  3.3068650000      1.7949630000      3.0071750000
H                 -0.7372660000      2.4726700000      4.2073130000
H                 -0.4933460000      5.1851210000      5.7931270000
H                 -2.1353790000      3.3633090000      5.5923120000
H                 -2.1934410000      4.0965240000      7.2128730000
H                 -1.4032800000      2.5182910000      6.9753660000
H                  1.2968880000      4.6233090000      7.3842940000
$end
$rem
MAX_SCF_CYCLES=200
BASIS  =  6-311++G(d,p)
GUI  =  2
JOB_TYPE  =  SP
METHOD  =  B3LYP
SOLVENT_METHOD = COSMO
$end
$solvent
dielectric 37.219
opticaldielectric 1.43
$end

--------------------------------------------------------------

             Standard Nuclear Orientation (Angstroms)
    I     Atom           X                Y                Z
 ----------------------------------------------------------------
    1      C       0.1442463680    -1.2992248158    -0.0318798981
    2      C      -1.2093425341    -1.7031197444     0.0841433205
    3      C      -2.2815397778    -0.8069835260     0.0981318953
    4      C      -2.1111809080     0.6127195568     0.0014504241
    5      C      -0.7368150707     1.0046568155    -0.1080578394
    6      C       0.3528001627     0.1159119721    -0.1187944973
    7      O       1.1485448994    -2.1735372485    -0.0648293670
    8      O      -3.1012777048     1.4559625759     0.0128790297
    9      C       1.7836841653     0.6102216841    -0.3405187381
   10      C       2.0801554751     2.0117125883     0.2072723048
   11      O       2.7518979259    -0.2739910373     0.2195757687
   12      H      -1.3939574991    -2.7762052210     0.1571195715
   13      H      -3.3031629031    -1.1807324681     0.1852686027
   14      H      -0.5627288689     2.0766295572    -0.1811020875
   15      H       1.9556520410     0.6619392135    -1.4413013814
   16      H       1.4769170911     2.7804398986    -0.2844238183
   17      H       3.1406047603     2.2391639169     0.0417004495
   18      H       1.8790174197     2.0433169113     1.2833222582
   19      H       2.2822897126    -1.1873933125     0.1479311250
 ----------------------------------------------------------------

   12    -535.4502809985      6.21e-06  Convergence criterion met
 Total energy in the final basis set =     -535.4502809985
    6    -535.7496647933      3.75e-06  Convergence criterion met
 Total energy in the final basis set =     -535.7496647933

                    Orbital Energies (a.u.)
 --------------------------------------------------------------

 Alpha MOs
 -- Occupied --
-19.0772 -19.0362 -19.0246 -10.2011 -10.1765 -10.1761 -10.1424 -10.1393
-10.1306 -10.1273 -10.1263  -0.9874  -0.9351  -0.9325  -0.7899  -0.7370
 -0.6921  -0.6572  -0.5969  -0.5533  -0.5315  -0.4662  -0.4476  -0.4370
 -0.4313  -0.3983  -0.3743  -0.3687  -0.3640  -0.3616  -0.3501  -0.3432
 -0.3221  -0.3196  -0.3132  -0.2533  -0.2335  -0.2175  -0.2114  -0.2035
 -0.1329

          Ground-State Mulliken Net Atomic Charges

     Atom                 Charge (a.u.)
  ----------------------------------------
      1 C                    -0.644738
      2 C                     0.026351
      3 C                    -0.091094
      4 C                    -0.266080
      5 C                    -1.178695
      6 C                     1.359323
      7 O                    -0.738333
      8 O                    -0.783349
      9 C                    -0.087445
     10 C                    -0.510248
     11 O                    -0.454627
     12 H                     0.158933
     13 H                     0.153869
     14 H                     0.108991
     15 H                     0.151251
     16 H                     0.149630
     17 H                     0.151162
     18 H                     0.150902
     19 H                     0.344197
  ----------------------------------------
  Sum of atomic charges =    -2.000000

                    Cartesian Multipole Moments
 -----------------------------------------------------------------
    Charge (ESU x 10^10)
                -9.6064
    Dipole Moment (Debye)
         X       5.6462      Y       2.1883      Z      -0.8077
       Tot       6.1091
    Quadrupole Moments (Debye-Ang)
        XX    -134.1492     XY      27.5377     YY     -97.8784
        XZ      -2.2343     YZ      -1.2303     ZZ     -75.0071

 Total job time:  24.63s(wall), 178.90s(cpu)
        *  Thank you very much for using Q-Chem.  Have a nice day.  *
