 Gaussian 16, Revision A.03,
 Gaussian 16:  ES64L-G16RevA.03 25-Dec-2016

 --------------------------------------
 #P UB3LYP/6-311++G(d,p) nosym opt freq
 --------------------------------------

 --------
 Oxidized
 --------
 Symbolic Z-matrix:
 Charge =  0 Multiplicity = 1

 SCF Done:  E(UB3LYP) =  -727.214770421     A.U. after   16 cycles
 SCF Done:  E(UB3LYP) =  -727.224942725     A.U. after   13 cycles
 SCF Done:  E(UB3LYP) =  -727.225897344     A.U. after   13 cycles
 SCF Done:  E(UB3LYP) =  -727.225990592     A.U. after   11 cycles
 SCF Done:  E(UB3LYP) =  -727.225996260     A.U. after   10 cycles
 SCF Done:  E(UB3LYP) =  -727.225996858     A.U. after    9 cycles
 Optimization completed.
    -- Stationary point found.
 Normal termination of Gaussian 16 at Sat Jan  6 01:50:44 2024.

 ----------------------------------------------------------------------
 #P Geom=AllCheck Guess=TCheck SCRF=Check GenChk UB3LYP/6-311++G(d,p) F
 req
 ----------------------------------------------------------------------

 Structure from the checkpoint file:  "322.chk"
 --------
 Oxidized
 --------
 Charge =  0 Multiplicity = 1

                          Input orientation:
 ---------------------------------------------------------------------
 Center     Atomic      Atomic             Coordinates (Angstroms)
 Number     Number       Type             X           Y           Z
 ---------------------------------------------------------------------
      1          6           0       -1.665818    2.868566   -0.704879
      2          6           0       -2.853872    2.221248   -0.380593
      3          6           0       -2.823856    0.888565    0.027367
      4          6           0       -0.447387    2.192765   -0.624222
      5          6           0       -0.414850    0.845051   -0.211972
      6          6           0       -1.613791    0.203168    0.111833
      7          6           0        0.809021    2.912183   -0.977715
      8          6           0        2.141134    2.115251   -0.871855
      9          6           0        2.061699    0.730421   -0.436686
     10          6           0        0.878553    0.136710   -0.129291
     11          8           0        0.821986    4.067531   -1.335078
     12          8           0        3.189087    2.664985   -1.151032
     13          8           0        0.748499   -1.139554    0.278006
     14          6           0        1.917662   -1.954657    0.406239
     15          6           0        1.548351   -3.329252    0.869686
     16          6           0        0.325346   -3.773837    1.136177
     17          1           0       -1.657534    3.903481   -1.024948
     18          1           0       -3.797082    2.751089   -0.445110
     19          1           0       -3.745641    0.377825    0.281609
     20          1           0       -1.594675   -0.830112    0.428571
     21          1           0        3.005193    0.206505   -0.374243
     22          1           0        2.608371   -1.488186    1.120262
     23          1           0        2.430647   -2.007792   -0.562541
     24          1           0        2.404892   -3.989856    0.983178
     25          1           0       -0.547216   -3.141504    1.033093
     26          1           0        0.165174   -4.792622    1.467653
 ---------------------------------------------------------------------

 SCF Done:  E(UB3LYP) =  -727.225996858     A.U. after    1 cycles

 Alpha  occ. eigenvalues --  -19.19915 -19.13456 -19.12002 -10.28668 -10.27602
 Alpha  occ. eigenvalues --  -10.26793 -10.26476 -10.22424 -10.21173 -10.20839
 Alpha  occ. eigenvalues --  -10.20657 -10.20503 -10.20456 -10.20447 -10.19241
 Alpha  occ. eigenvalues --  -10.18789  -1.11789  -1.07339  -1.04314  -0.90139
 Alpha  occ. eigenvalues --   -0.84667  -0.81701  -0.78792  -0.77192  -0.73781
 Alpha  occ. eigenvalues --   -0.69479  -0.65555  -0.63152  -0.62019  -0.57872
 Alpha  occ. eigenvalues --   -0.56441  -0.54755  -0.53173  -0.51574  -0.50024
 Alpha  occ. eigenvalues --   -0.48250  -0.47874  -0.46346  -0.45966  -0.45296
 Alpha  occ. eigenvalues --   -0.44828  -0.44102  -0.43058  -0.41122  -0.39860
 Alpha  occ. eigenvalues --   -0.39668  -0.38645  -0.37587  -0.37377  -0.37139
 Alpha  occ. eigenvalues --   -0.30506  -0.30087  -0.29023  -0.28555  -0.25829
 Alpha  occ. eigenvalues --   -0.25188
 Alpha virt. eigenvalues --   -0.12100  -0.06080  -0.02709  -0.02077  -0.01901
 Alpha virt. eigenvalues --   -0.01230   0.00019   0.00817   0.01278   0.01532
 Alpha virt. eigenvalues --    0.02009   0.02880   0.03456   0.03744   0.04740

  Beta  occ. eigenvalues --  -19.19915 -19.13456 -19.12002 -10.28668 -10.27602
  Beta  occ. eigenvalues --  -10.26793 -10.26476 -10.22424 -10.21173 -10.20839
  Beta  occ. eigenvalues --  -10.20657 -10.20503 -10.20456 -10.20447 -10.19241
  Beta  occ. eigenvalues --  -10.18789  -1.11789  -1.07339  -1.04314  -0.90139
  Beta  occ. eigenvalues --   -0.84667  -0.81701  -0.78792  -0.77192  -0.73781
  Beta  occ. eigenvalues --   -0.69479  -0.65555  -0.63152  -0.62019  -0.57872
  Beta  occ. eigenvalues --   -0.56441  -0.54755  -0.53173  -0.51574  -0.50024
  Beta  occ. eigenvalues --   -0.48250  -0.47874  -0.46346  -0.45966  -0.45296
  Beta  occ. eigenvalues --   -0.44828  -0.44102  -0.43058  -0.41122  -0.39860
  Beta  occ. eigenvalues --   -0.39668  -0.38645  -0.37587  -0.37377  -0.37139
  Beta  occ. eigenvalues --   -0.30506  -0.30087  -0.29023  -0.28555  -0.25829
  Beta  occ. eigenvalues --   -0.25188
  Beta virt. eigenvalues --   -0.12100  -0.06080  -0.02709  -0.02077  -0.01901
  Beta virt. eigenvalues --   -0.01230   0.00019   0.00817   0.01278   0.01532
  Beta virt. eigenvalues --    0.02009   0.02880   0.03456   0.03744   0.04740

 Mulliken charges and spin densities:
               1          2
     1  C    0.115694  -0.000000
     2  C   -0.403500   0.000000
     3  C   -0.213002   0.000000
     4  C    0.416252   0.000000
     5  C    0.306752  -0.000000
     6  C   -0.134582  -0.000000
     7  C   -0.487038  -0.000000
     8  C   -0.191489  -0.000000
     9  C    0.184302   0.000000
    10  C   -0.015513   0.000000
    11  O   -0.198693   0.000000
    12  O   -0.240157  -0.000000
    13  O   -0.068164  -0.000000
    14  C    0.105045   0.000000
    15  C   -0.312851  -0.000000
    16  C   -0.551673  -0.000000
    17  H    0.192181  -0.000000
    18  H    0.173955   0.000000
    19  H    0.193703  -0.000000
    20  H    0.083199   0.000000
    21  H    0.227525   0.000000
    22  H    0.172557  -0.000000
    23  H    0.172720  -0.000000
    24  H    0.202999   0.000000
    25  H    0.110412  -0.000000
    26  H    0.159365   0.000000
 Sum of Mulliken charges =  -0.00000   0.00000

 Dipole moment (field-independent basis, Debye):
    X=             -3.4289    Y=             -5.7517    Z=              2.1318  Tot=              7.0274
 Quadrupole moment (field-independent basis, Debye-Ang):
   XX=            -90.5289   YY=           -105.9910   ZZ=            -97.6648
   XY=            -21.3540   XZ=              6.0561   YZ=              5.4884

  Exact polarizability: 207.145   8.846 189.817 -15.547 -33.243  96.933
 Approx polarizability: 346.611  43.710 290.144 -35.849 -52.866 153.661

                      1                      2                      3
                      A                      A                      A
 Frequencies --     28.2287                47.5286                72.8499
 Red. masses --      5.1023                 5.3428                 3.3596
 Frc consts  --      0.0024                 0.0071                 0.0105
 IR Inten    --      0.7894                 0.4263                 0.9028

                      4                      5                      6
                      A                      A                      A
 Frequencies --     97.6200               118.2314               171.8954
 Red. masses --      4.3001                 4.2066                 2.7753
 Frc consts  --      0.0241                 0.0346                 0.0483
 IR Inten    --      1.5515                 1.4594                 0.1055

                      7                      8                      9
                      A                      A                      A
 Frequencies --    178.9286               214.2721               215.0365
 Red. masses --      4.5014                 4.4668                 3.1776
 Frc consts  --      0.0849                 0.1208                 0.0866
 IR Inten    --      5.3930                 2.4184                 1.6504

                     10                     11                     12
                      A                      A                      A
 Frequencies --    262.0534               356.7595               361.6867
 Red. masses --      5.4499                 6.5293                14.3169
 Frc consts  --      0.2205                 0.4896                 1.1035
 IR Inten    --      1.9257                 1.0173                 4.1181

                     13                     14                     15
                      A                      A                      A
 Frequencies --    402.3605               404.8501               455.9346
 Red. masses --      8.1121                 3.7235                 4.5721
 Frc consts  --      0.7738                 0.3596                 0.5600
 IR Inten    --      2.9735                 0.4776                 4.1024

                     16                     17                     18
                      A                      A                      A
 Frequencies --    459.3235               512.5806               515.9665
 Red. masses --      8.3117                 4.7178                 4.3122
 Frc consts  --      1.0332                 0.7303                 0.6764
 IR Inten    --      0.7636                 3.7009                 7.3154

                     19                     20                     21
                      A                      A                      A
 Frequencies --    574.3943               605.3012               647.7673
 Red. masses --      1.2649                 5.7363                 3.5537
 Frc consts  --      0.2459                 1.2383                 0.8786
 IR Inten    --     17.8816                 2.8042                 2.2001

                     22                     23                     24
                      A                      A                      A
 Frequencies --    669.3659               696.5562               719.7658
 Red. masses --      4.5622                 6.5304                 6.7848
 Frc consts  --      1.2043                 1.8668                 2.0709
 IR Inten    --      0.9198                 5.1915                 3.8555

                     25                     26                     27
                      A                      A                      A
 Frequencies --    736.2388               784.5087               809.8364
 Red. masses --      2.9519                 1.7954                 2.1202
 Frc consts  --      0.9427                 0.6510                 0.8193
 IR Inten    --     19.7244                40.6151                 0.4317

                     28                     29                     30
                      A                      A                      A
 Frequencies --    842.0233               850.8182               906.8620
 Red. masses --      4.2279                 2.1722                 1.3969
 Frc consts  --      1.7661                 0.9265                 0.6769
 IR Inten    --     11.0705                27.5068                 0.3152

                     31                     32                     33
                      A                      A                      A
 Frequencies --    938.9121               955.5359               969.0110
 Red. masses --      3.1953                 1.3180                 5.4792
 Frc consts  --      1.6597                 0.7090                 3.0313
 IR Inten    --      1.5012                47.1529                17.8269

                     34                     35                     36
                      A                      A                      A
 Frequencies --    989.0976               992.6114              1014.2968
 Red. masses --      2.5359                 1.3822                 1.3122
 Frc consts  --      1.4617                 0.8024                 0.7954
 IR Inten    --     51.1274                 1.9042                 0.7359

                     37                     38                     39
                      A                      A                      A
 Frequencies --   1017.0726              1039.8856              1061.4744
 Red. masses --      1.1169                 1.6343                 2.1364
 Frc consts  --      0.6807                 1.0413                 1.4182
 IR Inten    --      5.5690                12.9492                 1.3731

                     40                     41                     42
                      A                      A                      A
 Frequencies --   1101.5123              1125.0985              1165.7219
 Red. masses --      2.3764                 2.1564                 2.1838
 Frc consts  --      1.6989                 1.6083                 1.7485
 IR Inten    --     28.2104                35.5199                46.6280

                     43                     44                     45
                      A                      A                      A
 Frequencies --   1187.9650              1220.1118              1256.7865
 Red. masses --      1.1839                 2.3041                 2.4120
 Frc consts  --      0.9844                 2.0209                 2.2446
 IR Inten    --     10.1502                80.9670               146.8697

                     46                     47                     48
                      A                      A                      A
 Frequencies --   1262.4712              1269.8833              1306.4722
 Red. masses --      5.1860                 1.0663                 2.1281
 Frc consts  --      4.8700                 1.0131                 2.1401
 IR Inten    --    162.7466                 0.2454                64.0219

                     49                     50                     51
                      A                      A                      A
 Frequencies --   1323.1898              1348.7447              1374.0808
 Red. masses --      1.2682                 6.8541                 2.0630
 Frc consts  --      1.3082                 7.3462                 2.2949
 IR Inten    --      3.1894                 6.0120               218.7064

                     52                     53                     54
                      A                      A                      A
 Frequencies --   1422.7884              1448.2657              1478.3942
 Red. masses --      1.5702                 1.2446                 2.2597
 Frc consts  --      1.8727                 1.5381                 2.9099
 IR Inten    --     15.5666                 8.1971                21.2555

                     55                     56                     57
                      A                      A                      A
 Frequencies --   1495.7182              1514.0284              1599.7679
 Red. masses --      1.1066                 2.7076                 6.4413
 Frc consts  --      1.4586                 3.6567                 9.7127
 IR Inten    --     23.3360                 2.8892               129.2283

                     58                     59                     60
                      A                      A                      A
 Frequencies --   1630.1912              1641.2956              1714.5626
 Red. masses --      5.9321                 7.2761                 4.8535
 Frc consts  --      9.2882                11.5485                 8.4064
 IR Inten    --     80.0765               143.3714                 2.4332

                     61                     62                     63
                      A                      A                      A
 Frequencies --   1727.5884              1771.2438              2997.9597
 Red. masses --     12.3314                12.8208                 1.0556
 Frc consts  --     21.6843                23.6985                 5.5901
 IR Inten    --    393.8852                69.6005                13.1088

                     64                     65                     66
                      A                      A                      A
 Frequencies --   3029.6254              3138.7820              3153.7715
 Red. masses --      1.1058                 1.0792                 1.0701
 Frc consts  --      5.9802                 6.2642                 6.2707
 IR Inten    --     14.1999                 9.8708                 5.3175

                     67                     68                     69
                      A                      A                      A
 Frequencies --   3172.3502              3186.5506              3199.0360
 Red. masses --      1.0871                 1.0920                 1.0946
 Frc consts  --      6.4458                 6.5329                 6.6002
 IR Inten    --      2.6145                 8.3676                 6.2869

                     70                     71                     72
                      A                      A                      A
 Frequencies --   3213.2313              3219.1102              3236.9907
 Red. masses --      1.0905                 1.0922                 1.1159
 Frc consts  --      6.6341                 6.6686                 6.8892
 IR Inten    --      3.2520                 3.3829                 8.9926

 - Thermochemistry -
 -------------------
 Temperature   298.150 Kelvin.  Pressure   1.00000 Atm.
 Atom     1 has atomic number  6 and mass  12.00000

 Molecular mass:   214.06299 amu.
 Principal axes and moments of inertia in atomic units:
                           1         2         3
     Eigenvalues --  2390.450674405.011046784.18434
           X           -0.17700   0.97914   0.09975
           Y            0.94557   0.14105   0.29327
           Z           -0.27308  -0.14623   0.95081
 This molecule is an asymmetric top.
 Rotational symmetry number  1.
 Warning -- assumption of classical behavior for rotation
           may cause significant error
 Rotational temperatures (Kelvin)      0.03623     0.01966     0.01277
 Rotational constants (GHZ):           0.75498     0.40970     0.26602
 Zero-point vibrational energy     518166.8 (Joules/Mol)
                                  123.84485 (Kcal/Mol)
 Warning -- explicit consideration of  20 degrees of freedom as
           vibrations may cause significant error
 Vibrational temperatures:     40.61    68.38   104.81   140.45   170.11
          (Kelvin)            247.32   257.44   308.29   309.39   377.04
                              513.30   520.39   578.91   582.49   655.99
                              660.86   737.49   742.36   826.43   870.89
                              931.99   963.07  1002.19  1035.58  1059.28
                             1128.73  1165.17  1211.48  1224.14  1304.77
                             1350.89  1374.80  1394.19  1423.09  1428.15
                             1459.35  1463.34  1496.16  1527.22  1584.83
                             1618.77  1677.21  1709.22  1755.47  1808.24
                             1816.41  1827.08  1879.72  1903.78  1940.54
                             1977.00  2047.08  2083.73  2127.08  2152.00
                             2178.35  2301.71  2345.48  2361.46  2466.87
                             2485.61  2548.42  4313.40  4358.96  4516.01
                             4537.57  4564.30  4584.74  4602.70  4623.12
                             4631.58  4657.31

 Zero-point correction=                           0.197359 (Hartree/Particle)
 Thermal correction to Energy=                    0.210955
 Thermal correction to Enthalpy=                  0.211899
 Thermal correction to Gibbs Free Energy=         0.155662
 Sum of electronic and zero-point Energies=           -727.028638
 Sum of electronic and thermal Energies=              -727.015042
 Sum of electronic and thermal Enthalpies=            -727.014098
 Sum of electronic and thermal Free Energies=         -727.070334

                     E (Thermal)             CV                S
                      KCal/Mol        Cal/Mol-Kelvin    Cal/Mol-Kelvin
 Total                  132.376             51.627            118.361
 Electronic               0.000              0.000              0.000
 Translational            0.889              2.981             41.987
 Rotational               0.889              2.981             32.635
 Vibrational            130.599             45.665             43.739
 Vibration     1          0.593              1.984              5.950
 Vibration     2          0.595              1.979              4.918
 Vibration     3          0.599              1.967              4.075
 Vibration     4          0.603              1.951              3.501
 Vibration     5          0.608              1.934              3.129
 Vibration     6          0.626              1.877              2.415
 Vibration     7          0.629              1.868              2.340
 Vibration     8          0.644              1.819              2.007
 Vibration     9          0.645              1.818              2.000
 Vibration    10          0.669              1.742              1.648
 Vibration    11          0.732              1.561              1.136
 Vibration    12          0.736              1.551              1.115
 Vibration    13          0.768              1.465              0.954
 Vibration    14          0.770              1.460              0.945
 Vibration    15          0.814              1.348              0.778
 Vibration    16          0.817              1.340              0.768
 Vibration    17          0.868              1.222              0.627
 Vibration    18          0.871              1.215              0.619
 Vibration    19          0.931              1.087              0.496
 Vibration    20          0.964              1.021              0.441

 Optimization completed.
    -- Stationary point found.
 Normal termination of Gaussian 16 at Sat Jan  6 02:14:02 2024.
