 Gaussian 16, Revision A.03,
 Gaussian 16:  ES64L-G16RevA.03 25-Dec-2016

 ----------------------------------------------------------------
 #P UB3LYP/6-311++G(d,p) SCRF=(PCM,Solvent=n,n-DiMethylFormamide)
 ----------------------------------------------------------------

 -------
 Reduced
 -------
 Symbolic Z-matrix:
 Charge = -2 Multiplicity = 1

                         Standard orientation:
 ---------------------------------------------------------------------
 Center     Atomic      Atomic             Coordinates (Angstroms)
 Number     Number       Type             X           Y           Z
 ---------------------------------------------------------------------
      1          6           0        4.270039   -0.199235   -0.947389
      2          6           0        4.863061   -1.420173   -0.700525
      3          6           0        4.200798   -2.385271    0.099752
      4          6           0        2.992388    0.130841   -0.416031
      5          6           0        2.317800   -0.853013    0.397682
      6          6           0        2.953099   -2.086753    0.627437
      7          6           0        2.395661    1.400487   -0.682547
      8          6           0        1.117682    1.622707   -0.105851
      9          6           0        0.431880    0.687628    0.698274
     10          6           0        0.994030   -0.607940    0.997097
     11          8           0        2.913328    2.362897   -1.405002
     12          8           0        0.411346   -1.486412    1.700997
     13          8           0        0.609121    2.855908   -0.404593
     14          1           0        4.759056    0.553335   -1.557781
     15          1           0        5.841990   -1.644110   -1.121582
     16          1           0        4.665952   -3.348798    0.295243
     17          1           0        2.415373   -2.801570    1.242653
     18          1           0        1.353851    3.198427   -0.966248
     19         16           0       -1.096749    1.167140    1.473964
     20          6           0       -2.403349    0.380522    0.550434
     21          6           0       -2.180386   -0.530418   -0.491461
     22          6           0       -3.731130    0.680359    0.888585
     23          6           0       -3.252395   -1.106916   -1.165057
     24          6           0       -4.796063    0.093193    0.207538
     25          6           0       -4.582997   -0.813176   -0.836148
     26          6           0       -5.735366   -1.452548   -1.577540
     27          1           0       -1.159850   -0.780844   -0.754494
     28          1           0       -3.930244    1.384882    1.691555
     29          1           0       -3.046888   -1.811915   -1.968044
     30          1           0       -5.814857    0.350138    0.491550
     31          1           0       -6.700143   -1.080448   -1.218588
     32          1           0       -5.743855   -2.543349   -1.459047
     33          1           0       -5.691271   -1.250898   -2.655366
 ---------------------------------------------------------------------

 SCF Done:  E(UB3LYP) =  -1279.42476218     A.U. after   18 cycles

 The electronic state is 1-A.
 Alpha  occ. eigenvalues --  -88.83270 -19.11445 -19.02811 -19.02692 -10.19529
 Alpha  occ. eigenvalues --  -10.18928 -10.18671 -10.17592 -10.16983 -10.16917
 Alpha  occ. eigenvalues --  -10.16802 -10.16589 -10.16399 -10.16266 -10.15468
 Alpha  occ. eigenvalues --  -10.15342 -10.14894 -10.14749 -10.14701 -10.14400
 Alpha  occ. eigenvalues --  -10.13995  -7.91849  -5.88247  -5.87831  -5.87284
 Alpha  occ. eigenvalues --   -1.03149  -0.95352  -0.92873  -0.85927  -0.82853
 Alpha  occ. eigenvalues --   -0.79638  -0.76787  -0.74221  -0.73280  -0.72550
 Alpha  occ. eigenvalues --   -0.69456  -0.65924  -0.63454  -0.60531  -0.59061
 Alpha  occ. eigenvalues --   -0.57940  -0.56102  -0.53913  -0.50636  -0.49362
 Alpha  occ. eigenvalues --   -0.47259  -0.46422  -0.45054  -0.44434  -0.42747
 Alpha  occ. eigenvalues --   -0.42436  -0.41591  -0.41566  -0.40404  -0.40114
 Alpha  occ. eigenvalues --   -0.38952  -0.38178  -0.37371  -0.36929  -0.36243
 Alpha  occ. eigenvalues --   -0.35432  -0.35259  -0.34768  -0.33597  -0.33276
 Alpha  occ. eigenvalues --   -0.32251  -0.31194  -0.30034  -0.29858  -0.27438
 Alpha  occ. eigenvalues --   -0.25352  -0.23241  -0.22877  -0.21870  -0.20714
 Alpha  occ. eigenvalues --   -0.20504  -0.19442  -0.11514
 Alpha virt. eigenvalues --   -0.01345  -0.01124  -0.00555  -0.00193   0.00337
 Alpha virt. eigenvalues --    0.00870   0.01177   0.01741   0.01903   0.02761
 Alpha virt. eigenvalues --    0.03407   0.03550   0.04136   0.04476   0.04716

  Beta  occ. eigenvalues --  -88.83270 -19.11445 -19.02811 -19.02692 -10.19529
  Beta  occ. eigenvalues --  -10.18928 -10.18671 -10.17592 -10.16983 -10.16917
  Beta  occ. eigenvalues --  -10.16802 -10.16589 -10.16399 -10.16266 -10.15468
  Beta  occ. eigenvalues --  -10.15342 -10.14894 -10.14749 -10.14701 -10.14400
  Beta  occ. eigenvalues --  -10.13995  -7.91849  -5.88247  -5.87831  -5.87284
  Beta  occ. eigenvalues --   -1.03149  -0.95352  -0.92873  -0.85927  -0.82853
  Beta  occ. eigenvalues --   -0.79638  -0.76787  -0.74221  -0.73280  -0.72550
  Beta  occ. eigenvalues --   -0.69456  -0.65924  -0.63454  -0.60531  -0.59061
  Beta  occ. eigenvalues --   -0.57940  -0.56102  -0.53913  -0.50636  -0.49362
  Beta  occ. eigenvalues --   -0.47259  -0.46422  -0.45054  -0.44434  -0.42747
  Beta  occ. eigenvalues --   -0.42436  -0.41591  -0.41566  -0.40404  -0.40114
  Beta  occ. eigenvalues --   -0.38952  -0.38178  -0.37371  -0.36929  -0.36243
  Beta  occ. eigenvalues --   -0.35432  -0.35259  -0.34768  -0.33597  -0.33276
  Beta  occ. eigenvalues --   -0.32251  -0.31194  -0.30034  -0.29858  -0.27438
  Beta  occ. eigenvalues --   -0.25352  -0.23241  -0.22877  -0.21870  -0.20714
  Beta  occ. eigenvalues --   -0.20504  -0.19442  -0.11514
  Beta virt. eigenvalues --   -0.01345  -0.01124  -0.00555  -0.00193   0.00337
  Beta virt. eigenvalues --    0.00870   0.01177   0.01741   0.01903   0.02761
  Beta virt. eigenvalues --    0.03407   0.03550   0.04136   0.04476   0.04716

 Mulliken charges and spin densities:
               1          2
     1  C   -0.185470   0.000000
     2  C   -0.527888   0.000000
     3  C   -0.527346   0.000000
     4  C    0.281586   0.000000
     5  C   -0.000836  -0.000000
     6  C   -0.058267  -0.000000
     7  C   -0.886047  -0.000000
     8  C   -0.710626  -0.000000
     9  C    2.565641   0.000000
    10  C   -0.874956   0.000000
    11  O   -0.730522  -0.000000
    12  O   -0.567781   0.000000
    13  O   -0.283472   0.000000
    14  H    0.161591   0.000000
    15  H    0.158130  -0.000000
    16  H    0.156249  -0.000000
    17  H    0.163044   0.000000
    18  H    0.279257  -0.000000
    19  S    0.021628   0.000000
    20  C   -0.077405  -0.000000
    21  C   -0.188926   0.000000
    22  C   -0.237927  -0.000000
    23  C   -0.040171   0.000000
    24  C   -1.100226  -0.000000
    25  C    0.502041   0.000000
    26  C   -0.518494   0.000000
    27  H    0.201751   0.000000
    28  H    0.191401  -0.000000
    29  H    0.205815   0.000000
    30  H    0.152020  -0.000000
    31  H    0.157767  -0.000000
    32  H    0.161368  -0.000000
    33  H    0.157071  -0.000000
 Sum of Mulliken charges =  -2.00000   0.00000

 Dipole moment (field-independent basis, Debye):
    X=            -13.6809    Y=             -5.4228    Z=             -2.9464  Tot=             15.0085
 Quadrupole moment (field-independent basis, Debye-Ang):
   XX=           -180.4777   YY=           -173.1727   ZZ=           -158.0470
   XY=            -12.0979   XZ=             13.9673   YZ=             18.6767

 Normal termination of Gaussian 16 at Thu Jan 25 05:51:48 2024.
