 Q-Chem 5.4, Q-Chem, Inc., Pleasanton, CA (2021)
 Q-Chem 5.4.0 for Intel X86 EM64T Linux

User input:
--------------------------------------------------------------
$molecule
-2 1
O                  1.4522290000      2.2760530000     -0.8075100000
C                  0.8083220000      1.1971700000     -0.5047100000
C                 -0.6145630000      1.1723140000     -0.4973490000
C                 -1.4388140000      0.0708140000     -0.1940640000
C                 -0.8082850000     -1.1971970000      0.1835890000
O                 -1.4521660000     -2.2760890000      0.4864280000
C                  0.6145890000     -1.1723280000      0.1762560000
C                  1.4388270000     -0.0708500000     -0.1270920000
C                  2.9013900000     -0.2100880000     -0.0424510000
C                  3.5205640000     -1.3196280000      0.5961380000
C                  4.9016390000     -1.4691050000      0.6571350000
C                  5.7551190000     -0.5152830000      0.0908540000
C                  5.1721830000      0.5958230000     -0.5297550000
C                  3.7908330000      0.7527070000     -0.5945970000
C                 -2.9013890000      0.2100940000     -0.2785550000
C                 -3.5206200000      1.3196320000     -0.9170990000
C                 -4.9017000000      1.4691180000     -0.9779730000
C                 -5.7551410000      0.5153120000     -0.4116110000
C                 -5.1721590000     -0.5958120000      0.2089180000
C                 -3.7908060000     -0.7527090000      0.2736440000
H                 -1.0597190000      2.1327260000     -0.7383980000
H                  1.0597750000     -2.1327070000      0.4173880000
H                  2.9000930000     -2.0714240000      1.0675450000
H                  5.3187950000     -2.3383760000      1.1625800000
H                  6.8350270000     -0.6298440000      0.1421180000
H                  5.8091850000      1.3596620000     -0.9730210000
H                  3.3344960000      1.6252500000     -1.0468900000
H                 -2.9002070000      2.0714180000     -1.3885940000
H                 -5.3188910000      2.3383930000     -1.4833830000
H                 -6.8350530000      0.6298800000     -0.4627880000
H                 -5.8091270000     -1.3596570000      0.6522240000
H                 -3.3344280000     -1.6252700000      0.7258680000
$end
$rem
MAX_SCF_CYCLES=200
BASIS  =  6-311++G(d,p)
GUI  =  2
JOB_TYPE  =  SP
METHOD  =  B3LYP
SOLVENT_METHOD = COSMO
$end
$solvent
dielectric 37.219
opticaldielectric 1.43
$end

--------------------------------------------------------------

             Standard Nuclear Orientation (Angstroms)
    I     Atom           X                Y                Z
 ----------------------------------------------------------------
    1      O      -1.3013031602    -2.4408963549     0.2380379940
    2      C      -0.7287074471    -1.2881820287     0.1210917509
    3      C       0.6895404323    -1.1712866727     0.1345882850
    4      C       1.4408339187     0.0140882883     0.0116327996
    5      C       0.7286799500     1.2881461077    -0.1212351873
    6      O       1.3012478783     2.4408816753    -0.2381489524
    7      C      -0.6895572000     1.1712498948    -0.1347007675
    8      C      -1.4408367577    -0.0141274282    -0.0118117833
    9      C      -2.9108999752     0.0526619046    -0.0020562556
   10      C      -3.6119676283     1.2783608290     0.1665191201
   11      C      -5.0004658817     1.3510052423     0.1514342641
   12      C      -5.7800154716     0.2020875583    -0.0251139763
   13      C      -5.1156419692    -1.0206602535    -0.1768443041
   14      C      -3.7263282450    -1.1015779920    -0.1625407259
   15      C       2.9109062615    -0.0526830640     0.0020321958
   16      C       3.6120291338    -1.2783596645    -0.1665015807
   17      C       5.0005286367    -1.3509661045    -0.1512992876
   18      C       5.7800374021    -0.2020354434     0.0253295936
   19      C       5.1156197594     1.0206961708     0.1769785011
   20      C       3.7263063196     1.1015823822     0.1625624954
   21      H       1.1950395480    -2.1215361775     0.2765608778
   22      H      -1.1950872903     2.1214979710    -0.2765843854
   23      H      -3.0505208760     2.1899549851     0.3283204983
   24      H      -5.4821025083     2.3175549091     0.2890342254
   25      H      -6.8657228732     0.2580779415    -0.0327313293
   26      H      -5.6938895668    -1.9339367050    -0.3082298119
   27      H      -3.2072437041    -2.0487758324    -0.2492078651
   28      H       3.0506427378    -2.1899737491    -0.3283876227
   29      H       5.4821992044    -2.3175041466    -0.2888649143
   30      H       6.8657461850    -0.2579995246     0.0330302551
   31      H       5.6938317203     1.9339909492     0.3083984495
   32      H       3.2071822490     2.0487684574     0.2491584659
 ----------------------------------------------------------------

   11    -843.7956102157      5.36e-06  Convergence criterion met
 Total energy in the final basis set =     -843.7956102157
    6    -844.0632752839      3.43e-06  Convergence criterion met
 Total energy in the final basis set =     -844.0632752839

                    Orbital Energies (a.u.)
 --------------------------------------------------------------

 Alpha MOs
 -- Occupied --
-19.0246 -19.0246 -10.1813 -10.1813 -10.1697 -10.1697 -10.1630 -10.1630
-10.1611 -10.1611 -10.1601 -10.1601 -10.1574 -10.1574 -10.1480 -10.1480
-10.1452 -10.1452 -10.1244 -10.1244  -0.9439  -0.9409  -0.8423  -0.8418
 -0.7911  -0.7622  -0.7310  -0.7307  -0.7281  -0.6857  -0.6526  -0.6131
 -0.5935  -0.5881  -0.5747  -0.5485  -0.5320  -0.5009  -0.4845  -0.4574
 -0.4494  -0.4489  -0.4317  -0.4210  -0.4115  -0.4073  -0.4046  -0.4008
 -0.3847  -0.3722  -0.3661  -0.3646  -0.3611  -0.3474  -0.3353  -0.3313
 -0.3281  -0.3223  -0.3221  -0.3142  -0.2752  -0.2615  -0.2449  -0.2448
 -0.2187  -0.2010  -0.1988  -0.1928  -0.1283

          Ground-State Mulliken Net Atomic Charges

     Atom                 Charge (a.u.)
  ----------------------------------------
      1 O                    -0.699528
      2 C                    -0.658350
      3 C                    -0.892241
      4 C                     1.220603
      5 C                    -0.658847
      6 O                    -0.698815
      7 C                    -0.891427
      8 C                     1.222406
      9 C                     1.179129
     10 C                    -0.480984
     11 C                    -0.500909
     12 C                    -0.428694
     13 C                    -0.520488
     14 C                    -0.211635
     15 C                     1.178512
     16 C                    -0.481713
     17 C                    -0.500192
     18 C                    -0.429333
     19 C                    -0.520549
     20 C                    -0.210526
     21 H                     0.095084
     22 H                     0.094996
     23 H                     0.132332
     24 H                     0.209242
     25 H                     0.176156
     26 H                     0.206180
     27 H                     0.172737
     28 H                     0.132639
     29 H                     0.209263
     30 H                     0.176191
     31 H                     0.206197
     32 H                     0.172545
  ----------------------------------------
  Sum of atomic charges =    -2.000020

                    Cartesian Multipole Moments
 -----------------------------------------------------------------
    Charge (ESU x 10^10)
                -9.6065
    Dipole Moment (Debye)
         X      -0.0018      Y       0.0040      Z       0.0024
       Tot       0.0051
    Quadrupole Moments (Debye-Ang)
        XX    -158.8257     XY     -22.4744     YY    -162.7544
        XZ       2.0972     YZ       6.6122     ZZ    -132.9911

 Total job time:  106.81s(wall), 759.96s(cpu)
        *  Thank you very much for using Q-Chem.  Have a nice day.  *
