 Gaussian 16, Revision A.03,
 Gaussian 16:  ES64L-G16RevA.03 25-Dec-2016

 ----------------------------------------------------------------
 #P UB3LYP/6-311++G(d,p) SCRF=(PCM,Solvent=n,n-DiMethylFormamide)
 ----------------------------------------------------------------

 ------------------
 Radical PCM in DMF
 ------------------
 Symbolic Z-matrix:
 Charge = -1 Multiplicity = 2

                         Standard orientation:
 ---------------------------------------------------------------------
 Center     Atomic      Atomic             Coordinates (Angstroms)
 Number     Number       Type             X           Y           Z
 ---------------------------------------------------------------------
      1         17           0       -1.603890   -1.725120   -0.000008
      2          6           0       -0.688094   -0.225653   -0.000023
      3          6           0        0.687810   -0.224593   -0.000016
      4         17           0        1.605795   -1.723740    0.000028
      5          6           0        1.475016    1.008147   -0.000027
      6          8           0        2.729120    1.021567   -0.000038
      7          6           0        0.681077    2.218761    0.000027
      8          6           0       -0.683133    2.218142    0.000028
      9          6           0       -1.476070    1.007042   -0.000027
     10          8           0       -2.730172    1.019144    0.000008
     11          1           0        1.243046    3.147669    0.000062
     12          1           0       -1.246646    3.146175    0.000061
 ---------------------------------------------------------------------

 SCF Done:  E(UB3LYP) =  -1300.97103896     A.U. after   19 cycles

 The electronic state is 2-A.
 Alpha  occ. eigenvalues -- -101.55679-101.55670 -19.09154 -19.09152 -10.24069
 Alpha  occ. eigenvalues --  -10.24068 -10.23897 -10.23837 -10.17669 -10.17601
 Alpha  occ. eigenvalues --   -9.47128  -9.47118  -7.23575  -7.23565  -7.22654
 Alpha  occ. eigenvalues --   -7.22644  -7.22555  -7.22545  -1.01932  -1.01648
 Alpha  occ. eigenvalues --   -0.89751  -0.84976  -0.81957  -0.73195  -0.69354
 Alpha  occ. eigenvalues --   -0.60278  -0.58391  -0.50242  -0.48317  -0.45828
 Alpha  occ. eigenvalues --   -0.43765  -0.43447  -0.42243  -0.40196  -0.39540
 Alpha  occ. eigenvalues --   -0.38484  -0.36409  -0.33683  -0.32934  -0.30711
 Alpha  occ. eigenvalues --   -0.29156  -0.25950  -0.25579  -0.25574  -0.17565
 Alpha virt. eigenvalues --   -0.02376  -0.01248   0.00471   0.01579   0.02089
 Alpha virt. eigenvalues --    0.03021   0.03095   0.05270   0.05296   0.06133
 Alpha virt. eigenvalues --    0.06782   0.07934   0.08270   0.08619   0.09085

  Beta  occ. eigenvalues -- -101.55674-101.55665 -19.08455 -19.08454 -10.23945
  Beta  occ. eigenvalues --  -10.23944 -10.23765 -10.23705 -10.17569 -10.17500
  Beta  occ. eigenvalues --   -9.47123  -9.47113  -7.23579  -7.23569  -7.22630
  Beta  occ. eigenvalues --   -7.22620  -7.22553  -7.22543  -1.00750  -1.00424
  Beta  occ. eigenvalues --   -0.89469  -0.84850  -0.81478  -0.72954  -0.68303
  Beta  occ. eigenvalues --   -0.59847  -0.57978  -0.50021  -0.47899  -0.45526
  Beta  occ. eigenvalues --   -0.43353  -0.42261  -0.41568  -0.39744  -0.38271
  Beta  occ. eigenvalues --   -0.37052  -0.35306  -0.32977  -0.32865  -0.30675
  Beta  occ. eigenvalues --   -0.26211  -0.25292  -0.24932  -0.24750
  Beta virt. eigenvalues --   -0.10386  -0.01140  -0.00853   0.00506   0.02132
  Beta virt. eigenvalues --    0.03055   0.03171   0.03898   0.05339   0.05437
  Beta virt. eigenvalues --    0.06213   0.06860   0.08044   0.08383   0.08634

 Mulliken charges and spin densities:
               1          2
     1  Cl   0.277913   0.006761
     2  C    0.492028   0.065324
     3  C    0.493124   0.065064
     4  Cl   0.277419   0.006687
     5  C   -1.019938   0.101190
     6  O   -0.432889   0.248526
     7  C   -0.020781   0.084705
     8  C   -0.020408   0.084584
     9  C   -1.017449   0.101239
    10  O   -0.432915   0.248491
    11  H    0.201966  -0.006280
    12  H    0.201930  -0.006290
 Sum of Mulliken charges =  -1.00000   1.00000

 Dipole moment (field-independent basis, Debye):
    X=             -0.0045    Y=             -0.9936    Z=              0.0001  Tot=              0.9936
 Quadrupole moment (field-independent basis, Debye-Ang):
   XX=           -114.2118   YY=            -76.2207   ZZ=            -73.9504
   XY=             -0.0095   XZ=              0.0003   YZ=              0.0002

 Normal termination of Gaussian 16 at Sun Jan 21 07:07:02 2024.
