 Gaussian 16, Revision A.03,
 Gaussian 16:  ES64L-G16RevA.03 25-Dec-2016

 --------------------------------------
 #P UB3LYP/6-311++G(d,p) nosym opt freq
 --------------------------------------

 --------
 Oxidized
 --------
 Symbolic Z-matrix:
 Charge =  0 Multiplicity = 1

 SCF Done:  E(UB3LYP) =  -1529.87450048     A.U. after   18 cycles
 SCF Done:  E(UB3LYP) =  -1529.89724651     A.U. after   15 cycles
 SCF Done:  E(UB3LYP) =  -1529.90091927     A.U. after   16 cycles
 SCF Done:  E(UB3LYP) =  -1529.90172799     A.U. after   16 cycles
 SCF Done:  E(UB3LYP) =  -1529.90263787     A.U. after   15 cycles
 SCF Done:  E(UB3LYP) =  -1529.90323125     A.U. after   16 cycles
 SCF Done:  E(UB3LYP) =  -1529.90367540     A.U. after   15 cycles
 SCF Done:  E(UB3LYP) =  -1529.90425513     A.U. after   15 cycles
 SCF Done:  E(UB3LYP) =  -1529.90505937     A.U. after   15 cycles
 SCF Done:  E(UB3LYP) =  -1529.90577593     A.U. after   15 cycles
 SCF Done:  E(UB3LYP) =  -1529.90676825     A.U. after   13 cycles
 SCF Done:  E(UB3LYP) =  -1529.90677909     A.U. after   13 cycles
 SCF Done:  E(UB3LYP) =  -1529.90678842     A.U. after   13 cycles
 SCF Done:  E(UB3LYP) =  -1529.90679840     A.U. after   13 cycles
 SCF Done:  E(UB3LYP) =  -1529.90680354     A.U. after   13 cycles
 SCF Done:  E(UB3LYP) =  -1529.90680430     A.U. after   11 cycles
 SCF Done:  E(UB3LYP) =  -1529.90680462     A.U. after   11 cycles
 SCF Done:  E(UB3LYP) =  -1529.90680477     A.U. after   11 cycles
 SCF Done:  E(UB3LYP) =  -1529.90680495     A.U. after   11 cycles
 Optimization completed.
    -- Stationary point found.
 Normal termination of Gaussian 16 at Sun Dec 17 21:35:05 2023.

 ----------------------------------------------------------------------
 #P Geom=AllCheck Guess=TCheck SCRF=Check GenChk UB3LYP/6-311++G(d,p) F
 req
 ----------------------------------------------------------------------

 Structure from the checkpoint file:  "022.chk"
 --------
 Oxidized
 --------
 Charge =  0 Multiplicity = 1

                          Input orientation:
 ---------------------------------------------------------------------
 Center     Atomic      Atomic             Coordinates (Angstroms)
 Number     Number       Type             X           Y           Z
 ---------------------------------------------------------------------
      1          6           0       -3.807566    0.027484   -0.050307
      2          8           0       -2.640049    0.862246   -0.230013
      3          6           0       -1.379294    0.448617   -0.183443
      4          6           0       -0.390370    1.380737   -0.145183
      5         17           0       -0.764019    3.073838   -0.138105
      6          6           0        1.032867    1.025154   -0.114246
      7          8           0        1.914795    1.863673   -0.129409
      8          6           0        1.386885   -0.446370   -0.062057
      9          6           0        0.399845   -1.377805   -0.143633
     10         17           0        0.773006   -3.071006   -0.145279
     11          6           0       -1.019773   -1.021095   -0.243991
     12          8           0       -1.894825   -1.856959   -0.373759
     13          8           0        2.646329   -0.861580    0.004514
     14          6           0        3.794736   -0.031366    0.294385
     15          1           0       -3.720785   -0.580939    0.848593
     16          1           0       -4.620394    0.744010    0.051382
     17          1           0       -3.963158   -0.614224   -0.914394
     18          1           0        4.017339    0.629987   -0.539725
     19          1           0        3.636630    0.556246    1.197360
     20          1           0        4.597800   -0.750646    0.443216
 ---------------------------------------------------------------------

 SCF Done:  E(UB3LYP) =  -1529.90680495     A.U. after    2 cycles

 Alpha  occ. eigenvalues -- -101.56809-101.56804 -19.19879 -19.19863 -19.15027
 Alpha  occ. eigenvalues --  -19.15014 -10.30759 -10.30741 -10.29447 -10.29437
 Alpha  occ. eigenvalues --  -10.25896 -10.25886 -10.24509 -10.24505  -9.48244
 Alpha  occ. eigenvalues --   -9.48239  -7.24745  -7.24740  -7.23737  -7.23732
 Alpha  occ. eigenvalues --   -7.23639  -7.23634  -1.12054  -1.11805  -1.08236
 Alpha  occ. eigenvalues --   -1.08150  -0.91114  -0.89363  -0.83523  -0.79554
 Alpha  occ. eigenvalues --   -0.75347  -0.72394  -0.69670  -0.62882  -0.62262
 Alpha  occ. eigenvalues --   -0.58012  -0.56015  -0.54216  -0.51284  -0.50022
 Alpha  occ. eigenvalues --   -0.48866  -0.48109  -0.47433  -0.46421  -0.45719
 Alpha  occ. eigenvalues --   -0.45395  -0.43696  -0.42793  -0.40646  -0.39151
 Alpha  occ. eigenvalues --   -0.38412  -0.38114  -0.35417  -0.35213  -0.32861
 Alpha  occ. eigenvalues --   -0.32410  -0.29818  -0.29698  -0.27875  -0.25119
 Alpha virt. eigenvalues --   -0.14023  -0.02883  -0.02135  -0.01204  -0.00509
 Alpha virt. eigenvalues --    0.00092   0.00529   0.01912   0.02620   0.02662
 Alpha virt. eigenvalues --    0.02987   0.03126   0.03388   0.05121   0.05500

  Beta  occ. eigenvalues -- -101.56809-101.56804 -19.19879 -19.19863 -19.15027
  Beta  occ. eigenvalues --  -19.15014 -10.30759 -10.30741 -10.29447 -10.29437
  Beta  occ. eigenvalues --  -10.25896 -10.25886 -10.24509 -10.24505  -9.48244
  Beta  occ. eigenvalues --   -9.48239  -7.24745  -7.24740  -7.23737  -7.23732
  Beta  occ. eigenvalues --   -7.23639  -7.23634  -1.12054  -1.11805  -1.08236
  Beta  occ. eigenvalues --   -1.08150  -0.91114  -0.89363  -0.83523  -0.79554
  Beta  occ. eigenvalues --   -0.75347  -0.72394  -0.69670  -0.62882  -0.62262
  Beta  occ. eigenvalues --   -0.58012  -0.56015  -0.54216  -0.51284  -0.50022
  Beta  occ. eigenvalues --   -0.48866  -0.48109  -0.47433  -0.46421  -0.45719
  Beta  occ. eigenvalues --   -0.45395  -0.43696  -0.42793  -0.40646  -0.39151
  Beta  occ. eigenvalues --   -0.38412  -0.38114  -0.35417  -0.35213  -0.32861
  Beta  occ. eigenvalues --   -0.32410  -0.29818  -0.29698  -0.27875  -0.25119
  Beta virt. eigenvalues --   -0.14023  -0.02883  -0.02135  -0.01204  -0.00509
  Beta virt. eigenvalues --    0.00092   0.00529   0.01912   0.02620   0.02662
  Beta virt. eigenvalues --    0.02987   0.03126   0.03388   0.05121   0.05500

 Mulliken charges and spin densities:
               1          2
     1  C   -0.252802  -0.000000
     2  O   -0.130855   0.000000
     3  C   -1.374988  -0.000000
     4  C    1.734039   0.000000
     5  Cl   0.322215  -0.000000
     6  C   -0.654984   0.000000
     7  O   -0.194365   0.000000
     8  C   -1.368603   0.000000
     9  C    1.741430  -0.000000
    10  Cl   0.321216  -0.000000
    11  C   -0.650558  -0.000000
    12  O   -0.194161   0.000000
    13  O   -0.132622  -0.000000
    14  C   -0.250505  -0.000000
    15  H    0.176168   0.000000
    16  H    0.170899   0.000000
    17  H    0.195112   0.000000
    18  H    0.194481  -0.000000
    19  H    0.176953   0.000000
    20  H    0.171931  -0.000000
 Sum of Mulliken charges =  -0.00000   0.00000

 Dipole moment (field-independent basis, Debye):
    X=             -0.0321    Y=             -0.0070    Z=              0.9078  Tot=              0.9084
 Quadrupole moment (field-independent basis, Debye-Ang):
   XX=            -76.6669   YY=           -109.0902   ZZ=            -92.2197
   XY=             -2.7414   XZ=              0.5554   YZ=             -0.3827

  Exact polarizability: 186.340  18.433 167.832   5.503   2.147  76.587
 Approx polarizability: 312.297  85.881 280.655  10.737   6.453 117.797

                      1                      2                      3
                      A                      A                      A
 Frequencies --     20.1291                34.3074                57.0856
 Red. masses --      3.4133                 4.1345                10.5025
 Frc consts  --      0.0008                 0.0029                 0.0202
 IR Inten    --     11.6223                 1.7659                 0.0039

                      4                      5                      6
                      A                      A                      A
 Frequencies --     81.5712               102.4625               184.2564
 Red. masses --      6.9115                 6.2109                 8.4313
 Frc consts  --      0.0271                 0.0384                 0.1687
 IR Inten    --      1.5183                 1.9251                 6.6606

                      7                      8                      9
                      A                      A                      A
 Frequencies --    190.3807               198.9580               211.3503
 Red. masses --      7.3484                10.5817                 4.7288
 Frc consts  --      0.1569                 0.2468                 0.1245
 IR Inten    --      0.7808                 1.5455                 5.0550

                     10                     11                     12
                      A                      A                      A
 Frequencies --    229.2096               231.5534               279.5365
 Red. masses --      1.1180                 1.1190                10.8165
 Frc consts  --      0.0346                 0.0354                 0.4980
 IR Inten    --      0.2089                 0.4367                 0.0463

                     13                     14                     15
                      A                      A                      A
 Frequencies --    289.2075               326.6233               357.6680
 Red. masses --      9.5188                 5.5806                11.6499
 Frc consts  --      0.4691                 0.3508                 0.8781
 IR Inten    --      0.5196                 0.1504                 0.0118

                     16                     17                     18
                      A                      A                      A
 Frequencies --    384.1680               416.7318               417.4918
 Red. masses --     14.1689                 4.7503                 6.5002
 Frc consts  --      1.2320                 0.4861                 0.6675
 IR Inten    --      6.6510                17.2752                 0.3914

                     19                     20                     21
                      A                      A                      A
 Frequencies --    491.0279               506.4686               517.2005
 Red. masses --     11.3511                11.2674                12.1812
 Frc consts  --      1.6125                 1.7029                 1.9198
 IR Inten    --      0.1450                 0.0016                 9.4101

                     22                     23                     24
                      A                      A                      A
 Frequencies --    582.4184               743.7854               755.3431
 Red. masses --     11.8967                12.1666                12.1203
 Frc consts  --      2.3776                 3.9657                 4.0743
 IR Inten    --     11.2285                 4.0260                 2.3042

                     25                     26                     27
                      A                      A                      A
 Frequencies --    796.3183               824.9270               866.8237
 Red. masses --      9.5181                 9.0212                11.0688
 Frc consts  --      3.5561                 3.6170                 4.9002
 IR Inten    --      1.1135               214.9144                 0.5032

                     28                     29                     30
                      A                      A                      A
 Frequencies --    915.4840               979.3334              1075.7584
 Red. masses --     10.1629                10.2050                12.2207
 Frc consts  --      5.0185                 5.7666                 8.3325
 IR Inten    --     57.9991                 1.9950               142.8608

                     31                     32                     33
                      A                      A                      A
 Frequencies --   1158.2342              1158.7680              1181.9669
 Red. masses --      1.2480                 1.2480                 1.6482
 Frc consts  --      0.9864                 0.9873                 1.3566
 IR Inten    --      1.2282                 0.1638               115.1128

                     34                     35                     36
                      A                      A                      A
 Frequencies --   1186.2793              1235.8925              1262.3061
 Red. masses --      1.4276                 4.4194                 9.6023
 Frc consts  --      1.1836                 3.9772                 9.0148
 IR Inten    --      0.0490               508.6665                 0.0346

                     37                     38                     39
                      A                      A                      A
 Frequencies --   1311.6436              1359.3902              1479.2608
 Red. masses --      5.5104                 6.5641                 1.1451
 Frc consts  --      5.5855                 7.1469                 1.4763
 IR Inten    --      2.4511               384.1928                53.3811

                     40                     41                     42
                      A                      A                      A
 Frequencies --   1481.5761              1488.5719              1488.8510
 Red. masses --      1.1132                 1.0781                 1.0811
 Frc consts  --      1.4397                 1.4075                 1.4120
 IR Inten    --      1.3624                 2.5280                17.3983

                     43                     44                     45
                      A                      A                      A
 Frequencies --   1490.2351              1490.7685              1602.3483
 Red. masses --      1.1069                 1.1202                 9.2415
 Frc consts  --      1.4484                 1.4668                13.9800
 IR Inten    --     56.4333                 3.0857               657.5806

                     46                     47                     48
                      A                      A                      A
 Frequencies --   1643.1202              1713.1858              1716.7350
 Red. masses --      9.9453                12.8779                12.5870
 Frc consts  --     15.8200                22.2693                21.8564
 IR Inten    --      0.8329                 1.6486               477.2599

                     49                     50                     51
                      A                      A                      A
 Frequencies --   3063.5741              3063.7602              3150.2856
 Red. masses --      1.0276                 1.0276                 1.1081
 Frc consts  --      5.6823                 5.6831                 6.4793
 IR Inten    --     62.8089                 8.6772                18.9136

                     52                     53                     54
                      A                      A                      A
 Frequencies --   3150.4452              3158.4508              3158.5373
 Red. masses --      1.1081                 1.1087                 1.1087
 Frc consts  --      6.4801                 6.5166                 6.5169
 IR Inten    --     16.7868                11.8642                11.1684

 - Thermochemistry -
 -------------------
 Temperature   298.150 Kelvin.  Pressure   1.00000 Atm.
 Atom     1 has atomic number  6 and mass  12.00000

 Molecular mass:   235.96431 amu.
 Principal axes and moments of inertia in atomic units:
                           1         2         3
     Eigenvalues --  2739.256533657.021276355.17226
           X            0.75154   0.65799  -0.04735
           Y           -0.65915   0.75189  -0.01351
           Z            0.02671   0.04136   0.99879
 This molecule is an asymmetric top.
 Rotational symmetry number  1.
 Warning -- assumption of classical behavior for rotation
           may cause significant error
 Rotational temperatures (Kelvin)      0.03162     0.02368     0.01363
 Rotational constants (GHZ):           0.65884     0.49350     0.28398
 Zero-point vibrational energy     342501.4 (Joules/Mol)
                                   81.85980 (Kcal/Mol)
 Warning -- explicit consideration of  22 degrees of freedom as
           vibrations may cause significant error
 Vibrational temperatures:     28.96    49.36    82.13   117.36   147.42
          (Kelvin)            265.10   273.92   286.26   304.09   329.78
                              333.15   402.19   416.11   469.94   514.60
                              552.73   599.58   600.68   706.48   728.70
                              744.14   837.97  1070.14  1086.77  1145.72
                             1186.89  1247.17  1317.18  1409.04  1547.78
                             1666.44  1667.21  1700.59  1706.79  1778.17
                             1816.18  1887.16  1955.86  2128.33  2131.66
                             2141.72  2142.12  2144.12  2144.88  2305.42
                             2364.08  2464.89  2470.00  4407.80  4408.07
                             4532.56  4532.79  4544.31  4544.43

 Zero-point correction=                           0.130452 (Hartree/Particle)
 Thermal correction to Energy=                    0.144715
 Thermal correction to Enthalpy=                  0.145659
 Thermal correction to Gibbs Free Energy=         0.086901
 Sum of electronic and zero-point Energies=          -1529.776353
 Sum of electronic and thermal Energies=             -1529.762090
 Sum of electronic and thermal Enthalpies=           -1529.761146
 Sum of electronic and thermal Free Energies=        -1529.819904

                     E (Thermal)             CV                S
                      KCal/Mol        Cal/Mol-Kelvin    Cal/Mol-Kelvin
 Total                   90.810             49.147            123.668
 Electronic               0.000              0.000              0.000
 Translational            0.889              2.981             42.277
 Rotational               0.889              2.981             32.521
 Vibrational             89.033             43.185             48.870
 Vibration     1          0.593              1.986              6.621
 Vibration     2          0.594              1.983              5.563
 Vibration     3          0.596              1.975              4.555
 Vibration     4          0.600              1.962              3.853
 Vibration     5          0.605              1.947              3.407
 Vibration     6          0.631              1.861              2.285
 Vibration     7          0.634              1.853              2.224
 Vibration     8          0.637              1.841              2.143
 Vibration     9          0.643              1.824              2.032
 Vibration    10          0.652              1.796              1.885
 Vibration    11          0.653              1.793              1.867
 Vibration    12          0.680              1.711              1.537
 Vibration    13          0.686              1.694              1.479
 Vibration    14          0.710              1.622              1.277
 Vibration    15          0.733              1.559              1.132
 Vibration    16          0.753              1.504              1.023
 Vibration    17          0.780              1.434              0.903
 Vibration    18          0.781              1.432              0.901
 Vibration    19          0.847              1.270              0.681
 Vibration    20          0.862              1.236              0.642
 Vibration    21          0.872              1.212              0.616
 Vibration    22          0.939              1.069              0.481

                           ! Non-Optimized Parameters !
 Normal termination of Gaussian 16 at Sun Dec 17 21:49:00 2023.
