 Q-Chem 5.4, Q-Chem, Inc., Pleasanton, CA (2021)
 Q-Chem 5.4.0 for Intel X86 EM64T Linux

User input:
--------------------------------------------------------------
$molecule
-1 2
C                 -0.8835400000      3.8285090000     -0.0169550000
C                 -1.9762280000      3.0683200000      0.3579490000
C                 -1.8433790000      1.6748130000      0.5286520000
C                  0.3770540000      3.2323390000     -0.2326890000
C                  0.5096580000      1.8266460000     -0.0563150000
C                 -0.6154590000      1.0701900000      0.3212070000
C                  1.5117990000      4.0502860000     -0.6370930000
C                  2.7886810000      3.3754700000     -0.8540850000
C                  2.9169230000      2.0103610000     -0.6110690000
C                  1.7980060000      1.1697090000     -0.2603300000
O                  1.4294720000      5.3001570000     -0.8140870000
O                  1.9483100000     -0.0856500000     -0.1583190000
N                  3.7939080000      4.1736570000     -1.3530100000
H                 -0.9621440000      4.9003780000     -0.1578410000
H                 -2.9389230000      3.5443880000      0.5203280000
H                 -2.7022230000      1.0788080000      0.8224700000
H                 -0.4830360000      0.0013690000      0.4446380000
H                  3.5375450000      5.1529580000     -1.2881120000
H                  4.7359370000      3.9239050000     -1.0628270000
N                  4.0868180000      1.2295050000     -0.8139040000
H                  3.8043900000      0.2483140000     -0.8182460000
C                  5.4025350000      1.4884740000     -0.6457140000
C                  6.3169500000      0.2827160000     -0.8775960000
C                  7.4083570000      0.1736420000      0.1912670000
O                  5.8926180000      2.5868650000     -0.3600370000
H                  6.7811200000      0.4231990000     -1.8612780000
H                  5.7342730000     -0.6416480000     -0.9322340000
H                  7.9603840000      1.1123820000      0.2620800000
H                  8.1099900000     -0.6310850000     -0.0484550000
H                  6.9751340000     -0.0353560000      1.1736850000
$end
$rem
MAX_SCF_CYCLES=200
BASIS  =  6-311++G(d,p)
GUI  =  2
JOB_TYPE  =  SP
METHOD  =  B3LYP
SOLVENT_METHOD = PCM
$end
$pcm
theory = CPCM
$end
$solvent
dielectric 37.219
opticaldielectric 1.43
$end

--------------------------------------------------------------

             Standard Nuclear Orientation (Angstroms)
    I     Atom           X                Y                Z
 ----------------------------------------------------------------
    1      C      -0.8835400000     3.8285090000    -0.0169550000
    2      C      -1.9762280000     3.0683200000     0.3579490000
    3      C      -1.8433790000     1.6748130000     0.5286520000
    4      C       0.3770540000     3.2323390000    -0.2326890000
    5      C       0.5096580000     1.8266460000    -0.0563150000
    6      C      -0.6154590000     1.0701900000     0.3212070000
    7      C       1.5117990000     4.0502860000    -0.6370930000
    8      C       2.7886810000     3.3754700000    -0.8540850000
    9      C       2.9169230000     2.0103610000    -0.6110690000
   10      C       1.7980060000     1.1697090000    -0.2603300000
   11      O       1.4294720000     5.3001570000    -0.8140870000
   12      O       1.9483100000    -0.0856500000    -0.1583190000
   13      N       3.7939080000     4.1736570000    -1.3530100000
   14      H      -0.9621440000     4.9003780000    -0.1578410000
   15      H      -2.9389230000     3.5443880000     0.5203280000
   16      H      -2.7022230000     1.0788080000     0.8224700000
   17      H      -0.4830360000     0.0013690000     0.4446380000
   18      H       3.5375450000     5.1529580000    -1.2881120000
   19      H       4.7359370000     3.9239050000    -1.0628270000
   20      N       4.0868180000     1.2295050000    -0.8139040000
   21      H       3.8043900000     0.2483140000    -0.8182460000
   22      C       5.4025350000     1.4884740000    -0.6457140000
   23      C       6.3169500000     0.2827160000    -0.8775960000
   24      C       7.4083570000     0.1736420000     0.1912670000
   25      O       5.8926180000     2.5868650000    -0.3600370000
   26      H       6.7811200000     0.4231990000    -1.8612780000
   27      H       5.7342730000    -0.6416480000    -0.9322340000
   28      H       7.9603840000     1.1123820000     0.2620800000
   29      H       8.1099900000    -0.6310850000    -0.0484550000
   30      H       6.9751340000    -0.0353560000     1.1736850000
 ----------------------------------------------------------------

    8    -838.2161131540      7.08e-06  Convergence criterion met
 Total energy in the final basis set =     -838.2161131540

                    Orbital Energies (a.u.)
 --------------------------------------------------------------

 Alpha MOs
 -- Occupied --
-19.0988 -19.0820 -19.0801 -14.3464 -14.3054 -10.2791 -10.2280 -10.2241
-10.2109 -10.2010 -10.1746 -10.1741 -10.1736 -10.1715 -10.1709 -10.1701
-10.1695 -10.1577  -1.0465  -1.0100  -1.0065  -0.9354  -0.9039  -0.8580
 -0.7945  -0.7729  -0.7514  -0.7322  -0.6841  -0.6517  -0.6178  -0.6150
 -0.5830  -0.5638  -0.5361  -0.5141  -0.5036  -0.4929  -0.4758  -0.4602
 -0.4513  -0.4417  -0.4335  -0.4286  -0.4234  -0.4212  -0.4145  -0.4090
 -0.3919  -0.3852  -0.3699  -0.3642  -0.3600  -0.3542  -0.3439  -0.3385
 -0.3268  -0.3001  -0.2718  -0.2647  -0.2584  -0.2577  -0.2479  -0.2074
 -0.1495

 Beta MOs
 -- Occupied --
-19.0987 -19.0760 -19.0757 -14.3464 -14.3045 -10.2791 -10.2261 -10.2214
-10.2096 -10.2010 -10.1746 -10.1735 -10.1728 -10.1713 -10.1705 -10.1699
-10.1692 -10.1577  -1.0463  -1.0019  -0.9965  -0.9341  -0.9012  -0.8558
 -0.7912  -0.7719  -0.7490  -0.7308  -0.6778  -0.6482  -0.6157  -0.6141
 -0.5810  -0.5617  -0.5343  -0.5131  -0.5018  -0.4923  -0.4726  -0.4596
 -0.4506  -0.4388  -0.4293  -0.4269  -0.4217  -0.4193  -0.4087  -0.4022
 -0.3890  -0.3701  -0.3639  -0.3633  -0.3561  -0.3521  -0.3423  -0.3374
 -0.3125  -0.2954  -0.2711  -0.2535  -0.2506  -0.2486  -0.2429  -0.1997

          Ground-State Mulliken Net Atomic Charges

     Atom                 Charge (a.u.)    Spin (a.u.)
  --------------------------------------------------------
      1 C                     0.101503       0.059193
      2 C                    -0.356555       0.018677
      3 C                    -0.422620       0.060771
      4 C                     0.494134       0.014846
      5 C                    -0.086581       0.050115
      6 C                     0.050798       0.025557
      7 C                    -0.638528       0.172690
      8 C                     0.364622       0.057188
      9 C                     0.499635      -0.002872
     10 C                    -0.900407       0.111238
     11 O                    -0.509173       0.230474
     12 O                    -0.495556       0.167647
     13 N                    -0.468684       0.050389
     14 H                     0.171350      -0.003395
     15 H                     0.194624      -0.001791
     16 H                     0.197381      -0.004373
     17 H                     0.171119      -0.000739
     18 H                     0.303037      -0.002668
     19 H                     0.304018      -0.000079
     20 N                    -0.025690      -0.003540
     21 H                     0.379939      -0.001511
     22 C                     0.176534       0.000860
     23 C                    -0.298016      -0.001702
     24 C                    -0.569182       0.000133
     25 O                    -0.461093       0.002257
     26 H                     0.192896       0.000455
     27 H                     0.148136       0.000208
     28 H                     0.166837      -0.000097
     29 H                     0.162624      -0.000143
     30 H                     0.152898       0.000212
  --------------------------------------------------------
  Sum of atomic charges =    -1.000000

                    Cartesian Multipole Moments
 -----------------------------------------------------------------
    Charge (ESU x 10^10)
                -4.8032
    Dipole Moment (Debye)
         X      -9.8263      Y     -15.3120      Z       2.0972
       Tot      18.3143
    Quadrupole Moments (Debye-Ang)
        XX    -136.2393     XY     -37.9771     YY    -178.8787
        XZ       0.0856     YZ      11.9959     ZZ    -114.6250

 Total job time:  68.29s(wall), 418.88s(cpu)
        *  Thank you very much for using Q-Chem.  Have a nice day.  *
