 Gaussian 16, Revision A.03,
 Gaussian 16:  ES64L-G16RevA.03 25-Dec-2016

 --------------------------------------
 #P UB3LYP/6-311++G(d,p) nosym opt freq
 --------------------------------------

 -------
 Radical
 -------
 Symbolic Z-matrix:
 Charge = -1 Multiplicity = 2

 SCF Done:  E(UB3LYP) =  -538.923338078     A.U. after   22 cycles
 SCF Done:  E(UB3LYP) =  -538.940924376     A.U. after   16 cycles
 SCF Done:  E(UB3LYP) =  -538.942829016     A.U. after   15 cycles
 SCF Done:  E(UB3LYP) =  -538.944388637     A.U. after   14 cycles
 SCF Done:  E(UB3LYP) =  -538.944947170     A.U. after   15 cycles
 SCF Done:  E(UB3LYP) =  -538.945418371     A.U. after   15 cycles
 SCF Done:  E(UB3LYP) =  -538.945623991     A.U. after   15 cycles
 SCF Done:  E(UB3LYP) =  -538.945725356     A.U. after   13 cycles
 SCF Done:  E(UB3LYP) =  -538.945864596     A.U. after   14 cycles
 SCF Done:  E(UB3LYP) =  -538.945924994     A.U. after   14 cycles
 SCF Done:  E(UB3LYP) =  -538.946085646     A.U. after   14 cycles
 SCF Done:  E(UB3LYP) =  -538.946167545     A.U. after   14 cycles
 SCF Done:  E(UB3LYP) =  -538.946166188     A.U. after   13 cycles
 SCF Done:  E(UB3LYP) =  -538.946180983     A.U. after   13 cycles
 SCF Done:  E(UB3LYP) =  -538.946181429     A.U. after   10 cycles
 SCF Done:  E(UB3LYP) =  -538.946181449     A.U. after    8 cycles
 Optimization completed.
    -- Stationary point found.
 Normal termination of Gaussian 16 at Sun Dec 17 21:14:32 2023.

 ----------------------------------------------------------------------
 #P Geom=AllCheck Guess=TCheck SCRF=Check GenChk UB3LYP/6-311++G(d,p) F
 req
 ----------------------------------------------------------------------

 Structure from the checkpoint file:  "034-rad.chk"
 -------
 Radical
 -------
 Charge = -1 Multiplicity = 2

                          Input orientation:
 ---------------------------------------------------------------------
 Center     Atomic      Atomic             Coordinates (Angstroms)
 Number     Number       Type             X           Y           Z
 ---------------------------------------------------------------------
      1          6           0       -2.478393    1.395784    0.356851
      2          6           0       -1.979553   -0.060811    0.430445
      3          6           0       -2.760862   -0.957170   -0.550402
      4          6           0       -0.474189   -0.166238    0.235218
      5          6           0        0.320331   -0.650577    1.246911
      6          6           0        1.756756   -0.790590    1.162748
      7          8           0        2.449686   -1.242654    2.121967
      8          6           0        2.362024   -0.378659   -0.097408
      9          6           0        1.574012    0.105289   -1.110002
     10          6           0        0.135991    0.245814   -1.026449
     11          8           0       -0.539647    0.701334   -1.999503
     12          6           0        3.855892   -0.506368   -0.231469
     13          1           0       -2.284359    1.807960   -0.634959
     14          1           0       -3.555945    1.447015    0.558988
     15          1           0       -1.964627    2.018623    1.095823
     16          1           0       -2.185801   -0.427133    1.444908
     17          1           0       -2.577766   -0.636120   -1.577341
     18          1           0       -2.447148   -2.001343   -0.454262
     19          1           0       -3.838369   -0.905713   -0.348078
     20          1           0       -0.125711   -0.959936    2.190195
     21          1           0        2.018367    0.414958   -2.053749
     22          1           0        4.370394    0.077081    0.540018
     23          1           0        4.193149   -0.167497   -1.215494
     24          1           0        4.175769   -1.543940   -0.084957
 ---------------------------------------------------------------------

 SCF Done:  E(UB3LYP) =  -538.946181449     A.U. after    1 cycles

 Alpha  occ. eigenvalues --  -18.92971 -18.92942 -10.07549 -10.07319 -10.05324
 Alpha  occ. eigenvalues --  -10.03689 -10.03540 -10.03537 -10.03390 -10.03179
 Alpha  occ. eigenvalues --  -10.02101 -10.02061  -0.85086  -0.84809  -0.69547
 Alpha  occ. eigenvalues --   -0.66891  -0.61891  -0.56218  -0.56167  -0.52861
 Alpha  occ. eigenvalues --   -0.46495  -0.45293  -0.39579  -0.35408  -0.32815
 Alpha  occ. eigenvalues --   -0.31103  -0.30659  -0.29603  -0.28858  -0.28725
 Alpha  occ. eigenvalues --   -0.26752  -0.25844  -0.25633  -0.24403  -0.24249
 Alpha  occ. eigenvalues --   -0.22349  -0.21735  -0.21688  -0.20794  -0.20537
 Alpha  occ. eigenvalues --   -0.13353  -0.11033  -0.09422  -0.08975  -0.01671
 Alpha virt. eigenvalues --    0.08550   0.09577   0.10608   0.11139   0.11950
 Alpha virt. eigenvalues --    0.12294   0.12320   0.13911   0.14230   0.14634
 Alpha virt. eigenvalues --    0.14669   0.15080   0.15426   0.16733   0.17101

  Beta  occ. eigenvalues --  -18.92249 -18.92222 -10.07422 -10.07204 -10.05332
  Beta  occ. eigenvalues --  -10.03699 -10.03535 -10.03531 -10.03259 -10.03050
  Beta  occ. eigenvalues --  -10.01997 -10.01975  -0.83847  -0.83531  -0.69134
  Beta  occ. eigenvalues --   -0.66629  -0.61675  -0.56149  -0.55884  -0.52053
  Beta  occ. eigenvalues --   -0.46282  -0.44915  -0.39247  -0.35259  -0.32608
  Beta  occ. eigenvalues --   -0.31017  -0.30344  -0.29148  -0.28640  -0.28548
  Beta  occ. eigenvalues --   -0.26558  -0.25735  -0.24996  -0.24003  -0.23239
  Beta  occ. eigenvalues --   -0.21600  -0.21367  -0.20719  -0.20350  -0.19230
  Beta  occ. eigenvalues --   -0.10238  -0.09942  -0.08751  -0.08328
  Beta virt. eigenvalues --    0.05583   0.08549   0.09574   0.10628   0.11145
  Beta virt. eigenvalues --    0.11955   0.12296   0.12845   0.13917   0.14430
  Beta virt. eigenvalues --    0.14670   0.15093   0.15300   0.15496   0.17123

 Mulliken charges and spin densities:
               1          2
     1  C   -0.686923   0.012280
     2  C    0.141463  -0.028195
     3  C   -0.686622   0.012275
     4  C    1.322614   0.114260
     5  C   -0.114973   0.071010
     6  C   -1.161874   0.076617
     7  O   -0.408982   0.262731
     8  C    1.261363   0.101727
     9  C   -0.613602   0.068268
    10  C   -0.900378   0.055179
    11  O   -0.385983   0.261105
    12  C   -0.400633   0.003496
    13  H    0.195636  -0.001839
    14  H    0.104386   0.000679
    15  H    0.110964   0.000054
    16  H    0.145896  -0.001262
    17  H    0.195690  -0.001842
    18  H    0.110902   0.000061
    19  H    0.104358   0.000670
    20  H    0.134939  -0.008842
    21  H    0.114499  -0.007693
    22  H    0.151039   0.004827
    23  H    0.115245  -0.000409
    24  H    0.150977   0.004843
 Sum of Mulliken charges =  -1.00000   1.00000

 Dipole moment (field-independent basis, Debye):
    X=             -3.7464    Y=              1.2662    Z=             -0.4681  Tot=              3.9822
 Quadrupole moment (field-independent basis, Debye-Ang):
   XX=            -97.5358   YY=            -83.8760   ZZ=            -98.9387
   XY=              8.5213   XZ=            -15.0865   YZ=              9.5338

  Exact polarizability: 189.063 -18.036 107.502  18.092 -22.191 148.873
 Approx polarizability: 250.888 -32.554 163.715  50.035 -51.386 258.045

                      1                      2                      3
                      A                      A                      A
 Frequencies --     67.4639                77.1269               118.8847
 Red. masses --      3.2765                 3.6494                 1.0468
 Frc consts  --      0.0088                 0.0128                 0.0087
 IR Inten    --      0.4305                 5.8531                 0.0005

                      4                      5                      6
                      A                      A                      A
 Frequencies --    153.8782               188.9316               204.6334
 Red. masses --      4.8280                 3.1129                 3.3825
 Frc consts  --      0.0674                 0.0655                 0.0835
 IR Inten    --      5.9838                 2.9404                 0.0009

                      7                      8                      9
                      A                      A                      A
 Frequencies --    230.4092               249.7984               273.6344
 Red. masses --      1.0632                 1.1745                 2.7387
 Frc consts  --      0.0333                 0.0432                 0.1208
 IR Inten    --      0.2147                 1.3007                 1.8330

                     10                     11                     12
                      A                      A                      A
 Frequencies --    282.4642               286.1619               387.0549
 Red. masses --      4.5517                 3.2632                 8.5969
 Frc consts  --      0.2140                 0.1574                 0.7588
 IR Inten    --      0.0140                 1.1270                13.7601

                     13                     14                     15
                      A                      A                      A
 Frequencies --    403.6884               426.5486               451.2912
 Red. masses --      3.6796                 2.9480                 3.6743
 Frc consts  --      0.3533                 0.3160                 0.4409
 IR Inten    --      0.6648                 1.3587                 0.8141

                     16                     17                     18
                      A                      A                      A
 Frequencies --    492.5850               511.2602               643.0309
 Red. masses --      3.5198                 6.9515                 4.0004
 Frc consts  --      0.5032                 1.0706                 0.9746
 IR Inten    --      1.4162                 0.1493                 2.2341

                     19                     20                     21
                      A                      A                      A
 Frequencies --    682.6600               697.7200               716.1417
 Red. masses --      3.8791                 4.4371                 5.1029
 Frc consts  --      1.0651                 1.2726                 1.5419
 IR Inten    --      3.8838                 1.9280                 7.4597

                     22                     23                     24
                      A                      A                      A
 Frequencies --    757.8304               825.7224               859.9753
 Red. masses --      3.1895                 3.6909                 1.5387
 Frc consts  --      1.0793                 1.4827                 0.6705
 IR Inten    --      0.4829                16.8784                 0.7683

                     25                     26                     27
                      A                      A                      A
 Frequencies --    889.0083               890.7945               927.2362
 Red. masses --      2.3609                 1.5413                 1.1612
 Frc consts  --      1.0993                 0.7206                 0.5882
 IR Inten    --      0.5890                33.7582                 2.1835

                     28                     29                     30
                      A                      A                      A
 Frequencies --    956.6946              1011.2848              1034.3261
 Red. masses --      1.5703                 1.5869                 2.0171
 Frc consts  --      0.8468                 0.9562                 1.2714
 IR Inten    --      0.2266                47.7764                21.9018

                     31                     32                     33
                      A                      A                      A
 Frequencies --   1049.6776              1116.7401              1129.3185
 Red. masses --      1.4893                 2.3295                 2.7394
 Frc consts  --      0.9668                 1.7117                 2.0584
 IR Inten    --      0.9779                 2.2112                19.6169

                     34                     35                     36
                      A                      A                      A
 Frequencies --   1165.1076              1182.4504              1216.5046
 Red. masses --      2.0293                 2.9440                 2.6235
 Frc consts  --      1.6230                 2.4252                 2.2875
 IR Inten    --     13.0459                 7.0179                10.2257

                     37                     38                     39
                      A                      A                      A
 Frequencies --   1237.4759              1313.0530              1345.4835
 Red. masses --      1.3473                 2.5253                 1.2815
 Frc consts  --      1.2156                 2.5652                 1.3669
 IR Inten    --      0.8899                 4.1305                 2.9280

                     40                     41                     42
                      A                      A                      A
 Frequencies --   1362.3540              1374.3034              1391.8224
 Red. masses --      1.5403                 1.2345                 1.2548
 Frc consts  --      1.6843                 1.3737                 1.4322
 IR Inten    --     11.5789                10.8478                25.2144

                     43                     44                     45
                      A                      A                      A
 Frequencies --   1396.3724              1439.7398              1464.5549
 Red. masses --      1.2890                 4.4424                 1.0465
 Frc consts  --      1.4808                 5.4255                 1.3226
 IR Inten    --     13.4884                 0.6480                 3.9655

                     46                     47                     48
                      A                      A                      A
 Frequencies --   1476.2924              1477.5635              1485.3165
 Red. masses --      1.6063                 1.0406                 1.5752
 Frc consts  --      2.0627                 1.3386                 2.0475
 IR Inten    --     54.5979                 0.1884                13.4826

                     49                     50                     51
                      A                      A                      A
 Frequencies --   1497.0471              1503.1619              1512.4729
 Red. masses --      2.0825                 1.0513                 1.7113
 Frc consts  --      2.7499                 1.3996                 2.3065
 IR Inten    --     58.4031                 1.0774               183.7931

                     52                     53                     54
                      A                      A                      A
 Frequencies --   1523.5323              1535.6289              1644.9223
 Red. masses --      1.5043                 4.3931                 6.7909
 Frc consts  --      2.0572                 6.1037                10.8260
 IR Inten    --    148.9313                87.1350                 0.5296

                     55                     56                     57
                      A                      A                      A
 Frequencies --   2982.0885              2992.3338              3001.1539
 Red. masses --      1.0792                 1.0435                 1.0462
 Frc consts  --      5.6544                 5.5051                 5.5517
 IR Inten    --     29.1924                45.1707               216.6246

                     58                     59                     60
                      A                      A                      A
 Frequencies --   3004.9119              3046.5560              3055.2682
 Red. masses --      1.0345                 1.0988                 1.0937
 Frc consts  --      5.5035                 6.0086                 6.0149
 IR Inten    --     53.2669                33.8753                44.9517

                     61                     62                     63
                      A                      A                      A
 Frequencies --   3057.9990              3074.8556              3104.0447
 Red. masses --      1.0942                 1.1023                 1.0991
 Frc consts  --      6.0288                 6.1405                 6.2395
 IR Inten    --     64.4737                27.4701                 1.2502

                     64                     65                     66
                      A                      A                      A
 Frequencies --   3107.4834              3122.7011              3127.0354
 Red. masses --      1.0984                 1.0882                 1.0890
 Frc consts  --      6.2495                 6.2521                 6.2738
 IR Inten    --     18.6817                69.1403                 9.9439

 - Thermochemistry -
 -------------------
 Temperature   298.150 Kelvin.  Pressure   1.00000 Atm.
 Atom     1 has atomic number  6 and mass  12.00000

 Molecular mass:   164.08373 amu.
 Principal axes and moments of inertia in atomic units:
                           1         2         3
     Eigenvalues --  1027.453442913.455593538.14809
           X            0.96825  -0.22381   0.11139
           Y           -0.18210  -0.32612   0.92762
           Z            0.17128   0.91845   0.35652
 This molecule is an asymmetric top.
 Rotational symmetry number  1.
 Warning -- assumption of classical behavior for rotation
           may cause significant error
 Rotational temperatures (Kelvin)      0.08430     0.02973     0.02448
 Rotational constants (GHZ):           1.75652     0.61945     0.51008
 Zero-point vibrational energy     509702.3 (Joules/Mol)
                                  121.82177 (Kcal/Mol)
 Warning -- explicit consideration of  17 degrees of freedom as
           vibrations may cause significant error
 Vibrational temperatures:     97.07   110.97   171.05   221.40   271.83
          (Kelvin)            294.42   331.51   359.40   393.70   406.40
                              411.72   556.89   580.82   613.71   649.31
                              708.72   735.59   925.18   982.20  1003.86
                             1030.37  1090.35  1188.03  1237.31  1279.08
                             1281.65  1334.09  1376.47  1455.01  1488.16
                             1510.25  1606.74  1624.84  1676.33  1701.28
                             1750.28  1780.45  1889.19  1935.85  1960.12
                             1977.32  2002.52  2009.07  2071.46  2107.17
                             2124.06  2125.88  2137.04  2153.92  2162.71
                             2176.11  2192.02  2209.43  2366.68  4290.56
                             4305.30  4317.99  4323.40  4383.31  4395.85
                             4399.78  4424.03  4466.03  4470.98  4492.87
                             4499.11

 Zero-point correction=                           0.194135 (Hartree/Particle)
 Thermal correction to Energy=                    0.206194
 Thermal correction to Enthalpy=                  0.207138
 Thermal correction to Gibbs Free Energy=         0.155868
 Sum of electronic and zero-point Energies=           -538.752046
 Sum of electronic and thermal Energies=              -538.739987
 Sum of electronic and thermal Enthalpies=            -538.739043
 Sum of electronic and thermal Free Energies=         -538.790313

                     E (Thermal)             CV                S
                      KCal/Mol        Cal/Mol-Kelvin    Cal/Mol-Kelvin
 Total                  129.389             45.486            107.907
 Electronic               0.000              0.000              1.377
 Translational            0.889              2.981             41.194
 Rotational               0.889              2.981             30.739
 Vibrational            127.611             39.524             34.597
 Vibration     1          0.598              1.970              4.226
 Vibration     2          0.599              1.964              3.963
 Vibration     3          0.609              1.934              3.118
 Vibration     4          0.619              1.898              2.624
 Vibration     5          0.633              1.855              2.238
 Vibration     6          0.640              1.833              2.091
 Vibration     7          0.652              1.795              1.876
 Vibration     8          0.663              1.763              1.732
 Vibration     9          0.676              1.722              1.573
 Vibration    10          0.682              1.706              1.519
 Vibration    11          0.684              1.699              1.497
 Vibration    12          0.755              1.498              1.011
 Vibration    13          0.769              1.462              0.949
 Vibration    14          0.788              1.412              0.870
 Vibration    15          0.810              1.358              0.792
 Vibration    16          0.848              1.266              0.677
 Vibration    17          0.866              1.225              0.631

 Optimization completed.
    -- Stationary point found.
 Normal termination of Gaussian 16 at Sun Dec 17 21:24:21 2023.
