 Gaussian 16, Revision A.03,
 Gaussian 16:  ES64L-G16RevA.03 25-Dec-2016

 --------------------------------------
 #P UB3LYP/6-311++G(d,p) nosym opt freq
 --------------------------------------

 -------
 Radical
 -------
 Symbolic Z-matrix:
 Charge = -1 Multiplicity = 2

 SCF Done:  E(UB3LYP) =  -610.745802933     A.U. after   17 cycles
 SCF Done:  E(UB3LYP) =  -610.745802991     A.U. after   10 cycles
 Optimization completed.
    -- Stationary point found.
 Normal termination of Gaussian 16 at Wed Jan 10 04:52:25 2024.

 ----------------------------------------------------------------------
 #P Geom=AllCheck Guess=TCheck SCRF=Check GenChk UB3LYP/6-311++G(d,p) F
 req
 ----------------------------------------------------------------------

 Structure from the checkpoint file:  "084-rad.chk"
 -------
 Radical
 -------
 Charge = -1 Multiplicity = 2

                          Input orientation:
 ---------------------------------------------------------------------
 Center     Atomic      Atomic             Coordinates (Angstroms)
 Number     Number       Type             X           Y           Z
 ---------------------------------------------------------------------
      1          6           0        2.834997   -0.417146    0.415917
      2          8           0        1.656428    0.283564    0.804158
      3          6           0        0.468585   -0.298148    0.414492
      4          6           0       -0.368776    0.406167   -0.424809
      5          8           0        0.080738    1.592518   -0.964919
      6          6           0       -0.675586    2.747705   -0.612636
      7          6           0       -1.681040   -0.103614   -0.818092
      8          8           0       -2.443266    0.534269   -1.600474
      9          6           0       -2.032972   -1.389517   -0.263815
     10          6           0       -1.195420   -2.095496    0.558426
     11          6           0        0.099998   -1.602243    0.962379
     12          8           0        0.860303   -2.242020    1.745137
     13          1           0        2.920936   -0.446620   -0.678789
     14          1           0        3.675917    0.149776    0.822832
     15          1           0        2.836415   -1.430836    0.822131
     16          1           0       -0.216063    3.586965   -1.140470
     17          1           0       -0.615778    2.930490    0.468865
     18          1           0       -1.717811    2.638890   -0.920157
     19          1           0       -3.005318   -1.780986   -0.548887
     20          1           0       -1.482286   -3.063719    0.958711
 ---------------------------------------------------------------------

 SCF Done:  E(UB3LYP) =  -610.745802991     A.U. after    1 cycles

 Alpha  occ. eigenvalues --  -19.00429 -19.00425 -18.93572 -18.93571 -10.08810
 Alpha  occ. eigenvalues --  -10.08809 -10.08220 -10.08218 -10.08065 -10.08006
 Alpha  occ. eigenvalues --  -10.02844 -10.02780  -0.92859  -0.90996  -0.85465
 Alpha  occ. eigenvalues --   -0.85241  -0.68426  -0.61999  -0.58158  -0.54343
 Alpha  occ. eigenvalues --   -0.53469  -0.45587  -0.43866  -0.37757  -0.36577
 Alpha  occ. eigenvalues --   -0.35233  -0.34010  -0.32219  -0.31759  -0.31253
 Alpha  occ. eigenvalues --   -0.29831  -0.26843  -0.26261  -0.24946  -0.24458
 Alpha  occ. eigenvalues --   -0.23050  -0.22091  -0.21921  -0.15758  -0.15654
 Alpha  occ. eigenvalues --   -0.13982  -0.09980  -0.09626  -0.09579  -0.02199
 Alpha virt. eigenvalues --    0.09176   0.09852   0.10684   0.12292   0.12860
 Alpha virt. eigenvalues --    0.12917   0.13375   0.13754   0.14885   0.15043
 Alpha virt. eigenvalues --    0.16396   0.17730   0.18711   0.18900   0.19278

  Beta  occ. eigenvalues --  -19.00417 -19.00412 -18.92850 -18.92849 -10.08805
  Beta  occ. eigenvalues --  -10.08804 -10.08096 -10.08094 -10.07981 -10.07922
  Beta  occ. eigenvalues --  -10.02710 -10.02645  -0.92778  -0.90909  -0.84237
  Beta  occ. eigenvalues --   -0.83996  -0.67844  -0.61790  -0.57981  -0.54197
  Beta  occ. eigenvalues --   -0.52509  -0.45248  -0.43564  -0.37664  -0.36399
  Beta  occ. eigenvalues --   -0.34892  -0.33793  -0.32114  -0.31690  -0.31020
  Beta  occ. eigenvalues --   -0.29684  -0.26177  -0.25011  -0.24372  -0.23875
  Beta  occ. eigenvalues --   -0.22139  -0.21371  -0.20208  -0.15450  -0.15438
  Beta  occ. eigenvalues --   -0.10838  -0.09231  -0.09014  -0.08797
  Beta virt. eigenvalues --    0.05082   0.09209   0.09864   0.10698   0.12298
  Beta virt. eigenvalues --    0.12878   0.12926   0.13675   0.14718   0.14915
  Beta virt. eigenvalues --    0.15168   0.17280   0.18395   0.18750   0.19319

 Mulliken charges and spin densities:
               1          2
     1  C   -0.269426   0.000282
     2  O   -0.151958  -0.000298
     3  C    0.044097   0.076594
     4  C    0.044449   0.076716
     5  O   -0.151681  -0.000328
     6  C   -0.269676   0.000284
     7  C   -0.341949   0.073859
     8  O   -0.425711   0.259264
     9  C    0.101442   0.097953
    10  C    0.101559   0.097859
    11  C   -0.343497   0.073927
    12  O   -0.425787   0.259274
    13  H    0.112201   0.001412
    14  H    0.108398   0.000615
    15  H    0.176709  -0.000725
    16  H    0.108435   0.000626
    17  H    0.112309   0.001406
    18  H    0.176573  -0.000727
    19  H    0.146749  -0.009001
    20  H    0.146764  -0.008993
 Sum of Mulliken charges =  -1.00000   1.00000

 Dipole moment (field-independent basis, Debye):
    X=              2.5322    Y=              2.7292    Z=             -0.2279  Tot=              3.7299
 Quadrupole moment (field-independent basis, Debye-Ang):
   XX=            -87.9782   YY=            -85.1790   ZZ=            -90.4784
   XY=              4.0923   XZ=            -13.0950   YZ=             11.4468

  Exact polarizability: 146.154  -7.092 139.449  31.808 -31.723 108.806
 Approx polarizability: 217.333 -27.570 202.060  64.872 -59.955 183.090

                      1                      2                      3
                      A                      A                      A
 Frequencies --     76.6888                86.7537                89.1093
 Red. masses --      2.7796                 2.6796                 4.5194
 Frc consts  --      0.0096                 0.0119                 0.0211
 IR Inten    --      8.6945                 0.6249                 1.7805

                      4                      5                      6
                      A                      A                      A
 Frequencies --    126.5310               154.0423               158.0900
 Red. masses --      5.4193                 1.2120                 1.1215
 Frc consts  --      0.0511                 0.0169                 0.0165
 IR Inten    --     11.8999                 0.6620                 0.7005

                      7                      8                      9
                      A                      A                      A
 Frequencies --    209.5642               265.6200               318.7688
 Red. masses --      3.2360                 4.7680                 9.1261
 Frc consts  --      0.0837                 0.1982                 0.5464
 IR Inten    --      3.0454                 7.9016                 1.0114

                     10                     11                     12
                      A                      A                      A
 Frequencies --    336.2217               345.5407               377.7670
 Red. masses --      6.1800                 5.2027                10.1411
 Frc consts  --      0.4116                 0.3660                 0.8527
 IR Inten    --      3.5548                 1.8837                 4.4533

                     13                     14                     15
                      A                      A                      A
 Frequencies --    402.7759               473.9126               476.6949
 Red. masses --      5.8424                11.4563                 5.1888
 Frc consts  --      0.5584                 1.5160                 0.6947
 IR Inten    --      3.1809                 1.0944                 1.8096

                     16                     17                     18
                      A                      A                      A
 Frequencies --    587.4747               630.0736               659.5243
 Red. masses --      6.2502                 3.3149                 2.8029
 Frc consts  --      1.2709                 0.7754                 0.7183
 IR Inten    --      1.7088                 2.7288                 7.8610

                     19                     20                     21
                      A                      A                      A
 Frequencies --    659.7376               763.4291               777.6365
 Red. masses --      6.4063                 7.2605                 9.3168
 Frc consts  --      1.6429                 2.4932                 3.3195
 IR Inten    --     13.3287                18.9190                 1.6134

                     22                     23                     24
                      A                      A                      A
 Frequencies --    818.7206               927.3859               940.1188
 Red. masses --      2.2208                 1.2558                 7.2754
 Frc consts  --      0.8771                 0.6363                 3.7885
 IR Inten    --     39.7010                 0.0866                32.8167

                     25                     26                     27
                      A                      A                      A
 Frequencies --    996.8259              1071.7851              1077.1508
 Red. masses --      5.5488                 5.5796                 2.3225
 Frc consts  --      3.2485                 3.7763                 1.5876
 IR Inten    --      8.8903                83.2940                63.0918

                     28                     29                     30
                      A                      A                      A
 Frequencies --   1160.2559              1164.1788              1168.4345
 Red. masses --      1.4087                 1.2756                 1.9222
 Frc consts  --      1.1174                 1.0186                 1.5462
 IR Inten    --     91.5517                12.1415                77.9036

                     31                     32                     33
                      A                      A                      A
 Frequencies --   1174.9169              1214.6835              1227.3502
 Red. masses --      2.1565                 1.9416                 1.7712
 Frc consts  --      1.7539                 1.6878                 1.5720
 IR Inten    --    133.8900                 0.0727                62.5898

                     34                     35                     36
                      A                      A                      A
 Frequencies --   1241.0563              1335.1762              1417.1321
 Red. masses --      3.1937                 2.3329                 3.5528
 Frc consts  --      2.8981                 2.4504                 4.2038
 IR Inten    --    129.5564                17.4160                70.7310

                     37                     38                     39
                      A                      A                      A
 Frequencies --   1442.3770              1454.7831              1476.7335
 Red. masses --      1.2894                 1.3275                 1.1090
 Frc consts  --      1.5806                 1.6553                 1.4248
 IR Inten    --      0.0307               133.7921                 0.0185

                     40                     41                     42
                      A                      A                      A
 Frequencies --   1479.8259              1486.4078              1514.3177
 Red. masses --      1.0825                 4.7254                 1.0553
 Frc consts  --      1.3967                 6.1513                 1.4258
 IR Inten    --      2.5477                 8.2821                 4.5959

                     43                     44                     45
                      A                      A                      A
 Frequencies --   1514.5866              1530.1521              1536.4462
 Red. masses --      1.0508                 5.4196                 6.8629
 Frc consts  --      1.4202                 7.4763                 9.5454
 IR Inten    --      6.4471               430.8871                28.2038

                     46                     47                     48
                      A                      A                      A
 Frequencies --   1634.6825              2980.3373              2981.1721
 Red. masses --      7.7103                 1.0428                 1.0436
 Frc consts  --     12.1392                 5.4574                 5.4645
 IR Inten    --     16.6192               170.4255                76.7296

                     49                     50                     51
                      A                      A                      A
 Frequencies --   3061.6543              3062.0415              3098.1023
 Red. masses --      1.0878                 1.0871                 1.1057
 Frc consts  --      6.0077                 6.0053                 6.2529
 IR Inten    --    102.2672                45.5478                 8.4339

                     52                     53                     54
                      A                      A                      A
 Frequencies --   3098.4030              3137.5539              3159.2937
 Red. masses --      1.1057                 1.0850                 1.0945
 Frc consts  --      6.2542                 6.2933                 6.4367
 IR Inten    --     32.6694                18.9250                37.1436

 - Thermochemistry -
 -------------------
 Temperature   298.150 Kelvin.  Pressure   1.00000 Atm.
 Atom     1 has atomic number  6 and mass  12.00000

 Molecular mass:   168.04226 amu.
 Principal axes and moments of inertia in atomic units:
                           1         2         3
     Eigenvalues --  1384.416832011.672153193.24380
           X            0.65731   0.67809  -0.32885
           Y           -0.56640   0.73235   0.37797
           Z            0.49713  -0.06218   0.86545
 This molecule is an asymmetric top.
 Rotational symmetry number  1.
 Warning -- assumption of classical behavior for rotation
           may cause significant error
 Rotational temperatures (Kelvin)      0.06256     0.04306     0.02712
 Rotational constants (GHZ):           1.30361     0.89713     0.56517
 Zero-point vibrational energy     386154.5 (Joules/Mol)
                                   92.29315 (Kcal/Mol)
 Warning -- explicit consideration of  16 degrees of freedom as
           vibrations may cause significant error
 Vibrational temperatures:    110.34   124.82   128.21   182.05   221.63
          (Kelvin)            227.46   301.52   382.17   458.64   483.75
                              497.16   543.52   579.50   681.85   685.86
                              845.25   906.54   948.91   949.22  1098.40
                             1118.85  1177.96  1334.30  1352.62  1434.21
                             1542.06  1549.78  1669.35  1674.99  1681.12
                             1690.44  1747.66  1765.88  1785.60  1921.02
                             2038.94  2075.26  2093.11  2124.69  2129.14
                             2138.61  2178.77  2179.15  2201.55  2210.60
                             2351.94  4288.04  4289.24  4405.04  4405.59
                             4457.48  4457.91  4514.24  4545.52

 Zero-point correction=                           0.147078 (Hartree/Particle)
 Thermal correction to Energy=                    0.158627
 Thermal correction to Enthalpy=                  0.159571
 Thermal correction to Gibbs Free Energy=         0.108819
 Sum of electronic and zero-point Energies=           -610.598724
 Sum of electronic and thermal Energies=              -610.587176
 Sum of electronic and thermal Enthalpies=            -610.586232
 Sum of electronic and thermal Free Energies=         -610.636984

                     E (Thermal)             CV                S
                      KCal/Mol        Cal/Mol-Kelvin    Cal/Mol-Kelvin
 Total                   99.540             41.748            106.817
 Electronic               0.000              0.000              1.377
 Translational            0.889              2.981             41.265
 Rotational               0.889              2.981             30.565
 Vibrational             97.762             35.787             33.610
 Vibration     1          0.599              1.965              3.974
 Vibration     2          0.601              1.958              3.732
 Vibration     3          0.602              1.957              3.680
 Vibration     4          0.611              1.927              2.998
 Vibration     5          0.620              1.898              2.622
 Vibration     6          0.621              1.894              2.573
 Vibration     7          0.642              1.826              2.047
 Vibration     8          0.671              1.736              1.625
 Vibration     9          0.705              1.638              1.316
 Vibration    10          0.717              1.603              1.230
 Vibration    11          0.724              1.584              1.186
 Vibration    12          0.748              1.518              1.048
 Vibration    13          0.768              1.464              0.953
 Vibration    14          0.831              1.308              0.727
 Vibration    15          0.833              1.302              0.719
 Vibration    16          0.945              1.059              0.472

                           ! Non-Optimized Parameters !
 Normal termination of Gaussian 16 at Wed Jan 10 05:08:14 2024.
