 Gaussian 16, Revision A.03,
 Gaussian 16:  ES64L-G16RevA.03 25-Dec-2016

 ----------------------------------------------------------------
 #P UB3LYP/6-311++G(d,p) SCRF=(PCM,Solvent=n,n-DiMethylFormamide)
 ----------------------------------------------------------------

 ------------------
 Radical PCM in DMF
 ------------------
 Symbolic Z-matrix:
 Charge = -1 Multiplicity = 2

                         Standard orientation:
 ---------------------------------------------------------------------
 Center     Atomic      Atomic             Coordinates (Angstroms)
 Number     Number       Type             X           Y           Z
 ---------------------------------------------------------------------
      1          6           0       -2.323548   -1.786294   -0.674906
      2          8           0       -1.321766   -1.476213    0.289995
      3          6           0       -0.680841   -0.268989    0.108271
      4          6           0        0.680952   -0.269228   -0.108940
      5          8           0        1.321737   -1.476464   -0.291109
      6          6           0        2.321282   -1.787772    0.675629
      7          6           0        1.447710    0.969454   -0.228662
      8          8           0        2.694212    0.970463   -0.443691
      9          6           0        0.678025    2.184316   -0.100903
     10          6           0       -0.676724    2.184583    0.100681
     11          6           0       -1.446870    0.970092    0.229013
     12          8           0       -2.693363    0.971796    0.444283
     13          1           0       -1.876105   -1.891043   -1.672632
     14          1           0       -2.750507   -2.746383   -0.374801
     15          1           0       -3.101084   -1.019591   -0.688465
     16          1           0        2.749920   -2.746828    0.374618
     17          1           0        1.871397   -1.894950    1.671996
     18          1           0        3.098246   -1.020518    0.692662
     19          1           0        1.235247    3.112595   -0.189060
     20          1           0       -1.233584    3.113089    0.188768
 ---------------------------------------------------------------------

 SCF Done:  E(UB3LYP) =  -610.828146809     A.U. after   16 cycles

 The electronic state is 2-A.
 Alpha  occ. eigenvalues --  -19.13653 -19.13650 -19.07917 -19.07916 -10.22307
 Alpha  occ. eigenvalues --  -10.22305 -10.21770 -10.21711 -10.20594 -10.20594
 Alpha  occ. eigenvalues --  -10.16423 -10.16358  -1.06158  -1.04260  -0.99785
 Alpha  occ. eigenvalues --   -0.99554  -0.82145  -0.75193  -0.70790  -0.67014
 Alpha  occ. eigenvalues --   -0.67009  -0.58979  -0.57185  -0.51062  -0.49569
 Alpha  occ. eigenvalues --   -0.48833  -0.46763  -0.44769  -0.44551  -0.44216
 Alpha  occ. eigenvalues --   -0.42641  -0.41159  -0.39894  -0.38451  -0.38268
 Alpha  occ. eigenvalues --   -0.37147  -0.34892  -0.34880  -0.29182  -0.28951
 Alpha  occ. eigenvalues --   -0.28031  -0.24145  -0.23849  -0.23198  -0.16357
 Alpha virt. eigenvalues --   -0.00673   0.00266   0.00906   0.01264   0.02331
 Alpha virt. eigenvalues --    0.03092   0.03113   0.03433   0.03788   0.04956
 Alpha virt. eigenvalues --    0.05762   0.06554   0.07546   0.07645   0.08118

  Beta  occ. eigenvalues --  -19.13638 -19.13635 -19.07228 -19.07228 -10.22153
  Beta  occ. eigenvalues --  -10.22151 -10.21692 -10.21632 -10.20590 -10.20590
  Beta  occ. eigenvalues --  -10.16294 -10.16229  -1.06065  -1.04151  -0.98608
  Beta  occ. eigenvalues --   -0.98375  -0.81551  -0.74983  -0.70489  -0.66864
  Beta  occ. eigenvalues --   -0.66139  -0.58628  -0.56859  -0.50957  -0.49392
  Beta  occ. eigenvalues --   -0.48469  -0.46459  -0.44540  -0.44411  -0.44103
  Beta  occ. eigenvalues --   -0.42474  -0.40465  -0.38259  -0.37999  -0.37851
  Beta  occ. eigenvalues --   -0.34896  -0.34502  -0.34440  -0.28888  -0.28709
  Beta  occ. eigenvalues --   -0.24994  -0.23496  -0.23294  -0.22480
  Beta virt. eigenvalues --   -0.09113  -0.00296   0.00918   0.01044   0.01665
  Beta virt. eigenvalues --    0.02513   0.03153   0.03448   0.03829   0.04908
  Beta virt. eigenvalues --    0.04980   0.05878   0.06813   0.07634   0.07705

 Mulliken charges and spin densities:
               1          2
     1  C   -0.269407   0.000723
     2  O   -0.202013   0.000611
     3  C    0.037290   0.067830
     4  C    0.038357   0.067841
     5  O   -0.201816   0.000577
     6  C   -0.269646   0.000724
     7  C   -0.193663   0.102471
     8  O   -0.506007   0.244784
     9  C   -0.017567   0.090905
    10  C   -0.017313   0.090826
    11  C   -0.195559   0.102529
    12  O   -0.506015   0.244830
    13  H    0.141846   0.000932
    14  H    0.151579   0.000150
    15  H    0.169297  -0.000193
    16  H    0.151640   0.000158
    17  H    0.141897   0.000928
    18  H    0.169173  -0.000195
    19  H    0.188962  -0.008218
    20  H    0.188966  -0.008212
 Sum of Mulliken charges =  -1.00000   1.00000

 Dipole moment (field-independent basis, Debye):
    X=             -0.0057    Y=             -3.2254    Z=              0.0014  Tot=              3.2254
 Quadrupole moment (field-independent basis, Debye-Ang):
   XX=           -105.5060   YY=            -76.7446   ZZ=            -75.2260
   XY=              0.0103   XZ=             11.5168   YZ=             -0.0090

 Normal termination of Gaussian 16 at Wed Jan 24 22:49:54 2024.
