 Q-Chem 5.4, Q-Chem, Inc., Pleasanton, CA (2021)
 Q-Chem 5.4.0 for Intel X86 EM64T Linux

User input:
--------------------------------------------------------------
$molecule
-1 2
C                 -0.9400550000      2.0907850000     -0.2181370000
C                 -1.3410870000      2.2042650000      1.1000680000
C                 -0.6839640000      1.4641910000      2.1037800000
C                  0.1258220000      1.2383260000     -0.5791590000
C                  0.7914130000      0.4898770000      0.4338370000
C                  0.3644180000      0.6234380000      1.7665310000
C                  0.5449320000      1.1201330000     -1.9597250000
C                  1.6443590000      0.2228910000     -2.2303740000
C                  2.3048380000     -0.5217950000     -1.2761280000
C                  1.9146070000     -0.4166360000      0.1132870000
O                  0.0216970000      1.7420210000     -2.9420700000
O                  2.4996560000     -1.0676920000      1.0181760000
H                 -1.4298750000      2.6495420000     -1.0076770000
H                 -2.1628820000      2.8639870000      1.3634040000
H                 -0.9997090000      1.5538530000      3.1389490000
H                  0.8882270000      0.0432340000      2.5178060000
O                  1.9862140000      0.1652380000     -3.5507050000
C                  3.4467710000     -1.4353670000     -1.6390720000
C                  4.8275760000     -0.7690020000     -1.4863740000
C                  5.9906930000     -1.7087390000     -1.8217010000
C                  7.3697460000     -1.0563000000     -1.6719750000
C                  8.5379290000     -1.9912460000     -2.0061720000
C                  9.9145980000     -1.3343740000     -1.8527160000
C                 11.0839640000     -2.2673550000     -2.1870860000
C                 12.4576270000     -1.6031160000     -2.0301270000
C                 13.6243890000     -2.5452810000     -2.3696460000
C                 14.9626840000     -1.8490300000     -2.2005140000
Br                16.4967680000     -3.0423890000     -2.6352100000
H                  1.3385770000      0.7851890000     -3.9538450000
H                  3.3271050000     -1.7798290000     -2.6714280000
H                  3.4097890000     -2.3076240000     -0.9784430000
H                  4.9278870000     -0.4139190000     -0.4552120000
H                  4.8719700000      0.1141720000     -2.1349940000
H                  5.8758460000     -2.0773430000     -2.8503980000
H                  5.9374030000     -2.5929980000     -1.1726770000
H                  7.4836200000     -0.6891230000     -0.6437140000
H                  7.4212120000     -0.1696860000     -2.3177330000
H                  8.4251870000     -2.3578990000     -3.0350810000
H                  8.4869840000     -2.8781850000     -1.3609750000
H                 10.0269050000     -0.9685750000     -0.8237660000
H                  9.9648450000     -0.4468340000     -2.4969880000
H                 10.9748110000     -2.6320070000     -3.2164420000
H                 11.0363270000     -3.1546010000     -1.5429710000
H                 12.5678370000     -1.2411300000     -1.0001430000
H                 12.5051400000     -0.7158300000     -2.6740070000
H                 13.5251880000     -2.9013600000     -3.3997510000
H                 13.5875240000     -3.4282400000     -1.7240790000
H                 15.1416930000     -1.5331130000     -1.1745930000
H                 15.0776050000     -0.9982910000     -2.8693990000
$end
$rem
MAX_SCF_CYCLES=200
BASIS  =  6-311++G(d,p)
GUI  =  2
JOB_TYPE  =  SP
THRESH = 14
SCF_CONVERGENCE = 6
METHOD  =  B3LYP
SOLVENT_METHOD = COSMO
$end
$solvent
dielectric 37.219
opticaldielectric 1.43
$end

--------------------------------------------------------------

             Standard Nuclear Orientation (Angstroms)
    I     Atom           X                Y                Z
 ----------------------------------------------------------------
    1      C       8.2542093746     0.0722755280     1.0710587262
    2      C       8.8467346704     1.3208239179     1.1086018912
    3      C       8.1800819811     2.4350720556     0.5599825138
    4      C       6.9814908067    -0.1071681597     0.4870172721
    5      C       6.3060167405     1.0177676081    -0.0676019532
    6      C       6.9301634334     2.2763605767    -0.0164041650
    7      C       6.3619468606    -1.4149288255     0.4481251455
    8      C       5.0589212498    -1.4983936359    -0.1700914017
    9      C       4.3812176784    -0.4324886309    -0.7232094417
   10      C       4.9711420954     0.8883833899    -0.6900586097
   11      O       6.8752790973    -2.4851049805     0.9136724157
   12      O       4.3809555581     1.8912032405    -1.1706962574
   13      H       8.7471215622    -0.7996043548     1.4862327553
   14      H       9.8265253717     1.4441869520     1.5610593274
   15      H       8.6463004143     3.4154087665     0.5898043760
   16      H       6.3943358798     3.1157459824    -0.4450621281
   17      O       4.5359887467    -2.7593442759    -0.1673094066
   18      C       3.0208731434    -0.6011105732    -1.3488151560
   19      C       1.8650210967    -0.3036063309    -0.3744031731
   20      C       0.4820062976    -0.4408927106    -1.0200141221
   21      C      -0.6757739732    -0.1458933807    -0.0595965356
   22      C      -2.0624107826    -0.2816358981    -0.6993429754
   23      C      -3.2163629658     0.0165389394     0.2648837765
   24      C      -4.6037101537    -0.1193161800    -0.3726778690
   25      C      -5.7525896141     0.1815890475     0.5980598112
   26      C      -7.1402482682     0.0407364532    -0.0491230143
   27      C      -8.2460109989     0.3476098459     0.9446184509
   28      Br    -10.0584649904     0.1718452651     0.1380222848
   29      H       5.2478161104    -3.2717680495     0.2765582161
   30      H       2.9157911349    -1.6226477296    -1.7284894126
   31      H       2.9456284186     0.0901126963    -2.1944978631
   32      H       1.9910358500     0.7137451464     0.0110284776
   33      H       1.9372812941    -0.9824999874     0.4838257666
   34      H       0.3672156676    -1.4570316972    -1.4219605505
   35      H       0.4181218785     0.2373056829    -1.8813802903
   36      H      -0.5604344181     0.8697563918     0.3407273932
   37      H      -0.6091433887    -0.8212044434     0.8036831771
   38      H      -2.1788086332    -1.2978065475    -1.0989023116
   39      H      -2.1296948423     0.3932021963    -1.5628253164
   40      H      -3.0997372936     1.0327348697     0.6635116191
   41      H      -3.1481415736    -0.6575016460     1.1288013383
   42      H      -4.7231655276    -1.1355622712    -0.7694568112
   43      H      -4.6743997793     0.5548914453    -1.2356992688
   44      H      -5.6346814338     1.1987207505     0.9925061426
   45      H      -5.6817392128    -0.4924037105     1.4610947862
   46      H      -7.2674177151    -0.9753773744    -0.4352447889
   47      H      -7.2201294963     0.7175667819    -0.9054244045
   48      H      -8.2055613829     1.3717886161     1.3103825093
   49      H      -8.2519434671    -0.3407128381     1.7875582555
 ----------------------------------------------------------------

   15   -3577.3880662432      5.22e-07  Convergence criterion met
 Total energy in the final basis set =    -3577.3880662432
    6   -3577.4715447788      9.98e-07  Convergence criterion met
 Total energy in the final basis set =    -3577.4715447788

                    Orbital Energies (a.u.)
 --------------------------------------------------------------

 Alpha MOs
 -- Occupied --
******** -62.4727 -56.2929 -56.2894 -56.2894 -19.1445 -19.0889 -19.0770
-10.2254 -10.2234 -10.2225 -10.2216 -10.1756 -10.1734 -10.1727 -10.1721
-10.1711 -10.1708 -10.1694 -10.1651 -10.1634 -10.1595 -10.1567 -10.1567
-10.1556 -10.1548 -10.1544 -10.1541  -8.6813  -6.5118  -6.5003  -6.5001
 -2.6228  -2.6196  -2.6194  -2.6103  -2.6103  -1.0646  -1.0026  -0.9989
 -0.8592  -0.8253  -0.8140  -0.8026  -0.7853  -0.7653  -0.7514  -0.7441
 -0.7188  -0.6897  -0.6685  -0.6427  -0.6194  -0.6091  -0.5909  -0.5792
 -0.5717  -0.5699  -0.5668  -0.5373  -0.5052  -0.4891  -0.4850  -0.4742
 -0.4621  -0.4532  -0.4491  -0.4388  -0.4311  -0.4271  -0.4269  -0.4252
 -0.4198  -0.4109  -0.4037  -0.4020  -0.3902  -0.3893  -0.3846  -0.3767
 -0.3746  -0.3627  -0.3606  -0.3539  -0.3456  -0.3430  -0.3410  -0.3375
 -0.3357  -0.3274  -0.3248  -0.3191  -0.3174  -0.3147  -0.3035  -0.2840
 -0.2827  -0.2689  -0.2630  -0.2587  -0.2423  -0.2285  -0.1534

 Beta MOs
 -- Occupied --
******** -62.4727 -56.2929 -56.2894 -56.2894 -19.1441 -19.0828 -19.0718
-10.2240 -10.2217 -10.2216 -10.2203 -10.1755 -10.1727 -10.1723 -10.1720
-10.1704 -10.1703 -10.1696 -10.1651 -10.1626 -10.1595 -10.1568 -10.1567
-10.1556 -10.1548 -10.1543 -10.1541  -8.6813  -6.5118  -6.5003  -6.5001
 -2.6228  -2.6196  -2.6194  -2.6103  -2.6103  -1.0624  -0.9934  -0.9886
 -0.8568  -0.8252  -0.8119  -0.8016  -0.7843  -0.7642  -0.7492  -0.7432
 -0.7180  -0.6871  -0.6623  -0.6414  -0.6179  -0.6076  -0.5899  -0.5787
 -0.5710  -0.5693  -0.5653  -0.5355  -0.5029  -0.4890  -0.4826  -0.4735
 -0.4609  -0.4524  -0.4486  -0.4318  -0.4303  -0.4258  -0.4248  -0.4224
 -0.4157  -0.4089  -0.4013  -0.3997  -0.3888  -0.3841  -0.3790  -0.3751
 -0.3696  -0.3621  -0.3542  -0.3505  -0.3427  -0.3392  -0.3372  -0.3345
 -0.3301  -0.3270  -0.3242  -0.3190  -0.3172  -0.3145  -0.3028  -0.2840
 -0.2827  -0.2577  -0.2518  -0.2495  -0.2374  -0.2199

          Ground-State Mulliken Net Atomic Charges

     Atom                 Charge (a.u.)    Spin (a.u.)
  --------------------------------------------------------
      1 C                     0.001384       0.075588
      2 C                    -0.392098      -0.001420
      3 C                    -0.474878       0.072241
      4 C                     0.502494      -0.005735
      5 C                    -0.129505       0.057219
      6 C                     0.068322       0.004363
      7 C                    -0.867117       0.175953
      8 C                    -0.615829       0.056755
      9 C                     2.011673       0.054717
     10 C                    -0.671243       0.082889
     11 O                    -0.556327       0.222251
     12 O                    -0.484710       0.193205
     13 H                     0.181298      -0.004079
     14 H                     0.204558      -0.000634
     15 H                     0.199654      -0.005104
     16 H                     0.180681      -0.000310
     17 O                    -0.302497       0.016206
     18 C                    -0.401294       0.012869
     19 C                    -0.866316      -0.000239
     20 C                    -0.331768       0.000316
     21 C                    -0.017617      -0.004982
     22 C                     0.019415      -0.001343
     23 C                     0.011747      -0.000125
     24 C                    -0.124351       0.000375
     25 C                    -0.330722       0.000023
     26 C                    -0.408671       0.000017
     27 C                    -0.601796      -0.000015
     28 Br                   -0.229064       0.000002
     29 H                     0.307809      -0.003447
     30 H                     0.221287      -0.000510
     31 H                     0.203851       0.002516
     32 H                     0.181439      -0.001566
     33 H                     0.172204       0.002037
     34 H                     0.119758      -0.000377
     35 H                     0.122595       0.000458
     36 H                     0.131938      -0.000051
     37 H                     0.131994      -0.000053
     38 H                     0.137332      -0.000008
     39 H                     0.137506       0.000003
     40 H                     0.137073       0.000003
     41 H                     0.136928      -0.000004
     42 H                     0.138716      -0.000011
     43 H                     0.138418       0.000005
     44 H                     0.144701      -0.000002
     45 H                     0.144449       0.000001
     46 H                     0.151860       0.000001
     47 H                     0.151796      -0.000001
     48 H                     0.206566      -0.000000
     49 H                     0.206357       0.000002
  --------------------------------------------------------
  Sum of atomic charges =    -1.000000

                    Cartesian Multipole Moments
 -----------------------------------------------------------------
    Charge (ESU x 10^10)
                -4.8032
    Dipole Moment (Debye)
         X     -22.7933      Y       1.8214      Z       2.1897
       Tot      22.9706
    Quadrupole Moments (Debye-Ang)
        XX    -365.4436     XY      19.4610     YY    -183.6854
        XZ      -5.4785     YZ       8.9197     ZZ    -169.3610

 Total job time:  519.12s(wall), 3950.84s(cpu)
        *  Thank you very much for using Q-Chem.  Have a nice day.  *
