 Q-Chem 5.4, Q-Chem, Inc., Pleasanton, CA (2021)
 Q-Chem 5.4.0 for Intel X86 EM64T Linux

User input:
--------------------------------------------------------------
$molecule
-2 1
N                 -4.5579810000      1.0371550000     -0.4993690000
C                 -3.2778340000      0.4628570000     -0.3243410000
C                 -3.1442970000     -0.9581460000     -0.2528790000
Cl                -4.6511820000     -1.9616660000     -0.2023180000
C                 -1.9301130000     -1.5770950000     -0.1953280000
C                 -0.7292000000     -0.8389040000     -0.1413090000
C                  0.5012090000     -1.6015760000     -0.1011250000
O                  0.5266080000     -2.8822730000     -0.1842190000
C                  1.6920820000     -0.8032550000      0.0766340000
C                  2.9577420000     -1.4403860000      0.1299720000
C                  4.1283460000     -0.7322750000      0.3067670000
C                  4.0747980000      0.6827750000      0.4427010000
C                  2.8559830000      1.3283710000      0.4034680000
C                  1.6334620000      0.6318050000      0.2204820000
C                  0.3965330000      1.4012520000      0.2051360000
O                  0.4050510000      2.6673750000      0.3989830000
C                 -0.7916240000      0.6237140000     -0.0547820000
C                 -2.1009410000      1.1836000000     -0.2278220000
Br                -2.3188030000      3.1126970000     -0.6208660000
H                 -4.4877210000      1.9775130000     -0.8727140000
H                 -5.1645660000      0.4558700000     -1.0662160000
H                 -1.8342420000     -2.6566400000     -0.1776620000
H                  2.9585620000     -2.5211090000      0.0261700000
H                  5.0853300000     -1.2500440000      0.3438420000
H                  4.9926790000      1.2526470000      0.5781450000
H                  2.7801190000      2.4057410000      0.5112380000
$end
$rem
MAX_SCF_CYCLES=200
BASIS  =  6-311++G(d,p)
GUI  =  2
JOB_TYPE  =  SP
METHOD  =  B3LYP
SOLVENT_METHOD = COSMO
$end
$solvent
dielectric 37.219
opticaldielectric 1.43
$end

--------------------------------------------------------------

             Standard Nuclear Orientation (Angstroms)
    I     Atom           X                Y                Z
 ----------------------------------------------------------------
    1      N       3.7617106379    -0.1307556299     0.0485487002
    2      C       2.4077287487     0.2760923217     0.0694561893
    3      C       2.0879756520     1.6689078903     0.0661061403
    4      Cl      3.4414398009     2.8619575158     0.2244683739
    5      C       0.8057200820     2.1251556489    -0.0250607605
    6      C      -0.2906515625     1.2381532063    -0.0601595145
    7      C      -1.6053460146     1.8341897440    -0.1763859489
    8      O      -1.7843817180     3.0975381418    -0.3164986562
    9      C      -2.6971718995     0.8925746770    -0.0848955904
   10      C      -4.0320668002     1.3599825814    -0.1861948692
   11      C      -5.1152608204     0.5103853159    -0.0975010911
   12      C      -4.8969415195    -0.8808573353     0.1037264204
   13      C      -3.6086567538    -1.3623637105     0.2147102076
   14      C      -2.4721389334    -0.5175996757     0.1255663166
   15      C      -1.1527616410    -1.1187623434     0.2674273189
   16      O      -1.0206629117    -2.3688278782     0.5136035797
   17      C      -0.0523450131    -0.2005285963     0.0948880613
   18      C       1.3283680014    -0.5892205195     0.0782645381
   19      Br      1.8296210816    -2.4840255978    -0.2077804531
   20      H       3.8510957600    -1.0828556296    -0.2892559996
   21      H       4.3456815307     0.5078481790    -0.4790082224
   22      H       0.5721498435     3.1829324801    -0.0634516756
   23      H      -4.1592782596     2.4277654758    -0.3358433419
   24      H      -6.1288294460     0.8994025145    -0.1788763315
   25      H      -5.7440898423    -1.5616319337     0.1707366359
   26      H      -3.4082706438    -2.4168908604     0.3756876390
 ----------------------------------------------------------------

   12   -3777.4722926175      6.07e-06  Convergence criterion met
 Total energy in the final basis set =    -3777.4722926175
    6   -3777.7340976541      3.93e-06  Convergence criterion met
 Total energy in the final basis set =    -3777.7340976541

                    Orbital Energies (a.u.)
 --------------------------------------------------------------

 Alpha MOs
 -- Occupied --
********-101.5487 -62.4659 -56.2862 -56.2827 -56.2823 -19.0337 -19.0237
-14.3119 -10.2194 -10.2166 -10.2114 -10.1865 -10.1844 -10.1653 -10.1591
-10.1537 -10.1531 -10.1511 -10.1509 -10.1493 -10.1446 -10.1439  -9.4629
 -8.6746  -7.2272  -7.2180  -7.2177  -6.5054  -6.4937  -6.4928  -2.6163
 -2.6132  -2.6126  -2.6033  -2.6032  -0.9536  -0.9472  -0.9218  -0.8557
 -0.8319  -0.8231  -0.7797  -0.7526  -0.7282  -0.7150  -0.7069  -0.6440
 -0.6150  -0.5961  -0.5720  -0.5379  -0.5200  -0.5062  -0.4921  -0.4676
 -0.4430  -0.4418  -0.4315  -0.4095  -0.4073  -0.4017  -0.3941  -0.3861
 -0.3776  -0.3755  -0.3721  -0.3464  -0.3373  -0.3344  -0.3298  -0.3263
 -0.3152  -0.3100  -0.2941  -0.2854  -0.2795  -0.2374  -0.2321  -0.2270
 -0.2143  -0.2075  -0.1978  -0.1145

          Ground-State Mulliken Net Atomic Charges

     Atom                 Charge (a.u.)
  ----------------------------------------
      1 N                    -0.200725
      2 C                    -2.265340
      3 C                     1.552099
      4 Cl                    0.368216
      5 C                    -0.248444
      6 C                    -0.449920
      7 C                    -0.637577
      8 O                    -0.666351
      9 C                     0.165997
     10 C                     0.026287
     11 C                    -0.584003
     12 C                    -0.514147
     13 C                     0.045081
     14 C                     0.322054
     15 C                    -1.240965
     16 O                    -0.589748
     17 C                     1.088574
     18 C                     0.645376
     19 Br                   -0.233991
     20 H                     0.265349
     21 H                     0.257819
     22 H                     0.207191
     23 H                     0.161224
     24 H                     0.181733
     25 H                     0.182947
     26 H                     0.161263
  ----------------------------------------
  Sum of atomic charges =    -2.000000

                    Cartesian Multipole Moments
 -----------------------------------------------------------------
    Charge (ESU x 10^10)
                -9.6064
    Dipole Moment (Debye)
         X       9.6394      Y      -2.8964      Z      -2.2446
       Tot      10.3124
    Quadrupole Moments (Debye-Ang)
        XX    -173.2554     XY       5.9670     YY    -196.8081
        XZ      -7.1473     YZ       6.8724     ZZ    -143.0104

 Total job time:  114.83s(wall), 731.56s(cpu)
        *  Thank you very much for using Q-Chem.  Have a nice day.  *
