 Q-Chem 5.4, Q-Chem, Inc., Pleasanton, CA (2021)
 Q-Chem 5.4.0 for Intel X86 EM64T Linux

User input:
--------------------------------------------------------------
$molecule
-1 2
Cl                 3.0043150000     -0.8511890000     -0.1888820000
C                  1.3132820000     -0.3365110000     -0.0815040000
C                  1.0288330000      0.9974100000     -0.0260450000
C                 -0.3351400000      1.4787530000      0.0625630000
O                 -0.6120430000      2.7073470000      0.1144470000
C                 -1.3575070000      0.4531190000      0.0874050000
C                 -1.0394580000     -0.8733070000      0.0303460000
Cl                -2.3427650000     -2.0711040000      0.0653450000
C                  0.3171630000     -1.4033500000     -0.0593610000
O                  0.5926080000     -2.6188390000     -0.1107650000
H                  1.8190580000      1.7379970000     -0.0468030000
H                 -2.3883470000      0.7796740000      0.1532530000
$end

$rem
BASIS  =  6-311++G(d,p)
GUI  =  2
JOB_TYPE  =  SP
METHOD  =  B3LYP
SCF_CONVERGENCE  = 8
SOLVENT_METHOD = sm12
$end

$smx
solvent dimethylformamide
charges CM5
$end

--------------------------------------------------------------

             Standard Nuclear Orientation (Angstroms)
    I     Atom           X                Y                Z
 ----------------------------------------------------------------
    1      Cl      3.0043150000    -0.8511890000    -0.1888820000
    2      C       1.3132820000    -0.3365110000    -0.0815040000
    3      C       1.0288330000     0.9974100000    -0.0260450000
    4      C      -0.3351400000     1.4787530000     0.0625630000
    5      O      -0.6120430000     2.7073470000     0.1144470000
    6      C      -1.3575070000     0.4531190000     0.0874050000
    7      C      -1.0394580000    -0.8733070000     0.0303460000
    8      Cl     -2.3427650000    -2.0711040000     0.0653450000
    9      C       0.3171630000    -1.4033500000    -0.0593610000
   10      O       0.5926080000    -2.6188390000    -0.1107650000
   11      H       1.8190580000     1.7379970000    -0.0468030000
   12      H      -2.3883470000     0.7796740000     0.1532530000
 ----------------------------------------------------------------

   18   -1300.8989813255      3.04e-09  Convergence criterion met
 Total energy in the final basis set =    -1300.9759007023

                    Orbital Energies (a.u.)
 --------------------------------------------------------------

 Alpha MOs
 -- Occupied --
********-101.5517 -19.0894 -19.0863 -10.2435 -10.2355 -10.2354 -10.2354
-10.1818 -10.1818  -9.4655  -9.4655  -7.2301  -7.2299  -7.2208  -7.2208
 -7.2200  -7.2199  -1.0194  -1.0080  -0.8812  -0.8683  -0.8058  -0.7360
 -0.6966  -0.6019  -0.5818  -0.5037  -0.4853  -0.4559  -0.4352  -0.4351
 -0.4171  -0.3979  -0.3889  -0.3862  -0.3615  -0.3368  -0.3161  -0.3096
 -0.2827  -0.2569  -0.2563  -0.2490  -0.1747

 Beta MOs
 -- Occupied --
********-101.5517 -19.0820 -19.0788 -10.2424 -10.2346 -10.2343 -10.2343
-10.1806 -10.1806  -9.4655  -9.4655  -7.2301  -7.2299  -7.2207  -7.2207
 -7.2200  -7.2199  -1.0069  -0.9950  -0.8774  -0.8673  -0.8021  -0.7336
 -0.6864  -0.5978  -0.5778  -0.5016  -0.4811  -0.4533  -0.4344  -0.4193
 -0.4095  -0.3925  -0.3842  -0.3616  -0.3584  -0.3225  -0.3157  -0.3092
 -0.2536  -0.2502  -0.2492  -0.2421

          Ground-State Mulliken Net Atomic Charges

     Atom                 Charge (a.u.)    Spin (a.u.)
  --------------------------------------------------------
      1 Cl                    0.470883       0.003821
      2 C                     1.276813       0.088503
      3 C                    -0.540107       0.088193
      4 C                    -1.246166       0.091768
      5 O                    -0.395203       0.264328
      6 C                    -0.532050       0.088483
      7 C                     1.276266       0.089550
      8 Cl                    0.471707       0.003894
      9 C                    -1.909627       0.022138
     10 O                    -0.272407       0.274435
     11 H                     0.199896      -0.007542
     12 H                     0.199995      -0.007572
  --------------------------------------------------------
  Sum of atomic charges =    -1.000000

                    Cartesian Multipole Moments
 -----------------------------------------------------------------
    Charge (ESU x 10^10)
                -4.8032
    Dipole Moment (Debye)
         X      -0.2871      Y       1.2621      Z       0.0530
       Tot       1.2954
    Quadrupole Moments (Debye-Ang)
        XX     -84.1111     XY       6.0259     YY    -109.4775
        XZ       0.7170     YZ      -1.3829     ZZ     -74.3433

 Total job time:  139.66s(wall), 935.59s(cpu)
        *  Thank you very much for using Q-Chem.  Have a nice day.  *
