 Gaussian 16, Revision A.03,
 Gaussian 16:  ES64L-G16RevA.03 25-Dec-2016

 --------------------------------------
 #P UB3LYP/6-311++G(d,p) nosym opt freq
 --------------------------------------

 -------
 Radical
 -------
 Symbolic Z-matrix:
 Charge = -1 Multiplicity = 2

 SCF Done:  E(UB3LYP) =  -1300.89976675     A.U. after   23 cycles
 Optimization completed.
    -- Stationary point found.
 Normal termination of Gaussian 16 at Sat Jan  6 05:38:28 2024.

 ----------------------------------------------------------------------
 #P Geom=AllCheck Guess=TCheck SCRF=Check GenChk UB3LYP/6-311++G(d,p) F
 req
 ----------------------------------------------------------------------

 Structure from the checkpoint file:  "011-rad.chk"
 -------
 Radical
 -------
 Charge = -1 Multiplicity = 2

                          Input orientation:
 ---------------------------------------------------------------------
 Center     Atomic      Atomic             Coordinates (Angstroms)
 Number     Number       Type             X           Y           Z
 ---------------------------------------------------------------------
      1         17           0        3.004315   -0.851189   -0.188882
      2          6           0        1.313282   -0.336511   -0.081504
      3          6           0        1.028833    0.997410   -0.026045
      4          6           0       -0.335140    1.478753    0.062563
      5          8           0       -0.612043    2.707347    0.114447
      6          6           0       -1.357507    0.453119    0.087405
      7          6           0       -1.039458   -0.873307    0.030346
      8         17           0       -2.342765   -2.071104    0.065345
      9          6           0        0.317163   -1.403350   -0.059361
     10          8           0        0.592608   -2.618839   -0.110765
     11          1           0        1.819058    1.737997   -0.046803
     12          1           0       -2.388347    0.779674    0.153253
 ---------------------------------------------------------------------

 SCF Done:  E(UB3LYP) =  -1300.89976675     A.U. after    2 cycles

 Alpha  occ. eigenvalues -- -101.42604-101.42601 -18.95587 -18.95281 -10.11150
 Alpha  occ. eigenvalues --  -10.10511 -10.10508 -10.10233 -10.05034 -10.05034
 Alpha  occ. eigenvalues --   -9.34050  -9.34048  -7.10480  -7.10478  -7.09572
 Alpha  occ. eigenvalues --   -7.09571  -7.09501  -7.09500  -0.88624  -0.87448
 Alpha  occ. eigenvalues --   -0.75213  -0.74065  -0.67688  -0.60601  -0.56488
 Alpha  occ. eigenvalues --   -0.47126  -0.45074  -0.37169  -0.35370  -0.32787
 Alpha  occ. eigenvalues --   -0.30675  -0.30303  -0.28382  -0.26586  -0.25568
 Alpha  occ. eigenvalues --   -0.25527  -0.23623  -0.20973  -0.19304  -0.18623
 Alpha  occ. eigenvalues --   -0.15274  -0.12793  -0.12306  -0.11579  -0.04177
 Alpha virt. eigenvalues --    0.10240   0.10432   0.11368   0.11486   0.13072
 Alpha virt. eigenvalues --    0.14990   0.15114   0.16017   0.16362   0.17734
 Alpha virt. eigenvalues --    0.18422   0.18475   0.19573   0.19690   0.20299

  Beta  occ. eigenvalues -- -101.42602-101.42600 -18.94850 -18.94519 -10.11050
  Beta  occ. eigenvalues --  -10.10398 -10.10396 -10.10161 -10.04906 -10.04906
  Beta  occ. eigenvalues --   -9.34048  -9.34047  -7.10485  -7.10484  -7.09561
  Beta  occ. eigenvalues --   -7.09559  -7.09501  -7.09500  -0.87394  -0.86133
  Beta  occ. eigenvalues --   -0.74853  -0.73970  -0.67302  -0.60347  -0.55466
  Beta  occ. eigenvalues --   -0.46717  -0.44678  -0.36958  -0.34957  -0.32538
  Beta  occ. eigenvalues --   -0.30594  -0.28789  -0.27615  -0.26035  -0.25372
  Beta  occ. eigenvalues --   -0.23348  -0.22843  -0.19629  -0.19256  -0.18585
  Beta  occ. eigenvalues --   -0.12189  -0.12081  -0.11606  -0.10874
  Beta virt. eigenvalues --    0.03133   0.10465   0.11373   0.11564   0.11671
  Beta virt. eigenvalues --    0.13095   0.15187   0.16064   0.16135   0.17689
  Beta virt. eigenvalues --    0.17784   0.18469   0.18598   0.19638   0.19691

 Mulliken charges and spin densities:
               1          2
     1  Cl   0.193800   0.002461
     2  C    1.226492   0.085684
     3  C   -0.477227   0.094804
     4  C   -0.838593   0.088823
     5  O   -0.403621   0.269300
     6  C   -0.473616   0.095221
     7  C    1.225757   0.086596
     8  Cl   0.193963   0.002541
     9  C   -1.700599   0.019792
    10  O   -0.277434   0.270841
    11  H    0.165518  -0.008008
    12  H    0.165560  -0.008054
 Sum of Mulliken charges =  -1.00000   1.00000

 Dipole moment (field-independent basis, Debye):
    X=             -0.3801    Y=              1.6742    Z=              0.0709  Tot=              1.7182
 Quadrupole moment (field-independent basis, Debye-Ang):
   XX=            -85.8975   YY=           -109.5495   ZZ=            -74.2543
   XY=              5.6139   XZ=              0.8062   YZ=             -1.3661

  Exact polarizability: 140.807  -4.464 160.173  -4.517   3.240  60.555
 Approx polarizability: 194.417 -21.979 287.394  -6.354   7.122  90.264

                      1                      2                      3
                      A                      A                      A
 Frequencies --     85.1392               160.1703               191.8956
 Red. masses --     18.1067                12.1662                23.1009
 Frc consts  --      0.0773                 0.1839                 0.5012
 IR Inten    --      4.2701                 6.3356                 1.1247

                      4                      5                      6
                      A                      A                      A
 Frequencies --    198.5554               251.3679               326.8151
 Red. masses --      5.1304                16.6363                19.4243
 Frc consts  --      0.1192                 0.6193                 1.2224
 IR Inten    --      0.0001                 0.0396                 0.1456

                      7                      8                      9
                      A                      A                      A
 Frequencies --    341.1850               361.8861               450.3719
 Red. masses --      6.6098                19.8340                 7.9380
 Frc consts  --      0.4533                 1.5304                 0.9486
 IR Inten    --      0.1388                 0.3146                15.0714

                     10                     11                     12
                      A                      A                      A
 Frequencies --    486.7524               491.2711               628.0123
 Red. masses --      5.3037                13.7313                 5.8105
 Frc consts  --      0.7404                 1.9526                 1.3502
 IR Inten    --      0.0000                 0.0098                 4.7212

                     13                     14                     15
                      A                      A                      A
 Frequencies --    638.3733               754.4492               761.8299
 Red. masses --      2.9126                11.7495                 8.8449
 Frc consts  --      0.6993                 3.9403                 3.0245
 IR Inten    --      1.2410               115.6388                 2.7489

                     16                     17                     18
                      A                      A                      A
 Frequencies --    816.5997               847.6914               867.5587
 Red. masses --      6.5999                 1.3261                 1.6997
 Frc consts  --      2.5930                 0.5614                 0.7537
 IR Inten    --     35.3188                 0.0000                42.0402

                     19                     20                     21
                      A                      A                      A
 Frequencies --    916.0196              1019.2275              1114.1890
 Red. masses --      5.8319                 3.0111                 4.1487
 Frc consts  --      2.8832                 1.8430                 3.0344
 IR Inten    --     23.9714               106.5991                51.2139

                     22                     23                     24
                      A                      A                      A
 Frequencies --   1222.4638              1295.7163              1381.0987
 Red. masses --      1.7561                 1.8049                 6.3267
 Frc consts  --      1.5463                 1.7853                 7.1101
 IR Inten    --     11.5565                 1.4076                84.1397

                     25                     26                     27
                      A                      A                      A
 Frequencies --   1482.3700              1512.0240              1549.2385
 Red. masses --      6.3524                11.3620                10.0838
 Frc consts  --      8.2243                15.3046                14.2597
 IR Inten    --      1.3849               131.6792               377.3041

                     28                     29                     30
                      A                      A                      A
 Frequencies --   1622.9656              3185.5536              3187.0917
 Red. masses --      8.4107                 1.0910                 1.0908
 Frc consts  --     13.0527                 6.5232                 6.5283
 IR Inten    --     12.3854                 5.0091                 5.7744

 - Thermochemistry -
 -------------------
 Temperature   298.150 Kelvin.  Pressure   1.00000 Atm.
 Atom     1 has atomic number 17 and mass  34.96885

 Molecular mass:   175.94318 amu.
 Principal axes and moments of inertia in atomic units:
                           1         2         3
     Eigenvalues --  1504.218102169.401173673.61928
           X            0.97397  -0.22008   0.05428
           Y            0.22189   0.97461  -0.02992
           Z           -0.04632   0.04119   0.99808
 This molecule is an asymmetric top.
 Rotational symmetry number  1.
 Warning -- assumption of classical behavior for rotation
           may cause significant error
 Rotational temperatures (Kelvin)      0.05758     0.03993     0.02358
 Rotational constants (GHZ):           1.19979     0.83191     0.49127
 Zero-point vibrational energy     168361.7 (Joules/Mol)
                                   40.23942 (Kcal/Mol)
 Warning -- explicit consideration of  11 degrees of freedom as
           vibrations may cause significant error
 Vibrational temperatures:    122.50   230.45   276.09   285.68   361.66
          (Kelvin)            470.21   490.89   520.67   647.98   700.33
                              706.83   903.57   918.48  1085.48  1096.10
                             1174.90  1219.64  1248.22  1317.95  1466.44
                             1603.07  1758.85  1864.25  1987.09  2132.80
                             2175.47  2229.01  2335.09  4583.30  4585.51

 Zero-point correction=                           0.064126 (Hartree/Particle)
 Thermal correction to Energy=                    0.072633
 Thermal correction to Enthalpy=                  0.073577
 Thermal correction to Gibbs Free Energy=         0.028912
 Sum of electronic and zero-point Energies=          -1300.835641
 Sum of electronic and thermal Energies=             -1300.827134
 Sum of electronic and thermal Enthalpies=           -1300.826190
 Sum of electronic and thermal Free Energies=        -1300.870855

                     E (Thermal)             CV                S
                      KCal/Mol        Cal/Mol-Kelvin    Cal/Mol-Kelvin
 Total                   45.578             30.874             94.005
 Electronic               0.000              0.000              1.377
 Translational            0.889              2.981             41.402
 Rotational               0.889              2.981             30.862
 Vibrational             43.800             24.913             20.364
 Vibration     1          0.601              1.959              3.769
 Vibration     2          0.622              1.891              2.548
 Vibration     3          0.634              1.851              2.209
 Vibration     4          0.637              1.842              2.146
 Vibration     5          0.663              1.760              1.721
 Vibration     6          0.710              1.622              1.276
 Vibration     7          0.721              1.593              1.207
 Vibration     8          0.736              1.551              1.114
 Vibration     9          0.809              1.360              0.795
 Vibration    10          0.843              1.279              0.692
 Vibration    11          0.847              1.269              0.680

                           ! Non-Optimized Parameters !
 Normal termination of Gaussian 16 at Sat Jan  6 05:43:41 2024.
