 Q-Chem 5.4, Q-Chem, Inc., Pleasanton, CA (2021)
 Q-Chem 5.4.0 for Intel X86 EM64T Linux

User input:
--------------------------------------------------------------
$molecule
-2 1
C                 -2.7888400000     -0.8703500000     -0.9810300000
C                 -1.4412210000     -0.4172740000     -0.4628090000
C                 -0.2894430000     -1.1236970000     -0.7697150000
C                  0.9981180000     -0.7330970000     -0.3400440000
C                  2.1666070000     -1.5410150000     -0.7029720000
O                  2.0737660000     -2.6135820000     -1.4054960000
C                  3.3979320000     -1.0301110000     -0.1997170000
C                  3.5068520000      0.1307060000      0.5760560000
C                  2.4003710000      0.9461770000      0.9517880000
O                  2.5100080000      2.0165660000      1.6551880000
C                  1.1100130000      0.4585320000      0.4547950000
C                 -0.0733590000      1.1709780000      0.7498040000
C                 -1.3277440000      0.7779480000      0.3118140000
C                 -2.5622840000      1.5673310000      0.6894810000
H                 -2.7007580000     -1.8156340000     -1.5246580000
H                 -3.5186870000     -1.0167700000     -0.1778800000
H                 -3.2450240000     -0.1365060000     -1.6689250000
H                 -0.3425040000     -2.0246400000     -1.3748690000
H                  4.2935900000     -1.6022100000     -0.4422210000
H                  4.4876810000      0.4583490000      0.9209240000
H                  0.0410850000      2.0639350000      1.3583000000
H                 -3.2610730000      0.9842570000      1.3152090000
H                 -2.2941800000      2.4666370000      1.2518070000
H                 -3.1409100000      1.8834690000     -0.1848320000
$end
$rem
MAX_SCF_CYCLES=200
BASIS  =  6-311++G(d,p)
GUI  =  2
JOB_TYPE  =  SP
METHOD  =  B3LYP
SCF_CONVERGENCE  = 8
SOLVENT_METHOD = COSMO
$end
$solvent
dielectric 37.219
opticaldielectric 1.43
$end

--------------------------------------------------------------

             Standard Nuclear Orientation (Angstroms)
    I     Atom           X                Y                Z
 ----------------------------------------------------------------
    1      C       3.2954167081    -1.4817794939     0.0192019598
    2      C       1.9915078973    -0.7143646377    -0.0091544749
    3      C       0.7764895484    -1.3803387242    -0.0040322732
    4      C      -0.4712312227    -0.7183925804     0.0003308785
    5      C      -1.7128641548    -1.4982388519    -0.0011610316
    6      O      -1.7213651093    -2.7836963137    -0.0104475350
    7      C      -2.8933551903    -0.7001870710     0.0008434423
    8      C      -2.8933453982     0.7002343419    -0.0009697316
    9      C      -1.7128281648     1.4982582443     0.0011759377
   10      O      -1.7212864276     2.7837021193     0.0105003684
   11      C      -0.4712219256     0.7183637875    -0.0002521036
   12      C       0.7764988658     1.3802947417     0.0041230264
   13      C       1.9915049137     0.7143187683     0.0092078898
   14      C       3.2953543169     1.4817895589    -0.0192914844
   15      H       3.1156127301    -2.5596914332    -0.0320626702
   16      H       3.9558763991    -1.2160843680    -0.8128824584
   17      H       3.8788846330    -1.2888526386     0.9369027816
   18      H       0.7454809818    -2.4664813595     0.0035682018
   19      H      -3.8409192482    -1.2390786850    -0.0043424303
   20      H      -3.8408909867     1.2391601351     0.0041044493
   21      H       0.7455169674     2.4664436650    -0.0034699635
   22      H       3.8783160987     1.2895603386    -0.9374528939
   23      H       3.1155315616     2.5596544716     0.0327908872
   24      H       3.9562459948     1.2155749283     0.8122892184
 ----------------------------------------------------------------

   29    -613.8846364540      1.50e-09  Convergence criterion met
 Total energy in the final basis set =     -613.8846364540
   12    -614.1762034723      3.87e-09  Convergence criterion met
 Total energy in the final basis set =     -614.1762034723

                    Orbital Energies (a.u.)
 --------------------------------------------------------------

 Alpha MOs
 -- Occupied --
-19.0213 -19.0213 -10.1712 -10.1712 -10.1570 -10.1566 -10.1517 -10.1517
-10.1417 -10.1417 -10.1367 -10.1363 -10.1187 -10.1182  -0.9399  -0.9371
 -0.8338  -0.7734  -0.7416  -0.7275  -0.6824  -0.6539  -0.6286  -0.5758
 -0.5590  -0.5246  -0.4626  -0.4578  -0.4413  -0.4166  -0.4074  -0.4022
 -0.3940  -0.3832  -0.3723  -0.3691  -0.3678  -0.3568  -0.3536  -0.3423
 -0.3229  -0.3113  -0.3046  -0.3033  -0.2279  -0.2257  -0.2092  -0.2038
 -0.1987  -0.1131

          Ground-State Mulliken Net Atomic Charges

     Atom                 Charge (a.u.)
  ----------------------------------------
      1 C                    -0.559823
      2 C                     0.554528
      3 C                    -0.403284
      4 C                     0.015917
      5 C                    -0.515396
      6 O                    -0.754663
      7 C                    -0.078686
      8 C                    -0.078171
      9 C                    -0.516250
     10 O                    -0.754644
     11 C                     0.018460
     12 C                    -0.404126
     13 C                     0.556434
     14 C                    -0.559151
     15 H                     0.166773
     16 H                     0.152556
     17 H                     0.162749
     18 H                     0.119357
     19 H                     0.137999
     20 H                     0.138014
     21 H                     0.119421
     22 H                     0.162796
     23 H                     0.166734
     24 H                     0.152458
  ----------------------------------------
  Sum of atomic charges =    -2.000000

                    Cartesian Multipole Moments
 -----------------------------------------------------------------
    Charge (ESU x 10^10)
                -9.6064
    Dipole Moment (Debye)
         X      15.9962      Y      -0.0005      Z       0.0004
       Tot      15.9962
    Quadrupole Moments (Debye-Ang)
        XX    -118.8250     XY       0.0004     YY    -152.3136
        XZ       0.0012     YZ      -0.3309     ZZ     -93.5825

 Total job time:  122.45s(wall), 918.34s(cpu)
        *  Thank you very much for using Q-Chem.  Have a nice day.  *
