 Gaussian 16, Revision A.03,
 Gaussian 16:  ES64L-G16RevA.03 25-Dec-2016

 --------------------------------------
 #P UB3LYP/6-311++G(d,p) nosym opt freq
 --------------------------------------

 --------
 Oxidized
 --------
 Symbolic Z-matrix:
 Charge =  0 Multiplicity = 1

 SCF Done:  E(UB3LYP) =  -799.647242436     A.U. after   16 cycles
 SCF Done:  E(UB3LYP) =  -799.673052166     A.U. after   15 cycles
 SCF Done:  E(UB3LYP) =  -799.686852670     A.U. after   15 cycles
 SCF Done:  E(UB3LYP) =  -799.698880306     A.U. after   15 cycles
 SCF Done:  E(UB3LYP) =  -799.704036566     A.U. after   14 cycles
 SCF Done:  E(UB3LYP) =  -799.706073460     A.U. after   14 cycles
 SCF Done:  E(UB3LYP) =  -799.707447371     A.U. after   14 cycles
 SCF Done:  E(UB3LYP) =  -799.708908147     A.U. after   14 cycles
 SCF Done:  E(UB3LYP) =  -799.711071313     A.U. after   14 cycles
 SCF Done:  E(UB3LYP) =  -799.711712380     A.U. after   13 cycles
 SCF Done:  E(UB3LYP) =  -799.714162658     A.U. after   12 cycles
 SCF Done:  E(UB3LYP) =  -799.715074092     A.U. after   14 cycles
 SCF Done:  E(UB3LYP) =  -799.715011148     A.U. after   14 cycles
 SCF Done:  E(UB3LYP) =  -799.715994418     A.U. after   12 cycles
 SCF Done:  E(UB3LYP) =  -799.716154678     A.U. after   13 cycles
 SCF Done:  E(UB3LYP) =  -799.716170783     A.U. after   11 cycles
 SCF Done:  E(UB3LYP) =  -799.716175970     A.U. after   11 cycles
 SCF Done:  E(UB3LYP) =  -799.716177833     A.U. after   11 cycles
 SCF Done:  E(UB3LYP) =  -799.716178331     A.U. after   10 cycles
 Optimization completed.
    -- Stationary point found.
 Normal termination of Gaussian 16 at Thu Dec 21 08:33:13 2023.

 ----------------------------------------------------------------------
 #P Geom=AllCheck Guess=TCheck SCRF=Check GenChk UB3LYP/6-311++G(d,p) F
 req
 ----------------------------------------------------------------------

 Structure from the checkpoint file:  "165.chk"
 --------
 Oxidized
 --------
 Charge =  0 Multiplicity = 1

                          Input orientation:
 ---------------------------------------------------------------------
 Center     Atomic      Atomic             Coordinates (Angstroms)
 Number     Number       Type             X           Y           Z
 ---------------------------------------------------------------------
      1          7           0       -4.468438   -0.011340   -0.029713
      2          6           0       -3.133645   -0.372205    0.175738
      3          6           0       -2.773887   -1.526332    0.858848
      4          6           0       -1.434799   -1.850025    1.061244
      5          6           0       -0.430367   -1.025194    0.573377
      6          6           0        0.977805   -1.435557    0.800513
      7          8           0        1.260813   -2.475732    1.379836
      8          6           0        2.047124   -0.525082    0.301653
      9          6           0        3.387948   -0.872022    0.493982
     10          6           0        4.398208   -0.032331    0.041585
     11          6           0        4.076332    1.162983   -0.608213
     12          6           0        2.746389    1.514091   -0.804196
     13          6           0        1.722552    0.674296   -0.351471
     14          6           0        0.304545    1.076586   -0.585323
     15          8           0        0.068212    2.140636   -1.165113
     16          6           0       -0.762429    0.177533   -0.110941
     17          6           0       -2.124084    0.520556   -0.291957
     18          7           0       -2.538982    1.658366   -0.945798
     19          1           0       -4.665845    0.356571   -0.953221
     20          1           0       -5.137684   -0.721955    0.231423
     21          1           0       -3.552054   -2.192724    1.217917
     22          1           0       -1.153642   -2.755859    1.582323
     23          1           0        3.610575   -1.802609    1.001179
     24          1           0        5.436737   -0.304499    0.192977
     25          1           0        4.865269    1.817689   -0.960965
     26          1           0        2.475478    2.433967   -1.306701
     27          1           0       -1.795146    2.308706   -1.177435
     28          1           0       -3.406986    2.061485   -0.621547
 ---------------------------------------------------------------------

 SCF Done:  E(UB3LYP) =  -799.716178331     A.U. after    1 cycles

 Alpha  occ. eigenvalues --  -19.12021 -19.10989 -14.34667 -14.33270 -10.27370
 Alpha  occ. eigenvalues --  -10.26414 -10.24160 -10.23714 -10.20053 -10.19956
 Alpha  occ. eigenvalues --  -10.19853 -10.19457 -10.19404 -10.19301 -10.19252
 Alpha  occ. eigenvalues --  -10.19088 -10.19006 -10.18511  -1.05351  -1.04377
 Alpha  occ. eigenvalues --   -0.96573  -0.91789  -0.88309  -0.86038  -0.80070
 Alpha  occ. eigenvalues --   -0.77116  -0.76079  -0.74957  -0.68270  -0.66154
 Alpha  occ. eigenvalues --   -0.64606  -0.61276  -0.58572  -0.57397  -0.56044
 Alpha  occ. eigenvalues --   -0.53600  -0.51885  -0.50439  -0.49923  -0.48653
 Alpha  occ. eigenvalues --   -0.47337  -0.46430  -0.44805  -0.44447  -0.44300
 Alpha  occ. eigenvalues --   -0.43908  -0.42728  -0.41392  -0.40457  -0.40109
 Alpha  occ. eigenvalues --   -0.38421  -0.37553  -0.37049  -0.36134  -0.33841
 Alpha  occ. eigenvalues --   -0.32544  -0.27845  -0.27536  -0.27101  -0.26104
 Alpha  occ. eigenvalues --   -0.25555  -0.21823
 Alpha virt. eigenvalues --   -0.10569  -0.06114  -0.02877  -0.02303  -0.01182
 Alpha virt. eigenvalues --   -0.00385   0.00013   0.01227   0.01754   0.02669
 Alpha virt. eigenvalues --    0.03183   0.03886   0.04129   0.04241   0.04853

  Beta  occ. eigenvalues --  -19.12021 -19.10989 -14.34667 -14.33270 -10.27370
  Beta  occ. eigenvalues --  -10.26414 -10.24160 -10.23714 -10.20053 -10.19956
  Beta  occ. eigenvalues --  -10.19853 -10.19457 -10.19404 -10.19301 -10.19252
  Beta  occ. eigenvalues --  -10.19088 -10.19006 -10.18511  -1.05351  -1.04377
  Beta  occ. eigenvalues --   -0.96573  -0.91789  -0.88309  -0.86038  -0.80070
  Beta  occ. eigenvalues --   -0.77116  -0.76079  -0.74957  -0.68270  -0.66154
  Beta  occ. eigenvalues --   -0.64606  -0.61276  -0.58572  -0.57397  -0.56044
  Beta  occ. eigenvalues --   -0.53600  -0.51885  -0.50439  -0.49923  -0.48653
  Beta  occ. eigenvalues --   -0.47337  -0.46430  -0.44805  -0.44447  -0.44300
  Beta  occ. eigenvalues --   -0.43908  -0.42728  -0.41392  -0.40457  -0.40109
  Beta  occ. eigenvalues --   -0.38421  -0.37553  -0.37049  -0.36134  -0.33841
  Beta  occ. eigenvalues --   -0.32544  -0.27845  -0.27536  -0.27101  -0.26104
  Beta  occ. eigenvalues --   -0.25555  -0.21823
  Beta virt. eigenvalues --   -0.10569  -0.06114  -0.02877  -0.02303  -0.01182
  Beta virt. eigenvalues --   -0.00385   0.00013   0.01227   0.01754   0.02669
  Beta virt. eigenvalues --    0.03183   0.03886   0.04129   0.04241   0.04853

 Mulliken charges and spin densities:
               1          2
     1  N   -0.370454  -0.000000
     2  C   -0.421000   0.000000
     3  C    0.028352  -0.000000
     4  C    0.100830  -0.000000
     5  C    0.509237   0.000000
     6  C   -0.635142   0.000000
     7  O   -0.229728   0.000000
     8  C    0.007175  -0.000000
     9  C    0.166819  -0.000000
    10  C   -0.362872  -0.000000
    11  C   -0.403045  -0.000000
    12  C    0.253648   0.000000
    13  C    0.192303  -0.000000
    14  C   -0.581719   0.000000
    15  O   -0.253164   0.000000
    16  C    0.420834  -0.000000
    17  C   -0.118540   0.000000
    18  N   -0.419069  -0.000000
    19  H    0.244594   0.000000
    20  H    0.265182  -0.000000
    21  H    0.158209  -0.000000
    22  H    0.179722  -0.000000
    23  H    0.181783  -0.000000
    24  H    0.172428   0.000000
    25  H    0.172662  -0.000000
    26  H    0.182038  -0.000000
    27  H    0.313889  -0.000000
    28  H    0.245029   0.000000
 Sum of Mulliken charges =  -0.00000  -0.00000

 Dipole moment (field-independent basis, Debye):
    X=             -2.8088    Y=              0.9060    Z=             -0.7749  Tot=              3.0514
 Quadrupole moment (field-independent basis, Debye-Ang):
   XX=            -70.6796   YY=           -108.9078   ZZ=           -109.5390
   XY=              6.7862   XZ=             -0.6117   YZ=              1.8862

  Exact polarizability: 309.894   0.659 180.234   1.684 -49.333 118.966
 Approx polarizability: 467.615 -21.824 340.073  14.182-107.801 208.289

                      1                      2                      3
                      A                      A                      A
 Frequencies --     39.2684                84.3018               117.8822
 Red. masses --      6.8167                 4.8845                 5.3859
 Frc consts  --      0.0062                 0.0205                 0.0441
 IR Inten    --      6.2233                 0.1267                 0.2139

                      4                      5                      6
                      A                      A                      A
 Frequencies --    130.8417               177.2741               201.4445
 Red. masses --      5.7246                 5.9113                 5.0350
 Frc consts  --      0.0577                 0.1095                 0.1204
 IR Inten    --      0.6481                 0.2352                 1.5534

                      7                      8                      9
                      A                      A                      A
 Frequencies --    255.4147               292.8734               300.5888
 Red. masses --      4.8813                 1.3634                 5.6022
 Frc consts  --      0.1876                 0.0689                 0.2982
 IR Inten    --      1.3237                11.3137                 1.0248

                     10                     11                     12
                      A                      A                      A
 Frequencies --    327.8205               331.8040               356.2114
 Red. masses --      6.5838                 2.5850                 4.2606
 Frc consts  --      0.4169                 0.1677                 0.3185
 IR Inten    --      3.7613                13.0552                13.3013

                     13                     14                     15
                      A                      A                      A
 Frequencies --    389.5746               417.4346               427.4435
 Red. masses --      7.7106                 9.2273                 3.3718
 Frc consts  --      0.6895                 0.9473                 0.3630
 IR Inten    --      1.2133                16.1397                 0.1458

                     16                     17                     18
                      A                      A                      A
 Frequencies --    452.5623               467.9137               477.3565
 Red. masses --      4.7920                 5.9598                 6.5192
 Frc consts  --      0.5783                 0.7688                 0.8752
 IR Inten    --      5.4129                 5.6679                 4.2272

                     19                     20                     21
                      A                      A                      A
 Frequencies --    504.8811               554.6266               576.3885
 Red. masses --      3.7630                 1.2493                 4.3355
 Frc consts  --      0.5652                 0.2264                 0.8486
 IR Inten    --     12.6260                81.4587                29.6427

                     22                     23                     24
                      A                      A                      A
 Frequencies --    582.7853               617.4393               669.6165
 Red. masses --      4.4512                 4.8275                 5.7994
 Frc consts  --      0.8907                 1.0843                 1.5321
 IR Inten    --      4.0204                 2.0461                 2.4806

                     25                     26                     27
                      A                      A                      A
 Frequencies --    676.5474               691.1615               709.3217
 Red. masses --      2.5283                 5.1246                 2.2314
 Frc consts  --      0.6818                 1.4423                 0.6615
 IR Inten    --    194.0039                29.2413               167.6644

                     28                     29                     30
                      A                      A                      A
 Frequencies --    718.6425               739.2680               763.4378
 Red. masses --      1.3539                 1.9832                 3.8553
 Frc consts  --      0.4120                 0.6386                 1.3239
 IR Inten    --     72.7859               147.4218                79.7791

                     31                     32                     33
                      A                      A                      A
 Frequencies --    768.5832               800.9319               812.4054
 Red. masses --      4.6612                 3.6794                 2.3421
 Frc consts  --      1.6223                 1.3906                 0.9108
 IR Inten    --      8.6975                 8.0294                 0.5841

                     34                     35                     36
                      A                      A                      A
 Frequencies --    828.8537               854.9880               910.2455
 Red. masses --      5.3550                 1.6245                 6.6640
 Frc consts  --      2.1675                 0.6997                 3.2531
 IR Inten    --     11.0084                36.2816                10.4044

                     37                     38                     39
                      A                      A                      A
 Frequencies --    914.8530               969.0415              1000.3072
 Red. masses --      1.3865                 1.3412                 3.1326
 Frc consts  --      0.6837                 0.7420                 1.8468
 IR Inten    --      0.0710                 0.1143                62.0643

                     40                     41                     42
                      A                      A                      A
 Frequencies --   1002.0695              1016.0479              1034.4916
 Red. masses --      1.3857                 1.3191                 3.2027
 Frc consts  --      0.8198                 0.8023                 2.0194
 IR Inten    --      2.2947                 0.0085                41.0731

                     43                     44                     45
                      A                      A                      A
 Frequencies --   1059.1338              1111.3920              1118.0098
 Red. masses --      1.9257                 2.2425                 1.5221
 Frc consts  --      1.2727                 1.6320                 1.1210
 IR Inten    --      1.2617                 1.2647                 3.2948

                     46                     47                     48
                      A                      A                      A
 Frequencies --   1164.7674              1182.4667              1186.3855
 Red. masses --      1.7129                 1.2605                 1.4696
 Frc consts  --      1.3692                 1.0384                 1.2188
 IR Inten    --      3.7057                 2.8994                12.4210

                     49                     50                     51
                      A                      A                      A
 Frequencies --   1213.7183              1265.0474              1289.9683
 Red. masses --      1.9445                 2.1132                 2.4143
 Frc consts  --      1.6877                 1.9925                 2.3670
 IR Inten    --     17.4652                17.2306                47.5806

                     52                     53                     54
                      A                      A                      A
 Frequencies --   1305.8993              1320.6086              1347.9298
 Red. masses --      6.5551                 2.1120                 4.5943
 Frc consts  --      6.5864                 2.1701                 4.9181
 IR Inten    --    908.5783                14.1917                 7.7995

                     55                     56                     57
                      A                      A                      A
 Frequencies --   1358.0047              1405.2564              1458.7096
 Red. masses --      7.6255                 4.5046                 3.5746
 Frc consts  --      8.2855                 5.2410                 4.4814
 IR Inten    --     24.7250                47.5858                95.6860

                     58                     59                     60
                      A                      A                      A
 Frequencies --   1480.1771              1497.4463              1508.5477
 Red. masses --      2.5112                 3.5435                 2.7655
 Frc consts  --      3.2416                 4.6815                 3.7081
 IR Inten    --      1.5137                 4.9293                 4.5810

                     61                     62                     63
                      A                      A                      A
 Frequencies --   1579.5574              1609.8484              1612.0750
 Red. masses --      2.5043                 5.1129                 5.8958
 Frc consts  --      3.6814                 7.8071                 9.0275
 IR Inten    --    286.0795                33.5487                35.4572

                     64                     65                     66
                      A                      A                      A
 Frequencies --   1628.2047              1641.4726              1659.7491
 Red. masses --      5.4679                 1.8122                 1.5031
 Frc consts  --      8.5406                 2.8770                 2.4396
 IR Inten    --     98.2275               100.1405                53.9757

                     67                     68                     69
                      A                      A                      A
 Frequencies --   1681.4925              1709.9778              3158.1257
 Red. masses --      4.0657                11.6865                 1.0898
 Frc consts  --      6.7729                20.1333                 6.4043
 IR Inten    --     93.0737               223.1813                20.1068

                     70                     71                     72
                      A                      A                      A
 Frequencies --   3167.9870              3182.9220              3200.5038
 Red. masses --      1.0869                 1.0921                 1.0928
 Frc consts  --      6.4270                 6.5190                 6.5951
 IR Inten    --      3.8284                14.5113                 3.0660

                     73                     74                     75
                      A                      A                      A
 Frequencies --   3204.0365              3206.0731              3482.1176
 Red. masses --      1.0938                 1.0921                 1.0523
 Frc consts  --      6.6160                 6.6136                 7.5173
 IR Inten    --     10.7589                 1.1121                53.0296

                     76                     77                     78
                      A                      A                      A
 Frequencies --   3527.7437              3624.0582              3633.4798
 Red. masses --      1.0504                 1.0957                 1.0953
 Frc consts  --      7.7020                 8.4791                 8.5199
 IR Inten    --     18.2772                77.9416                14.7855

 - Thermochemistry -
 -------------------
 Temperature   298.150 Kelvin.  Pressure   1.00000 Atm.
 Atom     1 has atomic number  7 and mass  14.00307

 Molecular mass:   238.07423 amu.
 Principal axes and moments of inertia in atomic units:
                           1         2         3
     Eigenvalues --  2006.290515721.900247723.19044
           X            0.99881  -0.04831  -0.00642
           Y            0.04538   0.87391   0.48396
           Z           -0.01777  -0.48367   0.87507
 This molecule is an asymmetric top.
 Rotational symmetry number  1.
 Warning -- assumption of classical behavior for rotation
           may cause significant error
 Rotational temperatures (Kelvin)      0.04317     0.01514     0.01121
 Rotational constants (GHZ):           0.89954     0.31541     0.23368
 Zero-point vibrational energy     560736.6 (Joules/Mol)
                                  134.01926 (Kcal/Mol)
 Warning -- explicit consideration of  23 degrees of freedom as
           vibrations may cause significant error
 Vibrational temperatures:     56.50   121.29   169.61   188.25   255.06
          (Kelvin)            289.83   367.48   421.38   432.48   471.66
                              477.39   512.51   560.51   600.60   615.00
                              651.14   673.22   686.81   726.41   797.98
                              829.29   838.50   888.36   963.43   973.40
                              994.43  1020.56  1033.97  1063.64  1098.42
                             1105.82  1152.36  1168.87  1192.54  1230.14
                             1309.64  1316.27  1394.23  1439.22  1441.75
                             1461.87  1488.40  1523.86  1599.05  1608.57
                             1675.84  1701.31  1706.94  1746.27  1820.12
                             1855.98  1878.90  1900.06  1939.37  1953.87
                             2021.85  2098.76  2129.64  2154.49  2170.46
                             2272.63  2316.21  2319.42  2342.62  2361.71
                             2388.01  2419.29  2460.28  4543.84  4558.03
                             4579.51  4604.81  4609.89  4612.82  5009.99
                             5075.64  5214.21  5227.77

 Zero-point correction=                           0.213573 (Hartree/Particle)
 Thermal correction to Energy=                    0.227249
 Thermal correction to Enthalpy=                  0.228193
 Thermal correction to Gibbs Free Energy=         0.173536
 Sum of electronic and zero-point Energies=           -799.502605
 Sum of electronic and thermal Energies=              -799.488929
 Sum of electronic and thermal Enthalpies=            -799.487985
 Sum of electronic and thermal Free Energies=         -799.542642

                     E (Thermal)             CV                S
                      KCal/Mol        Cal/Mol-Kelvin    Cal/Mol-Kelvin
 Total                  142.601             56.215            115.036
 Electronic               0.000              0.000              0.000
 Translational            0.889              2.981             42.304
 Rotational               0.889              2.981             32.850
 Vibrational            140.824             50.254             39.883
 Vibration     1          0.594              1.981              5.296
 Vibration     2          0.601              1.960              3.788
 Vibration     3          0.608              1.934              3.135
 Vibration     4          0.612              1.922              2.934
 Vibration     5          0.628              1.870              2.357
 Vibration     6          0.638              1.838              2.120
 Vibration     7          0.666              1.754              1.693
 Vibration     8          0.688              1.687              1.457
 Vibration     9          0.693              1.673              1.414
 Vibration    10          0.711              1.620              1.271
 Vibration    11          0.714              1.612              1.251
 Vibration    12          0.732              1.562              1.139
 Vibration    13          0.758              1.492              1.002
 Vibration    14          0.780              1.432              0.901
 Vibration    15          0.789              1.411              0.867
 Vibration    16          0.811              1.355              0.788
 Vibration    17          0.825              1.321              0.743
 Vibration    18          0.834              1.300              0.717
 Vibration    19          0.860              1.239              0.646
 Vibration    20          0.910              1.130              0.535
 Vibration    21          0.933              1.082              0.492
 Vibration    22          0.940              1.069              0.480
 Vibration    23          0.977              0.995              0.421

                           ! Non-Optimized Parameters !
 Normal termination of Gaussian 16 at Thu Dec 21 10:21:14 2023.
