 Q-Chem 5.4, Q-Chem, Inc., Pleasanton, CA (2021)
 Q-Chem 5.4.0 for Intel X86 EM64T Linux

User input:
--------------------------------------------------------------
$molecule
-2 1
C                 -1.1018510000     -1.5223130000      3.5681680000
C                  0.2315990000     -1.7634400000      3.1331260000
C                  0.7245990000     -1.4703940000      1.8534700000
C                 -0.1590810000     -0.8971860000      0.8563240000
C                 -1.5050410000     -0.6621990000      1.2940210000
C                 -1.9666960000     -0.9328290000      2.5768180000
O                 -1.5430930000     -1.8033940000      4.7620100000
O                  0.2114320000     -0.6277620000     -0.3594270000
N                 -3.3213440000     -0.7264160000      3.0046710000
C                 -3.8292770000      0.6618810000      3.2034220000
C                 -5.1127150000      0.5337810000      4.0429810000
C                 -4.1831910000      1.3086640000      1.8540820000
C                 -2.8194860000      1.5579740000      3.9552750000
C                  2.1885650000     -1.7589840000      1.4674850000
C                  3.0176750000     -2.3529660000      2.6228100000
C                  2.2272900000     -2.7684110000      0.2921890000
C                  2.8785940000     -0.4452060000      1.0210320000
H                  0.8825350000     -2.1926920000      3.8895700000
H                 -2.1859300000     -0.2898510000      0.5339580000
H                 -3.3206520000     -1.1726100000      3.9276680000
H                 -4.8919840000      0.0911150000      5.0203590000
H                 -5.8375550000     -0.1091040000      3.5325590000
H                 -5.5774630000      1.5121650000      4.2136730000
H                 -4.8738890000      0.6663320000      1.2982380000
H                 -3.2885150000      1.4526470000      1.2458530000
H                 -4.6573500000      2.2866450000      2.0074310000
H                 -2.5486840000      1.0991700000      4.9105020000
H                 -3.2400230000      2.5554530000      4.1431250000
H                 -1.9033350000      1.6672810000      3.3692790000
H                  3.0559880000     -1.6762890000      3.4823940000
H                  4.0472620000     -2.5293010000      2.2820360000
H                  2.6066690000     -3.3071020000      2.9674400000
H                  1.8041880000     -3.7291950000      0.6077020000
H                  3.2618810000     -2.9424920000     -0.0452320000
H                  1.6323060000     -2.3726590000     -0.5336280000
H                  2.9237460000      0.2595990000      1.8592300000
H                  2.2984640000      0.0026710000      0.2116500000
H                  3.9080230000     -0.6373730000      0.6777540000
$end
$rem
MAX_SCF_CYCLES=200
BASIS  =  6-311++G(d,p)
GUI  =  2
JOB_TYPE  =  SP
METHOD  =  B3LYP
SOLVENT_METHOD = COSMO
$end
$solvent
dielectric 37.219
opticaldielectric 1.43
$end

--------------------------------------------------------------

             Standard Nuclear Orientation (Angstroms)
    I     Atom           X                Y                Z
 ----------------------------------------------------------------
    1      C       0.3670470677    -1.4064343723     0.3415217240
    2      C      -1.0343211067    -1.3139676456     0.1110660482
    3      C      -1.7658711205    -0.1180714034     0.0777315062
    4      C      -1.0911027950     1.1443693963     0.3115879435
    5      C       0.3201346538     1.0487069141     0.5517200492
    6      C       1.0323333820    -0.1449040137     0.5516606239
    7      O       1.0303019785    -2.5281230878     0.3709682999
    8      O      -1.7020703008     2.2908014005     0.3298097882
    9      N       2.4386252338    -0.2427783349     0.8227686556
   10      C       3.4209153621     0.2480965184    -0.1866937930
   11      C       4.7768287080    -0.3706143692     0.1969438749
   12      C       3.5412709342     1.7798314369    -0.1266564731
   13      C       3.0556111121    -0.1840994507    -1.6246447348
   14      C      -3.2844044038    -0.1085166171    -0.1857650423
   15      C      -3.8691899056    -1.5130806019    -0.4312030046
   16      C      -4.0201522608     0.5016414721     1.0341306002
   17      C      -3.5909498148     0.7532086827    -1.4367376055
   18      H      -1.5270251789    -2.2664703161    -0.0626113555
   19      H       0.8191434974     1.9843708778     0.7872444609
   20      H       2.5698341593    -1.2573542725     0.8893487669
   21      H       4.7300813204    -1.4639062802     0.1472387868
   22      H       5.0481277524    -0.0863375441     1.2191025133
   23      H       5.5734922824    -0.0365971885    -0.4784237184
   24      H       3.7684632980     2.0999373365     0.8953672647
   25      H       2.6075258643     2.2550601743    -0.4322649764
   26      H       4.3408609388     2.1305018198    -0.7918448799
   27      H       2.9520661130    -1.2717679240    -1.6751341465
   28      H       3.8246446010     0.1364225396    -2.3408545455
   29      H       2.0978407348     0.2533428710    -1.9178888421
   30      H      -3.4112046756    -1.9953375196    -1.3006408090
   31      H      -4.9493803436    -1.4331240432    -0.6157725263
   32      H      -3.7205181568    -2.1700941646     0.4315259012
   33      H      -3.8718825628    -0.1305061022     1.9173492544
   34      H      -5.1030064813     0.5788517992     0.8443913962
   35      H      -3.6098128955     1.4935994219     1.2347305862
   36      H      -3.1360895794     0.3010947300    -2.3255906970
   37      H      -3.1711697720     1.7507029291    -1.2917072982
   38      H      -4.6771198514     0.8286370185    -1.6071407303
 ----------------------------------------------------------------

   17    -751.5106331224      3.39e-06  Convergence criterion met
 Total energy in the final basis set =     -751.5106331224
    5    -751.7900058414      6.60e-06  Convergence criterion met
 Total energy in the final basis set =     -751.7900058414

                    Orbital Energies (a.u.)
 --------------------------------------------------------------

 Alpha MOs
 -- Occupied --
-19.0165 -19.0090 -14.2729 -10.1927 -10.1621 -10.1580 -10.1575 -10.1457
-10.1443 -10.1402 -10.1385 -10.1362 -10.1289 -10.1289 -10.1201 -10.1126
-10.1102  -0.9327  -0.9232  -0.8806  -0.7960  -0.7734  -0.7430  -0.6813
 -0.6706  -0.6689  -0.6617  -0.6573  -0.6306  -0.5697  -0.5350  -0.5245
 -0.4930  -0.4583  -0.4460  -0.4360  -0.4298  -0.4254  -0.4129  -0.4055
 -0.3970  -0.3926  -0.3784  -0.3742  -0.3737  -0.3614  -0.3562  -0.3519
 -0.3484  -0.3475  -0.3433  -0.3349  -0.3225  -0.3135  -0.3098  -0.3069
 -0.3009  -0.2984  -0.2941  -0.2492  -0.2161  -0.2001  -0.1867  -0.1813
 -0.1106

          Ground-State Mulliken Net Atomic Charges

     Atom                 Charge (a.u.)
  ----------------------------------------
      1 C                    -0.526547
      2 C                    -0.480406
      3 C                     0.906939
      4 C                    -0.678166
      5 C                    -0.174085
      6 C                     0.173453
      7 O                    -0.766720
      8 O                    -0.725589
      9 N                     0.029167
     10 C                     0.025658
     11 C                    -0.480308
     12 C                    -0.596175
     13 C                    -0.520351
     14 C                     0.591488
     15 C                    -0.526592
     16 C                    -0.706791
     17 C                    -0.703045
     18 H                     0.145119
     19 H                     0.140679
     20 H                     0.231047
     21 H                     0.150968
     22 H                     0.149103
     23 H                     0.147477
     24 H                     0.153652
     25 H                     0.140937
     26 H                     0.142996
     27 H                     0.153277
     28 H                     0.154803
     29 H                     0.150569
     30 H                     0.130616
     31 H                     0.164322
     32 H                     0.129778
     33 H                     0.122695
     34 H                     0.134709
     35 H                     0.178865
     36 H                     0.122124
     37 H                     0.180484
     38 H                     0.133853
  ----------------------------------------
  Sum of atomic charges =    -2.000000

                    Cartesian Multipole Moments
 -----------------------------------------------------------------
    Charge (ESU x 10^10)
                -9.6064
    Dipole Moment (Debye)
         X       3.5060      Y       0.6025      Z      -4.7018
       Tot       5.8959
    Quadrupole Moments (Debye-Ang)
        XX    -139.6828     XY      23.1260     YY    -164.4311
        XZ      -3.7813     YZ      -0.0045     ZZ    -122.9178

 Total job time:  185.72s(wall), 1042.71s(cpu)
        *  Thank you very much for using Q-Chem.  Have a nice day.  *
