 Gaussian 16, Revision A.03,
 Gaussian 16:  ES64L-G16RevA.03 25-Dec-2016

 --------------------------------------
 #P UB3LYP/6-311++G(d,p) nosym opt freq
 --------------------------------------

 -------
 Reduced
 -------
 Symbolic Z-matrix:
 Charge = -2 Multiplicity = 1

 SCF Done:  E(UB3LYP) =  -843.748381524     A.U. after   40 cycles
 SCF Done:  E(UB3LYP) =  -843.787160828     A.U. after   23 cycles
 SCF Done:  E(UB3LYP) =  -843.793156726     A.U. after   16 cycles
 SCF Done:  E(UB3LYP) =  -843.793579735     A.U. after   17 cycles
 SCF Done:  E(UB3LYP) =  -843.795453264     A.U. after   15 cycles
 SCF Done:  E(UB3LYP) =  -843.795512716     A.U. after   13 cycles
 SCF Done:  E(UB3LYP) =  -843.795520750     A.U. after   13 cycles
 SCF Done:  E(UB3LYP) =  -843.795525701     A.U. after   12 cycles
 SCF Done:  E(UB3LYP) =  -843.795526277     A.U. after   12 cycles
 Optimization completed.
    -- Stationary point found.
 Normal termination of Gaussian 16 at Wed Dec 20 02:50:46 2023.

 ----------------------------------------------------------------------
 #P Geom=AllCheck Guess=TCheck SCRF=Check GenChk UB3LYP/6-311++G(d,p) F
 req
 ----------------------------------------------------------------------

 Structure from the checkpoint file:  "064-an.chk"
 -------
 Reduced
 -------
 Charge = -2 Multiplicity = 1

                          Input orientation:
 ---------------------------------------------------------------------
 Center     Atomic      Atomic             Coordinates (Angstroms)
 Number     Number       Type             X           Y           Z
 ---------------------------------------------------------------------
      1          8           0        1.450185    2.154550   -1.134924
      2          6           0        0.811671    1.130446   -0.671795
      3          6           0       -0.611224    1.107146   -0.669513
      4          6           0       -1.444294    0.071787   -0.202431
      5          6           0       -0.811586   -1.131079    0.349574
      6          8           0       -1.450338   -2.155101    0.812596
      7          6           0        0.611191   -1.107665    0.347654
      8          6           0        1.444366   -0.072068   -0.119378
      9          6           0        2.908614   -0.216967   -0.044192
     10          6           0        3.533565   -1.378169    0.491744
     11          6           0        4.914746   -1.517479    0.563683
     12          6           0        5.767627   -0.506622    0.105532
     13          6           0        5.180958    0.646914   -0.426471
     14          6           0        3.798966    0.794621   -0.502386
     15          6           0       -2.908673    0.216913   -0.276958
     16          6           0       -3.533641    1.379410   -0.810034
     17          6           0       -4.914821    1.518887   -0.881552
     18          6           0       -5.767627    0.506942   -0.425671
     19          6           0       -5.180935   -0.647778    0.103683
     20          6           0       -3.798915   -0.795677    0.179078
     21          1           0       -1.043008    2.011707   -1.084354
     22          1           0        1.043132   -2.012235    0.762333
     23          1           0        2.921340   -2.190610    0.860712
     24          1           0        5.332626   -2.430416    0.984555
     25          1           0        6.847806   -0.616258    0.162208
     26          1           0        5.815205    1.453127   -0.792081
     27          1           0        3.337131    1.685498   -0.913169
     28          1           0       -2.921402    2.192761   -1.176947
     29          1           0       -5.332756    2.432827   -1.300190
     30          1           0       -6.847806    0.616736   -0.481944
     31          1           0       -5.815179   -1.454789    0.467529
     32          1           0       -3.336926   -1.687359    0.587955
 ---------------------------------------------------------------------

 SCF Done:  E(UB3LYP) =  -843.795526277     A.U. after    1 cycles

 Alpha  occ. eigenvalues --  -18.77848 -18.77846  -9.96308  -9.96306  -9.95923
 Alpha  occ. eigenvalues --   -9.95920  -9.95795  -9.95793  -9.95202  -9.95200
 Alpha  occ. eigenvalues --   -9.94774  -9.94771  -9.94267  -9.94265  -9.93125
 Alpha  occ. eigenvalues --   -9.93123  -9.91192  -9.91189  -9.88650  -9.88647
 Alpha  occ. eigenvalues --   -0.69662  -0.69301  -0.63183  -0.63172  -0.56057
 Alpha  occ. eigenvalues --   -0.54438  -0.52343  -0.52335  -0.51105  -0.46194
 Alpha  occ. eigenvalues --   -0.41663  -0.39849  -0.38261  -0.37912  -0.36424
 Alpha  occ. eigenvalues --   -0.32829  -0.30884  -0.29665  -0.27285  -0.24295
 Alpha  occ. eigenvalues --   -0.23809  -0.23301  -0.22046  -0.20414  -0.20157
 Alpha  occ. eigenvalues --   -0.19521  -0.19220  -0.17875  -0.15516  -0.15134
 Alpha  occ. eigenvalues --   -0.15057  -0.15035  -0.12651  -0.11862  -0.11341
 Alpha  occ. eigenvalues --   -0.11298  -0.10800  -0.09669  -0.07896  -0.07856
 Alpha  occ. eigenvalues --   -0.05360  -0.04018  -0.03551  -0.03373   0.02079
 Alpha  occ. eigenvalues --    0.03664   0.04730   0.04843   0.11606
 Alpha virt. eigenvalues --    0.14236   0.14269   0.16100   0.16143   0.17678
 Alpha virt. eigenvalues --    0.17697   0.17700   0.20471   0.20503   0.20530
 Alpha virt. eigenvalues --    0.20757   0.21515   0.21971   0.22448   0.23382

  Beta  occ. eigenvalues --  -18.77848 -18.77846  -9.96308  -9.96306  -9.95923
  Beta  occ. eigenvalues --   -9.95920  -9.95795  -9.95793  -9.95202  -9.95200
  Beta  occ. eigenvalues --   -9.94774  -9.94771  -9.94267  -9.94265  -9.93125
  Beta  occ. eigenvalues --   -9.93123  -9.91192  -9.91189  -9.88650  -9.88647
  Beta  occ. eigenvalues --   -0.69662  -0.69301  -0.63183  -0.63172  -0.56057
  Beta  occ. eigenvalues --   -0.54438  -0.52343  -0.52335  -0.51105  -0.46194
  Beta  occ. eigenvalues --   -0.41663  -0.39849  -0.38261  -0.37912  -0.36424
  Beta  occ. eigenvalues --   -0.32829  -0.30884  -0.29665  -0.27285  -0.24295
  Beta  occ. eigenvalues --   -0.23809  -0.23301  -0.22046  -0.20414  -0.20157
  Beta  occ. eigenvalues --   -0.19521  -0.19220  -0.17875  -0.15516  -0.15134
  Beta  occ. eigenvalues --   -0.15057  -0.15035  -0.12651  -0.11862  -0.11341
  Beta  occ. eigenvalues --   -0.11298  -0.10800  -0.09669  -0.07896  -0.07856
  Beta  occ. eigenvalues --   -0.05360  -0.04018  -0.03551  -0.03373   0.02079
  Beta  occ. eigenvalues --    0.03664   0.04730   0.04843   0.11606
  Beta virt. eigenvalues --    0.14236   0.14269   0.16100   0.16143   0.17678
  Beta virt. eigenvalues --    0.17697   0.17700   0.20471   0.20503   0.20530
  Beta virt. eigenvalues --    0.20757   0.21515   0.21971   0.22448   0.23382

 Mulliken charges and spin densities:
               1          2
     1  O   -0.498015  -0.000000
     2  C   -1.061726   0.000000
     3  C   -0.874799   0.000000
     4  C    1.497271  -0.000000
     5  C   -1.061758   0.000000
     6  O   -0.498037   0.000000
     7  C   -0.874819   0.000000
     8  C    1.497642   0.000000
     9  C    1.617756  -0.000000
    10  C   -0.432803  -0.000000
    11  C   -0.580326   0.000000
    12  C   -0.432659  -0.000000
    13  C   -0.611682   0.000000
    14  C   -0.200311   0.000000
    15  C    1.617662  -0.000000
    16  C   -0.432860  -0.000000
    17  C   -0.580420   0.000000
    18  C   -0.432580   0.000000
    19  C   -0.611742  -0.000000
    20  C   -0.200099  -0.000000
    21  H    0.052052   0.000000
    22  H    0.052018   0.000000
    23  H    0.037327  -0.000000
    24  H    0.117993  -0.000000
    25  H    0.067554   0.000000
    26  H    0.112475  -0.000000
    27  H    0.189712  -0.000000
    28  H    0.037337  -0.000000
    29  H    0.118004   0.000000
    30  H    0.067566  -0.000000
    31  H    0.112491   0.000000
    32  H    0.189776   0.000000
 Sum of Mulliken charges =  -2.00000  -0.00000

 Dipole moment (field-independent basis, Debye):
    X=             -0.0032    Y=              0.0026    Z=              1.5441  Tot=              1.5441
 Quadrupole moment (field-independent basis, Debye-Ang):
   XX=           -225.8550   YY=           -156.7212   ZZ=           -138.6114
   XY=             -8.3198   XZ=              3.2398   YZ=             10.4814

  Exact polarizability: 678.943 -63.635 247.949  32.218 -49.426 163.199
 Approx polarizability:1042.306-138.584 467.470  68.120-115.182 269.855

 ******    2 imaginary frequencies (negative Signs) ******

                      1                      2                      3
                      A                      A                      A
 Frequencies --    -52.8689               -33.3274                28.2549
 Red. masses --      4.4036                 3.7069                 6.5304
 Frc consts  --      0.0073                 0.0024                 0.0031
 IR Inten    --      0.0000                 0.3494                 4.0566

                      4                      5                      6
                      A                      A                      A
 Frequencies --     95.9909               107.6599               124.8679
 Red. masses --      5.1106                 5.3313                 7.6704
 Frc consts  --      0.0277                 0.0364                 0.0705
 IR Inten    --      0.0001                 4.1395                 6.1138

                      7                      8                      9
                      A                      A                      A
 Frequencies --    190.8853               199.9383               208.9852
 Red. masses --      5.1607                 4.4955                 6.1057
 Frc consts  --      0.1108                 0.1059                 0.1571
 IR Inten    --      0.7616                 0.0001                 0.0000

                     10                     11                     12
                      A                      A                      A
 Frequencies --    236.2015               332.3061               340.9961
 Red. masses --      5.9865                 7.5673                 5.9850
 Frc consts  --      0.1968                 0.4923                 0.4100
 IR Inten    --      0.0000                 0.0000                10.5413

                     13                     14                     15
                      A                      A                      A
 Frequencies --    354.9721               379.5220               400.6141
 Red. masses --      9.2515                 6.6509                 3.2446
 Frc consts  --      0.6868                 0.5644                 0.3068
 IR Inten    --      6.6445                 0.0001                 0.0331

                     16                     17                     18
                      A                      A                      A
 Frequencies --    400.9242               429.2700               477.8579
 Red. masses --      3.3398                 3.3607                12.7585
 Frc consts  --      0.3163                 0.3649                 1.7165
 IR Inten    --      0.0001                 3.2451                 0.0000

                     19                     20                     21
                      A                      A                      A
 Frequencies --    479.0234               496.2388               535.5377
 Red. masses --      8.7905                 2.3911                 3.3704
 Frc consts  --      1.1884                 0.3469                 0.5695
 IR Inten    --     27.1660                 9.1554                 0.0001

                     22                     23                     24
                      A                      A                      A
 Frequencies --    604.3260               632.6922               633.0066
 Red. masses --      6.9286                 6.3426                 6.3355
 Frc consts  --      1.4909                 1.4959                 1.4957
 IR Inten    --      0.0000                 1.6205                 0.0001

                     25                     26                     27
                      A                      A                      A
 Frequencies --    666.4936               677.3873               683.2405
 Red. masses --      1.4985                 3.1175                 1.5419
 Frc consts  --      0.3922                 0.8428                 0.4241
 IR Inten    --      0.0002                44.6370               112.7493

                     28                     29                     30
                      A                      A                      A
 Frequencies --    685.2523               697.0827               700.4476
 Red. masses --      5.7194                 6.4261                 2.5246
 Frc consts  --      1.5824                 1.8398                 0.7298
 IR Inten    --      0.0050                66.5676                 0.0006

                     31                     32                     33
                      A                      A                      A
 Frequencies --    715.6186               718.5374               746.0916
 Red. masses --      6.7532                 1.7787                 2.9213
 Frc consts  --      2.0376                 0.5411                 0.9581
 IR Inten    --      0.0001                 0.0003                 8.4198

                     34                     35                     36
                      A                      A                      A
 Frequencies --    812.9711               815.5416               826.2215
 Red. masses --      1.4467                 1.4836                 2.1471
 Frc consts  --      0.5634                 0.5814                 0.8636
 IR Inten    --      0.4210                 0.0003                 0.0009

                     37                     38                     39
                      A                      A                      A
 Frequencies --    833.6604               838.8089               857.8709
 Red. masses --      1.7337                 5.7308                 1.4880
 Frc consts  --      0.7099                 2.3757                 0.6452
 IR Inten    --     35.2497                91.0918                25.4211

                     40                     41                     42
                      A                      A                      A
 Frequencies --    858.7649               918.8318               919.0969
 Red. masses --      1.5071                 1.2297                 1.2310
 Frc consts  --      0.6548                 0.6117                 0.6127
 IR Inten    --      0.0105                 2.4791                 0.0000

                     43                     44                     45
                      A                      A                      A
 Frequencies --    923.2303               989.5649               996.9580
 Red. masses --      7.0500                 5.5389                 1.2367
 Frc consts  --      3.5405                 3.1957                 0.7242
 IR Inten    --      0.0002               622.1918                 0.0132

                     46                     47                     48
                      A                      A                      A
 Frequencies --    997.3388              1001.1629              1017.0137
 Red. masses --      1.2393                 6.1172                 4.2645
 Frc consts  --      0.7263                 3.6126                 2.5988
 IR Inten    --      6.5939                 0.0007                 9.6736

                     49                     50                     51
                      A                      A                      A
 Frequencies --   1040.4599              1041.9508              1070.1606
 Red. masses --      2.1032                 2.1220                 1.5976
 Frc consts  --      1.3414                 1.3573                 1.0780
 IR Inten    --     52.5416                 0.0016               238.3896

                     52                     53                     54
                      A                      A                      A
 Frequencies --   1079.0190              1143.9537              1157.8497
 Red. masses --      1.6172                 1.7223                 1.0967
 Frc consts  --      1.1093                 1.3280                 0.8662
 IR Inten    --      0.0000               670.6850                 0.0000

                     55                     56                     57
                      A                      A                      A
 Frequencies --   1168.1071              1179.0177              1194.6328
 Red. masses --      1.6039                 1.2413                 1.4241
 Frc consts  --      1.2894                 1.0166                 1.1974
 IR Inten    --    268.3780                 0.0000                24.0440

                     58                     59                     60
                      A                      A                      A
 Frequencies --   1241.4032              1246.9279              1262.3550
 Red. masses --      2.2339                 4.1468                 4.3475
 Frc consts  --      2.0283                 3.7988                 4.0818
 IR Inten    --    311.0750                 0.0391               119.5303

                     61                     62                     63
                      A                      A                      A
 Frequencies --   1277.4025              1297.1125              1321.4599
 Red. masses --      1.4011                 2.3523                 4.4272
 Frc consts  --      1.3470                 2.3318                 4.5550
 IR Inten    --      0.0013                 0.0001                67.7423

                     64                     65                     66
                      A                      A                      A
 Frequencies --   1342.7180              1351.6156              1363.6809
 Red. masses --      2.6531                 1.8868                 5.8579
 Frc consts  --      2.8182                 2.0309                 6.4183
 IR Inten    --      0.0001                90.9578                 0.0002

                     67                     68                     69
                      A                      A                      A
 Frequencies --   1409.1985              1429.0556              1456.1989
 Red. masses --      3.8761                 3.2427                 2.5663
 Frc consts  --      4.5351                 3.9017                 3.2062
 IR Inten    --      0.0012               519.8796               247.7226

                     70                     71                     72
                      A                      A                      A
 Frequencies --   1467.5841              1480.9978              1506.1642
 Red. masses --      2.8815                 3.7321                 2.1015
 Frc consts  --      3.6566                 4.8230                 2.8088
 IR Inten    --      0.0014               340.5709                 0.0028

                     73                     74                     75
                      A                      A                      A
 Frequencies --   1509.6175              1563.6186              1564.5285
 Red. masses --      2.0662                 4.8750                 4.6639
 Frc consts  --      2.7743                 7.0224                 6.7261
 IR Inten    --    423.5330                 0.0292                24.2832

                     76                     77                     78
                      A                      A                      A
 Frequencies --   1600.5544              1608.2464              1616.6522
 Red. masses --      5.4517                 5.2598                 5.3036
 Frc consts  --      8.2286                 8.0154                 8.1669
 IR Inten    --      0.0090              1038.3961                 0.0001

                     79                     80                     81
                      A                      A                      A
 Frequencies --   3097.1589              3097.4683              3107.0614
 Red. masses --      1.0821                 1.0822                 1.0883
 Frc consts  --      6.1158                 6.1176                 6.1901
 IR Inten    --     47.3053                 0.0497                 1.5157

                     82                     83                     84
                      A                      A                      A
 Frequencies --   3107.0861              3135.2633              3135.6624
 Red. masses --      1.0883                 1.0948                 1.0947
 Frc consts  --      6.1902                 6.3407                 6.3416
 IR Inten    --    185.1385               325.4980                 0.7843

                     85                     86                     87
                      A                      A                      A
 Frequencies --   3147.7111              3150.5126              3151.9724
 Red. masses --      1.0869                 1.0876                 1.0933
 Frc consts  --      6.3447                 6.3601                 6.3996
 IR Inten    --     22.8526                 0.0030                29.9720

                     88                     89                     90
                      A                      A                      A
 Frequencies --   3152.4388              3192.2083              3192.6424
 Red. masses --      1.0936                 1.0875                 1.0873
 Frc consts  --      6.4034                 6.5289                 6.5301
 IR Inten    --      0.4605                49.3867                 0.2574

 - Thermochemistry -
 -------------------
 Temperature   298.150 Kelvin.  Pressure   1.00000 Atm.
 Atom     1 has atomic number  8 and mass  15.99491

 Molecular mass:   260.08373 amu.
 Principal axes and moments of inertia in atomic units:
                           1         2         3
     Eigenvalues --  1617.30940********************
           X            0.99815   0.06058  -0.00544
           Y           -0.05286   0.90824   0.41511
           Z            0.03008  -0.41405   0.90976
 This molecule is an asymmetric top.
 Rotational symmetry number  1.
 Warning -- assumption of classical behavior for rotation
           may cause significant error
 Rotational temperatures (Kelvin)      0.05355     0.00738     0.00649
 Rotational constants (GHZ):           1.11589     0.15380     0.13517
    2 imaginary frequencies ignored.
 Zero-point vibrational energy     629515.0 (Joules/Mol)
                                  150.45770 (Kcal/Mol)
 Warning -- explicit consideration of  20 degrees of freedom as
           vibrations may cause significant error
 Vibrational temperatures:     40.65   138.11   154.90   179.66   274.64
          (Kelvin)            287.67   300.68   339.84   478.11   490.62
                              510.73   546.05   576.39   576.84   617.62
                              687.53   689.21   713.98   770.52   869.49
                              910.30   910.76   958.94   974.61   983.03
                              985.93  1002.95  1007.79  1029.62  1033.82
                             1073.46  1169.68  1173.38  1188.75  1199.45
                             1206.86  1234.28  1235.57  1321.99  1322.38
                             1328.32  1423.76  1434.40  1434.95  1440.45
                             1463.26  1496.99  1499.13  1539.72  1552.47
                             1645.89  1665.89  1680.65  1696.34  1718.81
                             1786.10  1794.05  1816.25  1837.90  1866.26
                             1901.29  1931.87  1944.67  1962.03  2027.52
                             2056.09  2095.15  2111.53  2130.83  2167.03
                             2172.00  2249.70  2251.01  2302.84  2313.91
                             2326.00  4456.12  4456.57  4470.37  4470.40
                             4510.94  4511.52  4528.85  4532.88  4534.99
                             4535.66  4592.88  4593.50

 Zero-point correction=                           0.239770 (Hartree/Particle)
 Thermal correction to Energy=                    0.253721
 Thermal correction to Enthalpy=                  0.254665
 Thermal correction to Gibbs Free Energy=         0.198762
 Sum of electronic and zero-point Energies=           -843.555757
 Sum of electronic and thermal Energies=              -843.541805
 Sum of electronic and thermal Enthalpies=            -843.540861
 Sum of electronic and thermal Free Energies=         -843.596765

                     E (Thermal)             CV                S
                      KCal/Mol        Cal/Mol-Kelvin    Cal/Mol-Kelvin
 Total                  159.212             59.251            117.659
 Electronic               0.000              0.000              0.000
 Translational            0.889              2.981             42.567
 Rotational               0.889              2.981             33.893
 Vibrational            157.435             53.290             41.199
 Vibration     1          0.593              1.984              5.948
 Vibration     2          0.603              1.952              3.534
 Vibration     3          0.606              1.943              3.311
 Vibration     4          0.610              1.928              3.024
 Vibration     5          0.634              1.852              2.219
 Vibration     6          0.638              1.840              2.134
 Vibration     7          0.642              1.827              2.053
 Vibration     8          0.655              1.785              1.831
 Vibration     9          0.714              1.611              1.249
 Vibration    10          0.721              1.594              1.207
 Vibration    11          0.731              1.565              1.144
 Vibration    12          0.750              1.514              1.041
 Vibration    13          0.766              1.469              0.960
 Vibration    14          0.767              1.468              0.959
 Vibration    15          0.791              1.407              0.861
 Vibration    16          0.834              1.299              0.716
 Vibration    17          0.835              1.297              0.713
 Vibration    18          0.852              1.258              0.668
 Vibration    19          0.891              1.171              0.575
 Vibration    20          0.963              1.023              0.442

                           ! Non-Optimized Parameters !
 Normal termination of Gaussian 16 at Wed Dec 20 04:34:54 2023.
