 Q-Chem 5.4, Q-Chem, Inc., Pleasanton, CA (2021)
 Q-Chem 5.4.0 for Intel X86 EM64T Linux

User input:
--------------------------------------------------------------
$molecule
-2 1
C                  1.0546970000      4.3268410000      4.9829140000
C                  1.6722920000      3.9687180000      3.7471820000
C                  1.6085160000      2.7045860000      3.1170730000
C                  0.8652500000      1.5914080000      3.7274390000
C                  0.2527760000      1.9498310000      4.9678250000
C                  0.3200250000      3.2106490000      5.5964790000
O                  1.1459520000      5.5141160000      5.4567290000
O                  0.7662490000      0.4148050000      3.2418260000
H                  2.2221320000      4.7671020000      3.2640760000
C                 -0.3970940000      3.3035560000      6.8686300000
O                 -1.1350600000      2.4482200000      7.3635500000
O                 -0.1906220000      4.4729330000      7.5728430000
C                 -0.8869230000      4.5693070000      8.7985060000
H                 -0.6294270000      5.5515890000      9.2042260000
H                 -0.5897760000      3.7844730000      9.5049290000
H                 -1.9722260000      4.4957140000      8.6605490000
C                  2.2875890000      2.5095920000      1.8430800000
O                  3.1045580000      3.6211730000      1.4873310000
O                  2.2569910000      1.5715580000      1.0640120000
C                  3.7448770000      3.5054630000      0.2365480000
H                 -0.3078500000      1.1635090000      5.4619700000
H                  4.3201600000      4.4273780000      0.1051760000
H                  3.0266450000      3.3990100000     -0.5861720000
H                  4.4190270000      2.6410080000      0.1963000000
$end
$rem
MAX_SCF_CYCLES=200
BASIS  =  6-311++G(d,p)
GUI  =  2
JOB_TYPE  =  SP
METHOD  =  B3LYP
SOLVENT_METHOD = PCM
$end
$pcm
theory = CPCM
$end
$solvent
dielectric 37.219
opticaldielectric 1.43
$end

--------------------------------------------------------------

             Standard Nuclear Orientation (Angstroms)
    I     Atom           X                Y                Z
 ----------------------------------------------------------------
    1      C       1.0546970000     4.3268410000     4.9829140000
    2      C       1.6722920000     3.9687180000     3.7471820000
    3      C       1.6085160000     2.7045860000     3.1170730000
    4      C       0.8652500000     1.5914080000     3.7274390000
    5      C       0.2527760000     1.9498310000     4.9678250000
    6      C       0.3200250000     3.2106490000     5.5964790000
    7      O       1.1459520000     5.5141160000     5.4567290000
    8      O       0.7662490000     0.4148050000     3.2418260000
    9      H       2.2221320000     4.7671020000     3.2640760000
   10      C      -0.3970940000     3.3035560000     6.8686300000
   11      O      -1.1350600000     2.4482200000     7.3635500000
   12      O      -0.1906220000     4.4729330000     7.5728430000
   13      C      -0.8869230000     4.5693070000     8.7985060000
   14      H      -0.6294270000     5.5515890000     9.2042260000
   15      H      -0.5897760000     3.7844730000     9.5049290000
   16      H      -1.9722260000     4.4957140000     8.6605490000
   17      C       2.2875890000     2.5095920000     1.8430800000
   18      O       3.1045580000     3.6211730000     1.4873310000
   19      O       2.2569910000     1.5715580000     1.0640120000
   20      C       3.7448770000     3.5054630000     0.2365480000
   21      H      -0.3078500000     1.1635090000     5.4619700000
   22      H       4.3201600000     4.4273780000     0.1051760000
   23      H       3.0266450000     3.3990100000    -0.5861720000
   24      H       4.4190270000     2.6410080000     0.1963000000
 ----------------------------------------------------------------

    9    -837.7420758783      6.21e-06  Convergence criterion met
 Total energy in the final basis set =     -837.7420758783

                    Orbital Energies (a.u.)
 --------------------------------------------------------------

 Alpha MOs
 -- Occupied --
-19.1484 -19.1412 -19.0986 -19.0945 -19.0321 -19.0291 -10.2854 -10.2845
-10.2061 -10.2042 -10.1959 -10.1953 -10.1593 -10.1593 -10.1383 -10.1382
 -1.0870  -1.0789  -0.9982  -0.9968  -0.9533  -0.9483  -0.8030  -0.7593
 -0.7146  -0.6891  -0.6642  -0.6241  -0.5640  -0.5541  -0.5362  -0.4951
 -0.4760  -0.4697  -0.4674  -0.4623  -0.4545  -0.4320  -0.4216  -0.4148
 -0.3953  -0.3902  -0.3855  -0.3735  -0.3614  -0.3547  -0.3490  -0.3441
 -0.3310  -0.3292  -0.2928  -0.2902  -0.2749  -0.2713  -0.2430  -0.2372
 -0.2073  -0.2030  -0.1383

          Ground-State Mulliken Net Atomic Charges

     Atom                 Charge (a.u.)
  ----------------------------------------
      1 C                    -0.788027
      2 C                    -0.244979
      3 C                     0.490827
      4 C                    -0.521047
      5 C                    -0.512109
      6 C                     0.698107
      7 O                    -0.678208
      8 O                    -0.671092
      9 H                     0.179248
     10 C                     0.176510
     11 O                    -0.407489
     12 O                    -0.141237
     13 C                    -0.250686
     14 H                     0.162164
     15 H                     0.177488
     16 H                     0.180422
     17 C                     0.316699
     18 O                    -0.189566
     19 O                    -0.385096
     20 C                    -0.250829
     21 H                     0.158660
     22 H                     0.152421
     23 H                     0.175163
     24 H                     0.172657
  ----------------------------------------
  Sum of atomic charges =    -2.000000

                    Cartesian Multipole Moments
 -----------------------------------------------------------------
    Charge (ESU x 10^10)
                -9.6064
    Dipole Moment (Debye)
         X      -7.9966      Y     -24.9333      Z     -41.0012
       Tot      48.6489
    Quadrupole Moments (Debye-Ang)
        XX    -110.7802     XY     -26.6530     YY    -215.7703
        XZ     -28.2829     YZ    -128.7355     ZZ    -295.0282

 Total job time:  36.56s(wall), 233.00s(cpu)
        *  Thank you very much for using Q-Chem.  Have a nice day.  *
