 Q-Chem 5.4, Q-Chem, Inc., Pleasanton, CA (2021)
 Q-Chem 5.4.0 for Intel X86 EM64T Linux

User input:
--------------------------------------------------------------
$molecule
-2 1
Cl                -2.5586870000      1.7714730000      0.7039090000
C                 -1.1104380000      0.7749960000      0.4004050000
C                 -1.1699070000     -0.6171740000      0.5381180000
Cl                -2.6954240000     -1.4088030000      1.0185330000
C                 -0.0648810000     -1.5108100000      0.3182940000
O                 -0.1196250000     -2.7799100000      0.4439950000
C                  1.1102220000     -0.7749440000     -0.0628240000
C                  1.1700060000      0.6173700000     -0.2006340000
Cl                 2.6955870000      1.4084640000     -0.6809710000
C                  0.0650020000      1.5108480000      0.0191650000
O                  0.1193900000      2.7799310000     -0.1063840000
Cl                 2.5587550000     -1.7714410000     -0.3663620000
$end
$rem
MAX_SCF_CYCLES=200
BASIS  =  6-311++G(d,p)
GUI  =  2
JOB_TYPE  =  SP
METHOD  =  B3LYP
SOLVENT_METHOD = PCM
$end
$pcm
theory = CPCM
$end
$solvent
dielectric 37.219
opticaldielectric 1.43
$end

--------------------------------------------------------------

             Standard Nuclear Orientation (Angstroms)
    I     Atom           X                Y                Z
 ----------------------------------------------------------------
    1      Cl     -2.5586870000     1.7714730000     0.7039090000
    2      C      -1.1104380000     0.7749960000     0.4004050000
    3      C      -1.1699070000    -0.6171740000     0.5381180000
    4      Cl     -2.6954240000    -1.4088030000     1.0185330000
    5      C      -0.0648810000    -1.5108100000     0.3182940000
    6      O      -0.1196250000    -2.7799100000     0.4439950000
    7      C       1.1102220000    -0.7749440000    -0.0628240000
    8      C       1.1700060000     0.6173700000    -0.2006340000
    9      Cl      2.6955870000     1.4084640000    -0.6809710000
   10      C       0.0650020000     1.5108480000     0.0191650000
   11      O       0.1193900000     2.7799310000    -0.1063840000
   12      Cl      2.5587550000    -1.7714410000    -0.3663620000
 ----------------------------------------------------------------

    8   -2220.3447025788      5.98e-06  Convergence criterion met
 Total energy in the final basis set =    -2220.3447025788

                    Orbital Energies (a.u.)
 --------------------------------------------------------------

 Alpha MOs
 -- Occupied --
********-101.5401-101.5400-101.5399 -19.0398 -19.0398 -10.2107 -10.2107
-10.2103 -10.2102 -10.2097 -10.2097  -9.4544  -9.4544  -9.4543  -9.4543
 -7.2188  -7.2187  -7.2186  -7.2186  -7.2097  -7.2096  -7.2095  -7.2095
 -7.2089  -7.2088  -7.2088  -7.2088  -0.9685  -0.9634  -0.8721  -0.8646
 -0.8283  -0.8256  -0.7752  -0.6841  -0.6719  -0.5648  -0.5584  -0.4925
 -0.4570  -0.4336  -0.4143  -0.4113  -0.3882  -0.3785  -0.3775  -0.3618
 -0.3599  -0.3251  -0.3193  -0.3141  -0.3109  -0.3056  -0.2971  -0.2893
 -0.2467  -0.2260  -0.2224  -0.2210  -0.1449

          Ground-State Mulliken Net Atomic Charges

     Atom                 Charge (a.u.)
  ----------------------------------------
      1 Cl                    0.222312
      2 C                     0.530637
      3 C                     0.541140
      4 Cl                    0.220402
      5 C                    -1.939127
      6 O                    -0.576462
      7 C                     0.531593
      8 C                     0.541155
      9 Cl                    0.220439
     10 C                    -1.937930
     11 O                    -0.576426
     12 Cl                    0.222266
  ----------------------------------------
  Sum of atomic charges =    -2.000000

                    Cartesian Multipole Moments
 -----------------------------------------------------------------
    Charge (ESU x 10^10)
                -9.6064
    Dipole Moment (Debye)
         X      -0.0015      Y       0.0030      Z      -1.6212
       Tot       1.6212
    Quadrupole Moments (Debye-Ang)
        XX    -126.0695     XY      -1.0809     YY    -165.4140
        XZ       6.4462     YZ       5.7837     ZZ    -105.0152

 Total job time:  11.70s(wall), 82.70s(cpu)
        *  Thank you very much for using Q-Chem.  Have a nice day.  *
