 Gaussian 16, Revision A.03,
 Gaussian 16:  ES64L-G16RevA.03 25-Dec-2016

 ----------------------------------------------------------------
 #P UB3LYP/6-311++G(d,p) SCRF=(PCM,Solvent=n,n-DiMethylFormamide)
 ----------------------------------------------------------------

 ------------------
 Radical PCM in DMF
 ------------------
 Symbolic Z-matrix:
 Charge = -1 Multiplicity = 2

                         Standard orientation:
 ---------------------------------------------------------------------
 Center     Atomic      Atomic             Coordinates (Angstroms)
 Number     Number       Type             X           Y           Z
 ---------------------------------------------------------------------
      1          6           0       -3.720225   -2.477017   -0.196664
      2          6           0       -3.133448   -1.221761    0.390128
      3          8           0       -2.996340   -0.990057    1.562554
      4          8           0       -2.818259   -0.344666   -0.605039
      5          6           0       -1.946137    0.714760   -0.327119
      6          6           0       -2.504931    1.972725   -0.304941
      7          6           0       -1.682762    3.102145   -0.130320
      8          6           0       -0.322361    2.937145    0.009389
      9          6           0        0.267841    1.655826   -0.019307
     10          6           0        1.726194    1.577148    0.108662
     11          8           0        2.432735    2.604406    0.255566
     12          6           0        2.312440    0.240326    0.046271
     13          6           0        3.713305    0.092412    0.148115
     14          6           0        4.304643   -1.153322    0.093755
     15          6           0        3.502727   -2.305027   -0.064023
     16          6           0        2.131570   -2.182322   -0.163984
     17          6           0        1.504097   -0.917321   -0.114281
     18          6           0        0.043282   -0.849477   -0.223846
     19          8           0       -0.635717   -1.902493   -0.341375
     20          6           0       -0.550171    0.489506   -0.185638
     21          1           0       -4.408077   -2.241984   -1.011524
     22          1           0       -4.225155   -3.047821    0.581601
     23          1           0       -2.886003   -3.052207   -0.604319
     24          1           0       -3.577896    2.066618   -0.426425
     25          1           0       -2.125089    4.092952   -0.107886
     26          1           0        0.343316    3.781631    0.140184
     27          1           0        4.300949    0.994872    0.270515
     28          1           0        5.383385   -1.249763    0.173601
     29          1           0        3.965763   -3.286542   -0.104804
     30          1           0        1.493077   -3.049757   -0.281779
 ---------------------------------------------------------------------

 SCF Done:  E(UB3LYP) =  -917.038769832     A.U. after   19 cycles

 The electronic state is 2-A.
 Alpha  occ. eigenvalues --  -19.17155 -19.11957 -19.07811 -19.07731 -10.31177
 Alpha  occ. eigenvalues --  -10.24110 -10.23034 -10.22663 -10.18522 -10.17937
 Alpha  occ. eigenvalues --  -10.17822 -10.17703 -10.17499 -10.17450 -10.17409
 Alpha  occ. eigenvalues --  -10.17402 -10.17248 -10.17170 -10.17137 -10.17088
 Alpha  occ. eigenvalues --   -1.11575  -1.03565  -1.00631  -1.00379  -0.86662
 Alpha  occ. eigenvalues --   -0.85479  -0.79022  -0.77612  -0.75198  -0.74417
 Alpha  occ. eigenvalues --   -0.73497  -0.67384  -0.64892  -0.62819  -0.61927
 Alpha  occ. eigenvalues --   -0.57601  -0.54748  -0.53648  -0.52216  -0.49586
 Alpha  occ. eigenvalues --   -0.48509  -0.48392  -0.47589  -0.46447  -0.45830
 Alpha  occ. eigenvalues --   -0.45111  -0.42703  -0.42529  -0.41823  -0.41445
 Alpha  occ. eigenvalues --   -0.41163  -0.40578  -0.39844  -0.38842  -0.38394
 Alpha  occ. eigenvalues --   -0.37593  -0.36766  -0.35960  -0.35147  -0.34219
 Alpha  occ. eigenvalues --   -0.33829  -0.32383  -0.29083  -0.27187  -0.25840
 Alpha  occ. eigenvalues --   -0.25608  -0.25254  -0.24839  -0.23770  -0.14465
 Alpha virt. eigenvalues --   -0.05676  -0.02586  -0.00819  -0.00351   0.00079
 Alpha virt. eigenvalues --    0.00460   0.00740   0.01978   0.02327   0.03194
 Alpha virt. eigenvalues --    0.03580   0.04244   0.04410   0.04692   0.04985

  Beta  occ. eigenvalues --  -19.17152 -19.11957 -19.07265 -19.07167 -10.31174
  Beta  occ. eigenvalues --  -10.24102 -10.22863 -10.22494 -10.18446 -10.17836
  Beta  occ. eigenvalues --  -10.17756 -10.17651 -10.17428 -10.17409 -10.17361
  Beta  occ. eigenvalues --  -10.17341 -10.17248 -10.17174 -10.17132 -10.17087
  Beta  occ. eigenvalues --   -1.11565  -1.03554  -0.99672  -0.99390  -0.86405
  Beta  occ. eigenvalues --   -0.85357  -0.78629  -0.77502  -0.75002  -0.74233
  Beta  occ. eigenvalues --   -0.73387  -0.66682  -0.64758  -0.62615  -0.61747
  Beta  occ. eigenvalues --   -0.57476  -0.54512  -0.53457  -0.52088  -0.49549
  Beta  occ. eigenvalues --   -0.48432  -0.48321  -0.47320  -0.46373  -0.45689
  Beta  occ. eigenvalues --   -0.45036  -0.42496  -0.41897  -0.41644  -0.40897
  Beta  occ. eigenvalues --   -0.40794  -0.40299  -0.39668  -0.38765  -0.37643
  Beta  occ. eigenvalues --   -0.36519  -0.36056  -0.35775  -0.34979  -0.33703
  Beta  occ. eigenvalues --   -0.33054  -0.32267  -0.29065  -0.25486  -0.25106
  Beta  occ. eigenvalues --   -0.24717  -0.24633  -0.24319  -0.23267
  Beta virt. eigenvalues --   -0.08590  -0.04709  -0.01536  -0.00654  -0.00328
  Beta virt. eigenvalues --    0.00178   0.00463   0.00746   0.01983   0.02332
  Beta virt. eigenvalues --    0.03209   0.03609   0.04243   0.04448   0.04870

 Mulliken charges and spin densities:
               1          2
     1  C   -0.463171   0.002525
     2  C    0.059447  -0.001352
     3  O   -0.294999  -0.000516
     4  O   -0.008743  -0.001092
     5  C   -0.133972   0.041881
     6  C    0.117011   0.038832
     7  C   -0.451668   0.052901
     8  C   -0.060429   0.024616
     9  C    0.527107   0.057653
    10  C   -0.568434   0.094707
    11  O   -0.447474   0.203526
    12  C   -0.052546   0.008849
    13  C   -0.017422   0.027118
    14  C   -0.483231   0.030494
    15  C   -0.408260   0.035004
    16  C    0.082978   0.031579
    17  C    0.091388   0.020666
    18  C   -0.328077   0.088777
    19  O   -0.422235   0.213495
    20  C    0.482445   0.047782
    21  H    0.173325   0.000374
    22  H    0.161479  -0.000254
    23  H    0.199665  -0.000709
    24  H    0.195485  -0.003434
    25  H    0.196334  -0.003908
    26  H    0.166345  -0.001184
    27  H    0.162271  -0.001669
    28  H    0.181965  -0.002569
    29  H    0.186425  -0.002942
    30  H    0.156991  -0.001147
 Sum of Mulliken charges =  -1.00000   1.00000

 Dipole moment (field-independent basis, Debye):
    X=             -3.0769    Y=             -2.2677    Z=             -2.3225  Tot=              4.4725
 Quadrupole moment (field-independent basis, Debye-Ang):
   XX=           -127.6455   YY=           -131.2045   ZZ=           -128.7468
   XY=            -16.8557   XZ=              6.1697   YZ=              0.0196

 Normal termination of Gaussian 16 at Sun Jan 14 01:19:46 2024.
