 Q-Chem 5.4, Q-Chem, Inc., Pleasanton, CA (2021)
 Q-Chem 5.4.0 for Intel X86 EM64T Linux

User input:
--------------------------------------------------------------
$molecule
-1 2
C                  5.9276950000     -5.2202570000      1.1065870000
C                  6.8254070000     -5.0812700000      0.0635210000
C                  6.6134990000     -4.0956730000     -0.9184650000
C                  4.7970500000     -4.3861620000      1.2032150000
C                  4.5842630000     -3.3963590000      0.2170660000
C                  5.5080100000     -3.2682360000     -0.8382370000
C                  3.8678800000     -4.5732960000      2.3348120000
C                  2.7351090000     -3.6689980000      2.3483590000
C                  2.5264430000     -2.6983640000      1.3813350000
C                  3.4200100000     -2.4899120000      0.2591850000
O                  4.0640940000     -5.4511990000      3.2016980000
O                  3.2400880000     -1.6179720000     -0.6172070000
H                  6.0635870000     -5.9695070000      1.8776670000
H                  5.3176100000     -2.5002380000     -1.5787260000
Br                 1.5285600000     -3.9151940000      3.8209310000
Br                 1.0132650000     -1.5182910000      1.4330180000
H                  7.6926600000     -5.7317430000      0.0022790000
H                  7.3171080000     -3.9850180000     -1.7380280000
$end

$rem
BASIS  =  6-311++G(d,p)
GUI  =  2
JOB_TYPE  =  SP
METHOD  =  B3LYP
SCF_CONVERGENCE  = 8
SOLVENT_METHOD = sm12
$end

$smx
solvent dimethylformamide
charges CM5
$end

--------------------------------------------------------------

             Standard Nuclear Orientation (Angstroms)
    I     Atom           X                Y                Z
 ----------------------------------------------------------------
    1      C       5.9276950000    -5.2202570000     1.1065870000
    2      C       6.8254070000    -5.0812700000     0.0635210000
    3      C       6.6134990000    -4.0956730000    -0.9184650000
    4      C       4.7970500000    -4.3861620000     1.2032150000
    5      C       4.5842630000    -3.3963590000     0.2170660000
    6      C       5.5080100000    -3.2682360000    -0.8382370000
    7      C       3.8678800000    -4.5732960000     2.3348120000
    8      C       2.7351090000    -3.6689980000     2.3483590000
    9      C       2.5264430000    -2.6983640000     1.3813350000
   10      C       3.4200100000    -2.4899120000     0.2591850000
   11      O       4.0640940000    -5.4511990000     3.2016980000
   12      O       3.2400880000    -1.6179720000    -0.6172070000
   13      H       6.0635870000    -5.9695070000     1.8776670000
   14      H       5.3176100000    -2.5002380000    -1.5787260000
   15      Br      1.5285600000    -3.9151940000     3.8209310000
   16      Br      1.0132650000    -1.5182910000     1.4330180000
   17      H       7.6926600000    -5.7317430000     0.0022790000
   18      H       7.3171080000    -3.9850180000    -1.7380280000
 ----------------------------------------------------------------

   16   -5682.4171055531      7.35e-09  Convergence criterion met
 Total energy in the final basis set =    -5682.4977995945

                    Orbital Energies (a.u.)
 --------------------------------------------------------------

 Alpha MOs
 -- Occupied --
********-482.8237 -62.4763 -62.4763 -56.2968 -56.2968 -56.2931 -56.2931
-56.2927 -56.2927 -19.0860 -19.0860 -10.2400 -10.2400 -10.2296 -10.2290
-10.1897 -10.1892 -10.1879 -10.1874 -10.1844 -10.1844  -8.6849  -8.6849
 -6.5163  -6.5163  -6.5039  -6.5039  -6.5026  -6.5026  -2.6272  -2.6272
 -2.6239  -2.6239  -2.6230  -2.6230  -2.6130  -2.6130  -2.6129  -2.6129
 -1.0167  -1.0142  -0.8745  -0.8515  -0.7891  -0.7852  -0.7643  -0.7255
 -0.6806  -0.6246  -0.6134  -0.5727  -0.5289  -0.5045  -0.4782  -0.4603
 -0.4391  -0.4365  -0.4273  -0.4222  -0.3986  -0.3966  -0.3920  -0.3729
 -0.3636  -0.3537  -0.3313  -0.2973  -0.2972  -0.2768  -0.2707  -0.2691
 -0.2553  -0.2479  -0.2442  -0.1639

 Beta MOs
 -- Occupied --
********-482.8237 -62.4763 -62.4763 -56.2969 -56.2968 -56.2931 -56.2931
-56.2927 -56.2926 -19.0795 -19.0795 -10.2389 -10.2389 -10.2277 -10.2271
-10.1892 -10.1888 -10.1876 -10.1871 -10.1844 -10.1844  -8.6849  -8.6849
 -6.5163  -6.5163  -6.5038  -6.5038  -6.5026  -6.5026  -2.6272  -2.6272
 -2.6238  -2.6238  -2.6230  -2.6230  -2.6129  -2.6129  -2.6129  -2.6128
 -1.0058  -1.0030  -0.8719  -0.8481  -0.7872  -0.7830  -0.7627  -0.7235
 -0.6726  -0.6234  -0.6099  -0.5701  -0.5266  -0.5021  -0.4759  -0.4590
 -0.4388  -0.4244  -0.4225  -0.4159  -0.3963  -0.3943  -0.3676  -0.3674
 -0.3622  -0.3525  -0.3174  -0.2968  -0.2938  -0.2695  -0.2626  -0.2591
 -0.2492  -0.2390  -0.2382

          Ground-State Mulliken Net Atomic Charges

     Atom                 Charge (a.u.)    Spin (a.u.)
  --------------------------------------------------------
      1 C                     0.121291       0.024238
      2 C                     0.920052       0.020435
      3 C                     0.920048       0.020369
      4 C                    -0.689662       0.022248
      5 C                    -0.689374       0.022182
      6 C                     0.119859       0.024302
      7 C                    -1.881166       0.055833
      8 C                     0.698416       0.128263
      9 C                     0.690411       0.128212
     10 C                    -1.872482       0.055960
     11 O                    -0.239751       0.242253
     12 O                    -0.240109       0.242250
     13 H                     0.148642      -0.002586
     14 H                     0.148619      -0.002589
     15 Br                    0.060132       0.010970
     16 Br                    0.060808       0.010983
     17 H                     0.362112      -0.001663
     18 H                     0.362154      -0.001659
  --------------------------------------------------------
  Sum of atomic charges =    -1.000000

                    Cartesian Multipole Moments
 -----------------------------------------------------------------
    Charge (ESU x 10^10)
                -4.8032
    Dipole Moment (Debye)
         X     -14.6899      Y      15.9974      Z      -7.8049
       Tot      23.0787
    Quadrupole Moments (Debye-Ang)
        XX    -157.7989     XY      52.5264     YY    -179.3550
        XZ     -26.4107     YZ      40.6248     ZZ    -138.8677

 Total job time:  303.14s(wall), 2317.41s(cpu)
        *  Thank you very much for using Q-Chem.  Have a nice day.  *
