 Gaussian 16, Revision A.03,
 Gaussian 16:  ES64L-G16RevA.03 25-Dec-2016

 ----------------------------------------------------------------
 #P UB3LYP/6-311++G(d,p) SCRF=(PCM,Solvent=n,n-DiMethylFormamide)
 ----------------------------------------------------------------

 ------------------
 Quinone PCM in DMF
 ------------------
 Symbolic Z-matrix:
 Charge =  0 Multiplicity = 1

                         Standard orientation:
 ---------------------------------------------------------------------
 Center     Atomic      Atomic             Coordinates (Angstroms)
 Number     Number       Type             X           Y           Z
 ---------------------------------------------------------------------
      1          6           0       -1.044024    1.348959   -0.239119
      2          6           0       -0.389877    0.014290    0.014631
      3          6           0       -1.183021   -1.061356    0.217475
      4          6           0       -2.657044   -1.000779    0.193997
      5          6           0       -3.283914    0.322763   -0.039981
      6          6           0       -2.528364    1.409372   -0.233837
      7          8           0       -0.397230    2.357575   -0.460746
      8          8           0       -3.338434   -2.000277    0.370208
      9          6           0        1.085497   -0.089568    0.011598
     10          6           0        1.893610    0.875509    0.633391
     11          6           0        1.704330   -1.192833   -0.597912
     12          6           0        3.087831   -1.334751   -0.577853
     13          6           0        3.276451    0.724381    0.661126
     14          6           0        3.878645   -0.377608    0.056009
     15          1           0       -0.766685   -2.039993    0.429103
     16          1           0       -4.367977    0.349814   -0.044006
     17          1           0       -2.948843    2.393370   -0.409891
     18          1           0        1.440012    1.738793    1.100056
     19          1           0        1.097252   -1.929438   -1.111741
     20          1           0        3.548043   -2.187670   -1.063528
     21          1           0        3.885658    1.472956    1.154713
     22          1           0        4.957132   -0.486502    0.072454
 ---------------------------------------------------------------------

 SCF Done:  E(UB3LYP) =  -612.683932297     A.U. after   16 cycles

 The electronic state is 1-A.
 Alpha  occ. eigenvalues --  -19.14856 -19.14369 -10.29486 -10.28835 -10.22875
 Alpha  occ. eigenvalues --  -10.21534 -10.21444 -10.20992 -10.20528 -10.19070
 Alpha  occ. eigenvalues --  -10.18932 -10.18802 -10.18654 -10.18593  -1.08040
 Alpha  occ. eigenvalues --   -1.07291  -0.88553  -0.86171  -0.81169  -0.76293
 Alpha  occ. eigenvalues --   -0.75653  -0.71178  -0.65546  -0.63196  -0.61255
 Alpha  occ. eigenvalues --   -0.59242  -0.53562  -0.52773  -0.51249  -0.49120
 Alpha  occ. eigenvalues --   -0.47447  -0.46896  -0.45721  -0.45138  -0.44440
 Alpha  occ. eigenvalues --   -0.43500  -0.43284  -0.42416  -0.41050  -0.38661
 Alpha  occ. eigenvalues --   -0.36885  -0.36001  -0.32069  -0.31247  -0.29593
 Alpha  occ. eigenvalues --   -0.28434  -0.26978  -0.26011
 Alpha virt. eigenvalues --   -0.14036  -0.05395  -0.02641  -0.01753  -0.00564
 Alpha virt. eigenvalues --    0.00198   0.00386   0.01015   0.01982   0.02176
 Alpha virt. eigenvalues --    0.03400   0.03922   0.04144   0.04864   0.05328

  Beta  occ. eigenvalues --  -19.14856 -19.14369 -10.29486 -10.28835 -10.22875
  Beta  occ. eigenvalues --  -10.21534 -10.21444 -10.20992 -10.20528 -10.19070
  Beta  occ. eigenvalues --  -10.18932 -10.18802 -10.18654 -10.18593  -1.08040
  Beta  occ. eigenvalues --   -1.07291  -0.88553  -0.86171  -0.81169  -0.76293
  Beta  occ. eigenvalues --   -0.75653  -0.71178  -0.65546  -0.63196  -0.61255
  Beta  occ. eigenvalues --   -0.59242  -0.53562  -0.52773  -0.51249  -0.49120
  Beta  occ. eigenvalues --   -0.47447  -0.46896  -0.45721  -0.45138  -0.44440
  Beta  occ. eigenvalues --   -0.43500  -0.43284  -0.42416  -0.41050  -0.38661
  Beta  occ. eigenvalues --   -0.36885  -0.36001  -0.32069  -0.31247  -0.29593
  Beta  occ. eigenvalues --   -0.28434  -0.26978  -0.26011
  Beta virt. eigenvalues --   -0.14036  -0.05395  -0.02641  -0.01753  -0.00564
  Beta virt. eigenvalues --    0.00198   0.00386   0.01015   0.01982   0.02176
  Beta virt. eigenvalues --    0.03400   0.03922   0.04144   0.04864   0.05328

 Mulliken charges and spin densities:
               1          2
     1  C   -1.041903  -0.000000
     2  C    1.624322   0.000000
     3  C   -0.603659  -0.000000
     4  C   -0.544061   0.000000
     5  C    0.159908  -0.000000
     6  C    0.013686  -0.000000
     7  O   -0.245905   0.000000
     8  O   -0.298136  -0.000000
     9  C    1.330031   0.000000
    10  C   -0.539795  -0.000000
    11  C   -0.643819  -0.000000
    12  C   -0.275338   0.000000
    13  C   -0.178729   0.000000
    14  C   -0.467246  -0.000000
    15  H    0.228659   0.000000
    16  H    0.246084   0.000000
    17  H    0.246934  -0.000000
    18  H    0.192664  -0.000000
    19  H    0.196191  -0.000000
    20  H    0.201630  -0.000000
    21  H    0.205369   0.000000
    22  H    0.193113   0.000000
 Sum of Mulliken charges =  -0.00000   0.00000

 Dipole moment (field-independent basis, Debye):
    X=              1.4960    Y=              0.4054    Z=              0.0609  Tot=              1.5512
 Quadrupole moment (field-independent basis, Debye-Ang):
   XX=            -73.7150   YY=            -88.6311   ZZ=            -81.7422
   XY=            -14.6749   XZ=              3.0170   YZ=              6.4906

 Normal termination of Gaussian 16 at Wed Jan 24 22:49:07 2024.
