 Gaussian 16, Revision A.03,
 Gaussian 16:  ES64L-G16RevA.03 25-Dec-2016

 --------------------------------------
 #P UB3LYP/6-311++G(d,p) nosym opt freq
 --------------------------------------

 --------
 Oxidized
 --------
 Symbolic Z-matrix:
 Charge =  0 Multiplicity = 1

 SCF Done:  E(UB3LYP) =  -612.673596174     A.U. after   16 cycles
 Optimization completed.
    -- Stationary point found.
 Normal termination of Gaussian 16 at Wed Jan 10 04:50:15 2024.

 ----------------------------------------------------------------------
 #P Geom=AllCheck Guess=TCheck SCRF=Check GenChk UB3LYP/6-311++G(d,p) F
 req
 ----------------------------------------------------------------------

 Structure from the checkpoint file:  "062.chk"
 --------
 Oxidized
 --------
 Charge =  0 Multiplicity = 1

                          Input orientation:
 ---------------------------------------------------------------------
 Center     Atomic      Atomic             Coordinates (Angstroms)
 Number     Number       Type             X           Y           Z
 ---------------------------------------------------------------------
      1          6           0       -1.450123   -2.607411    0.963723
      2          6           0       -2.288767   -2.147387   -0.201907
      3          6           0       -1.986588   -0.965108   -0.783407
      4          6           0       -0.871937   -0.104101   -0.343882
      5          6           0       -0.068047   -0.563522    0.814638
      6          6           0       -0.346779   -1.723357    1.419820
      7          8           0       -1.641082   -3.674518    1.520126
      8          8           0       -0.624222    0.953176   -0.905257
      9          6           0       -3.393065   -3.001317   -0.690632
     10          6           0       -4.264322   -3.657256    0.193508
     11          6           0       -3.605177   -3.142245   -2.071501
     12          6           0       -4.662038   -3.905885   -2.555770
     13          6           0       -5.327039   -4.411115   -0.294535
     14          6           0       -5.529549   -4.539952   -1.667697
     15          1           0       -2.571489   -0.574073   -1.608534
     16          1           0        0.740546    0.086738    1.129725
     17          1           0        0.218540   -2.094175    2.267734
     18          1           0       -4.114259   -3.571757    1.260727
     19          1           0       -2.921564   -2.670237   -2.767943
     20          1           0       -4.803033   -4.011992   -3.625353
     21          1           0       -5.997229   -4.902545    0.401503
     22          1           0       -6.353697   -5.135700   -2.043366
 ---------------------------------------------------------------------

 SCF Done:  E(UB3LYP) =  -612.673596174     A.U. after    2 cycles

 Alpha  occ. eigenvalues --  -19.14600 -19.13961 -10.29356 -10.28577 -10.23063
 Alpha  occ. eigenvalues --  -10.21996 -10.21909 -10.21259 -10.20779 -10.19488
 Alpha  occ. eigenvalues --  -10.19236 -10.19202 -10.19113 -10.18967  -1.07769
 Alpha  occ. eigenvalues --   -1.06829  -0.88805  -0.86466  -0.81551  -0.76628
 Alpha  occ. eigenvalues --   -0.75976  -0.71307  -0.65839  -0.63539  -0.61625
 Alpha  occ. eigenvalues --   -0.59536  -0.53876  -0.52874  -0.51289  -0.49275
 Alpha  occ. eigenvalues --   -0.47811  -0.47139  -0.45770  -0.45204  -0.44632
 Alpha  occ. eigenvalues --   -0.43865  -0.43206  -0.42170  -0.41254  -0.38814
 Alpha  occ. eigenvalues --   -0.37292  -0.36467  -0.32119  -0.31620  -0.29227
 Alpha  occ. eigenvalues --   -0.28112  -0.27157  -0.26208
 Alpha virt. eigenvalues --   -0.13987  -0.05738  -0.02917  -0.02000  -0.01105
 Alpha virt. eigenvalues --   -0.00336   0.00093   0.00563   0.01362   0.02176
 Alpha virt. eigenvalues --    0.03004   0.03423   0.03543   0.04924   0.05716

  Beta  occ. eigenvalues --  -19.14600 -19.13961 -10.29356 -10.28577 -10.23063
  Beta  occ. eigenvalues --  -10.21996 -10.21909 -10.21259 -10.20779 -10.19488
  Beta  occ. eigenvalues --  -10.19236 -10.19202 -10.19113 -10.18967  -1.07769
  Beta  occ. eigenvalues --   -1.06829  -0.88805  -0.86466  -0.81551  -0.76628
  Beta  occ. eigenvalues --   -0.75976  -0.71307  -0.65839  -0.63539  -0.61625
  Beta  occ. eigenvalues --   -0.59536  -0.53876  -0.52874  -0.51289  -0.49275
  Beta  occ. eigenvalues --   -0.47811  -0.47139  -0.45770  -0.45204  -0.44632
  Beta  occ. eigenvalues --   -0.43865  -0.43206  -0.42170  -0.41254  -0.38814
  Beta  occ. eigenvalues --   -0.37292  -0.36467  -0.32119  -0.31620  -0.29227
  Beta  occ. eigenvalues --   -0.28112  -0.27157  -0.26208
  Beta virt. eigenvalues --   -0.13987  -0.05738  -0.02917  -0.02000  -0.01105
  Beta virt. eigenvalues --   -0.00336   0.00093   0.00563   0.01362   0.02176
  Beta virt. eigenvalues --    0.03004   0.03423   0.03543   0.04924   0.05716

 Mulliken charges and spin densities:
               1          2
     1  C   -1.086075  -0.000000
     2  C    1.636941  -0.000000
     3  C   -0.621034   0.000000
     4  C   -0.636275  -0.000000
     5  C    0.181210  -0.000000
     6  C    0.021530   0.000000
     7  O   -0.190509   0.000000
     8  O   -0.229054   0.000000
     9  C    1.345593   0.000000
    10  C   -0.487866  -0.000000
    11  C   -0.649860  -0.000000
    12  C   -0.233257   0.000000
    13  C   -0.144031   0.000000
    14  C   -0.443058  -0.000000
    15  H    0.214064   0.000000
    16  H    0.225139  -0.000000
    17  H    0.226288   0.000000
    18  H    0.180271   0.000000
    19  H    0.169713  -0.000000
    20  H    0.174417  -0.000000
    21  H    0.179603  -0.000000
    22  H    0.166254   0.000000
 Sum of Mulliken charges =  -0.00000  -0.00000

 Dipole moment (field-independent basis, Debye):
    X=             -0.9786    Y=             -1.0151    Z=              0.0071  Tot=              1.4100
 Quadrupole moment (field-independent basis, Debye-Ang):
   XX=            -69.0421   YY=            -89.1487   ZZ=            -75.8975
   XY=              7.3704   XZ=              5.7542   YZ=              8.5017

  Exact polarizability: 149.763  61.979 165.269  19.562 -12.739 136.302
 Approx polarizability: 213.820  97.633 308.555   4.134 -61.597 234.264

                      1                      2                      3
                      A                      A                      A
 Frequencies --     57.2138                66.1594                90.7456
 Red. masses --      4.5036                 5.3713                 6.3223
 Frc consts  --      0.0087                 0.0139                 0.0307
 IR Inten    --      0.8617                 5.7433                 1.7657

                      4                      5                      6
                      A                      A                      A
 Frequencies --    120.3471               218.8196               265.0518
 Red. masses --      6.2213                 5.3458                 6.0635
 Frc consts  --      0.0531                 0.1508                 0.2510
 IR Inten    --      3.7039                 1.6747                 0.2718

                      7                      8                      9
                      A                      A                      A
 Frequencies --    273.9708               311.6915               414.3433
 Red. masses --      5.5123                 4.6747                 2.8973
 Frc consts  --      0.2438                 0.2676                 0.2931
 IR Inten    --      1.0409                 0.1121                 2.0875

                     10                     11                     12
                      A                      A                      A
 Frequencies --    426.6710               430.6041               466.6647
 Red. masses --      9.1053                 3.9466                10.1489
 Frc consts  --      0.9766                 0.4312                 1.3022
 IR Inten    --     29.7189                 1.6615                 2.2985

                     13                     14                     15
                      A                      A                      A
 Frequencies --    502.0780               540.8938               623.2517
 Red. masses --      3.2796                 5.0512                 3.8402
 Frc consts  --      0.4871                 0.8707                 0.8789
 IR Inten    --      1.4236                 8.6977                 2.6310

                     16                     17                     18
                      A                      A                      A
 Frequencies --    626.6824               636.7608               692.1900
 Red. masses --      3.9322                 5.1922                 6.7341
 Frc consts  --      0.9099                 1.2404                 1.9010
 IR Inten    --      5.0778                 0.9962                 2.7342

                     19                     20                     21
                      A                      A                      A
 Frequencies --    706.1789               762.6826               791.0062
 Red. masses --      1.6997                 2.2824                 2.9565
 Frc consts  --      0.4994                 0.7822                 1.0899
 IR Inten    --     40.6418                23.2126                 1.0054

                     22                     23                     24
                      A                      A                      A
 Frequencies --    803.1296               846.9305               854.0854
 Red. masses --      4.2605                 2.5551                 1.5176
 Frc consts  --      1.6191                 1.0798                 0.6523
 IR Inten    --      2.6482                 3.1825                 9.1201

                     25                     26                     27
                      A                      A                      A
 Frequencies --    855.2986               930.9446               942.2710
 Red. masses --      2.4510                 1.4926                 1.5382
 Frc consts  --      1.0564                 0.7622                 0.8047
 IR Inten    --     18.0607                34.7138                 6.9245

                     28                     29                     30
                      A                      A                      A
 Frequencies --    986.1484               989.4365              1006.5801
 Red. masses --      1.5949                 2.8210                 1.3213
 Frc consts  --      0.9138                 1.6271                 0.7888
 IR Inten    --      1.8851                24.8518                 0.0920

                     31                     32                     33
                      A                      A                      A
 Frequencies --   1015.9174              1019.9366              1053.0977
 Red. masses --      5.8435                 1.2630                 2.1229
 Frc consts  --      3.5533                 0.7741                 1.3871
 IR Inten    --      2.6810                 0.1751                 0.8332

                     34                     35                     36
                      A                      A                      A
 Frequencies --   1104.3533              1110.3455              1185.0275
 Red. masses --      1.6171                 1.5607                 1.1099
 Frc consts  --      1.1620                 1.1337                 0.9183
 IR Inten    --     52.5590                32.6191                 0.1941

                     37                     38                     39
                      A                      A                      A
 Frequencies --   1204.2635              1211.1815              1265.9460
 Red. masses --      1.7966                 1.1816                 2.0609
 Frc consts  --      1.5351                 1.0212                 1.9460
 IR Inten    --      9.5757                 1.6193                39.0314

                     40                     41                     42
                      A                      A                      A
 Frequencies --   1286.8212              1322.7503              1348.8352
 Red. masses --      3.1874                 4.1592                 2.5778
 Frc consts  --      3.1097                 4.2876                 2.7633
 IR Inten    --    104.3299                43.1315                21.5913

                     43                     44                     45
                      A                      A                      A
 Frequencies --   1363.0149              1389.3316              1474.3367
 Red. masses --      1.5562                 1.9645                 2.2121
 Frc consts  --      1.7034                 2.2342                 2.8330
 IR Inten    --      2.9821                 4.9821                 9.2419

                     46                     47                     48
                      A                      A                      A
 Frequencies --   1523.6287              1609.9323              1631.5434
 Red. masses --      2.1855                 5.2264                 7.7251
 Frc consts  --      2.9893                 7.9812                12.1158
 IR Inten    --      5.5102                18.0327                94.8767

                     49                     50                     51
                      A                      A                      A
 Frequencies --   1638.9199              1674.0618              1715.2025
 Red. masses --      5.6301                 8.9674                 9.1880
 Frc consts  --      8.9100                14.8067                15.9258
 IR Inten    --      1.3078                 4.2113               286.8039

                     52                     53                     54
                      A                      A                      A
 Frequencies --   1723.6977              3164.5258              3172.5295
 Red. masses --     11.3646                 1.0855                 1.0886
 Frc consts  --     19.8943                 6.4049                 6.4557
 IR Inten    --    203.7863                 0.4838                 3.7743

                     55                     56                     57
                      A                      A                      A
 Frequencies --   3175.5736              3180.7599              3183.2049
 Red. masses --      1.0872                 1.0924                 1.0918
 Frc consts  --      6.4598                 6.5117                 6.5180
 IR Inten    --      1.0132                11.9006                 5.4997

                     58                     59                     60
                      A                      A                      A
 Frequencies --   3190.9969              3193.7052              3213.9080
 Red. masses --      1.0972                 1.0995                 1.0931
 Frc consts  --      6.5824                 6.6073                 6.6525
 IR Inten    --     17.6028                 2.9482                 2.5548

 - Thermochemistry -
 -------------------
 Temperature   298.150 Kelvin.  Pressure   1.00000 Atm.
 Atom     1 has atomic number  6 and mass  12.00000

 Molecular mass:   184.05243 amu.
 Principal axes and moments of inertia in atomic units:
                           1         2         3
     Eigenvalues --  1202.631804053.581315030.98014
           X            0.73635   0.16545   0.65606
           Y            0.62409  -0.54062  -0.56413
           Z            0.26134   0.82484  -0.50134
 This molecule is an asymmetric top.
 Rotational symmetry number  1.
 Warning -- assumption of classical behavior for rotation
           may cause significant error
 Rotational temperatures (Kelvin)      0.07202     0.02137     0.01722
 Rotational constants (GHZ):           1.50066     0.44522     0.35873
 Zero-point vibrational energy     434161.8 (Joules/Mol)
                                  103.76715 (Kcal/Mol)
 Warning -- explicit consideration of  14 degrees of freedom as
           vibrations may cause significant error
 Vibrational temperatures:     82.32    95.19   130.56   173.15   314.83
          (Kelvin)            381.35   394.18   448.45   596.15   613.88
                              619.54   671.43   722.38   778.23   896.72
                              901.66   916.16   995.91  1016.03  1097.33
                             1138.08  1155.52  1218.54  1228.84  1230.58
                             1339.42  1355.72  1418.85  1423.58  1448.24
                             1461.68  1467.46  1515.17  1588.92  1597.54
                             1704.99  1732.67  1742.62  1821.41  1851.45
                             1903.14  1940.67  1961.07  1998.94  2121.24
                             2192.16  2316.33  2347.43  2358.04  2408.60
                             2467.79  2480.02  4553.05  4564.56  4568.94
                             4576.40  4579.92  4591.13  4595.03  4624.10

 Zero-point correction=                           0.165363 (Hartree/Particle)
 Thermal correction to Energy=                    0.176245
 Thermal correction to Enthalpy=                  0.177189
 Thermal correction to Gibbs Free Energy=         0.127773
 Sum of electronic and zero-point Energies=           -612.508233
 Sum of electronic and thermal Energies=              -612.497352
 Sum of electronic and thermal Enthalpies=            -612.496407
 Sum of electronic and thermal Free Energies=         -612.545823

                     E (Thermal)             CV                S
                      KCal/Mol        Cal/Mol-Kelvin    Cal/Mol-Kelvin
 Total                  110.595             42.481            104.004
 Electronic               0.000              0.000              0.000
 Translational            0.889              2.981             41.536
 Rotational               0.889              2.981             31.573
 Vibrational            108.818             36.519             30.895
 Vibration     1          0.596              1.975              4.551
 Vibration     2          0.598              1.970              4.264
 Vibration     3          0.602              1.956              3.644
 Vibration     4          0.609              1.932              3.095
 Vibration     5          0.647              1.812              1.969
 Vibration     6          0.671              1.737              1.628
 Vibration     7          0.676              1.721              1.571
 Vibration     8          0.700              1.651              1.353
 Vibration     9          0.778              1.439              0.911
 Vibration    10          0.788              1.412              0.870
 Vibration    11          0.792              1.404              0.857
 Vibration    12          0.824              1.324              0.747
 Vibration    13          0.857              1.245              0.653
 Vibration    14          0.896              1.160              0.563

 Optimization completed.
    -- Stationary point found.
 Normal termination of Gaussian 16 at Wed Jan 10 05:05:13 2024.
