 Q-Chem 5.4, Q-Chem, Inc., Pleasanton, CA (2021)
 Q-Chem 5.4.0 for Intel X86 EM64T Linux

User input:
--------------------------------------------------------------
$molecule
-2 1
C                  5.5661100000     -4.6083660000     -1.0144630000
C                  6.4662060000     -4.1044300000     -1.9698420000
C                  6.1640090000     -2.8146690000     -2.5734480000
C                  4.3843180000     -3.9520660000     -0.5846090000
C                  4.1207280000     -2.6411600000     -1.2282930000
C                  5.0103570000     -2.1414350000     -2.1747300000
C                  3.4539560000     -4.4767960000      0.4111320000
C                  2.3018370000     -3.6295270000      0.6886670000
C                  2.0574020000     -2.3577640000      0.0542930000
C                  2.9565030000     -1.8140760000     -0.9288390000
C                  1.3567880000     -4.0835000000      1.6454890000
C                  0.2343200000     -3.3550500000      1.9778040000
C                 -0.0031760000     -2.0990430000      1.3497110000
C                  0.8936340000     -1.6285260000      0.4161320000
C                  7.6737850000     -4.7521990000     -2.3940530000
C                  8.5005980000     -4.2019730000     -3.3393800000
C                  8.1874820000     -2.9446000000     -3.9455410000
C                  7.0477650000     -2.2853270000     -3.5574530000
O                  3.5958200000     -5.5883720000      1.0180680000
O                  2.7576920000     -0.6871610000     -1.5035160000
Cl                 6.0175910000     -6.1988500000     -0.3218620000
H                  4.7576790000     -1.1788530000     -2.6086880000
H                  1.5666770000     -5.0433950000      2.1058570000
H                 -0.4678020000     -3.7366210000      2.7168190000
H                 -0.8866230000     -1.5174920000      1.6067640000
H                  0.7461230000     -0.6762210000     -0.0834050000
H                  7.9310640000     -5.7039870000     -1.9486160000
H                  9.4051690000     -4.7287000000     -3.6345550000
H                  8.8487000000     -2.5213030000     -4.6972650000
H                  6.7899870000     -1.3254850000     -3.9990770000
$end
$rem
MAX_SCF_CYCLES=200
BASIS  =  6-311++G(d,p)
GUI  =  2
JOB_TYPE  =  SP
METHOD  =  B3LYP
SOLVENT_METHOD = COSMO
$end
$solvent
dielectric 37.219
opticaldielectric 1.43
$end

--------------------------------------------------------------

             Standard Nuclear Orientation (Angstroms)
    I     Atom           X                Y                Z
 ----------------------------------------------------------------
    1      C       1.3112305667    -1.0012315569    -0.0048340870
    2      C       2.4806482434    -0.2206405007    -0.0011960698
    3      C       2.3304474847     1.2273173648     0.0009061111
    4      C      -0.0104891844    -0.4862952119     0.0009919555
    5      C      -0.1109136748     0.9943097286     0.0036850344
    6      C       1.0457465689     1.7682846259     0.0064719825
    7      C      -1.2227982248    -1.3003724638     0.0014181561
    8      C      -2.4717635108    -0.5504704574     0.0002692846
    9      C      -2.5546004114     0.8892157830     0.0015127974
   10      C      -1.3781254641     1.7177280812     0.0028726472
   11      C      -3.6877733573    -1.2826113425    -0.0024166547
   12      C      -4.9209456424    -0.6659330080    -0.0034265353
   13      C      -4.9986381858     0.7561845061    -0.0013299913
   14      C      -3.8378800458     1.4977094913     0.0009958239
   15      C       3.8200992638    -0.7339037403     0.0142474337
   16      C       4.9150850621     0.0913162698     0.0088103839
   17      C       4.7618906684     1.5134906013    -0.0114700770
   18      C       3.4965427905     2.0455628062    -0.0128632680
   19      O      -1.2378562935    -2.5746844978     0.0013894263
   20      O      -1.4300831768     2.9971873167     0.0040328218
   21      Cl      1.5895264304    -2.7720284858    -0.0043423085
   22      H       0.9022509290     2.8444531282     0.0060474794
   23      H      -3.5943683684    -2.3636592152    -0.0036429151
   24      H      -5.8317790789    -1.2618299840    -0.0054627396
   25      H      -5.9682085698     1.2508456159    -0.0015929328
   26      H      -3.8573594185     2.5829744145     0.0024529282
   27      H       3.9600396663    -1.8065945211     0.0303152362
   28      H       5.9134127398    -0.3400568501     0.0176073530
   29      H       5.6379888823     2.1568024448    -0.0204343101
   30      H       3.3530119834     3.1235608133    -0.0227184037
 ----------------------------------------------------------------

   12   -1302.2255199204      8.06e-06  Convergence criterion met
 Total energy in the final basis set =    -1302.2255199204
    6   -1302.4843892961      4.51e-06  Convergence criterion met
 Total energy in the final basis set =    -1302.4843892961

                    Orbital Energies (a.u.)
 --------------------------------------------------------------

 Alpha MOs
 -- Occupied --
******** -19.0324 -19.0248 -10.2192 -10.1878 -10.1842 -10.1755 -10.1694
-10.1677 -10.1663 -10.1652 -10.1637 -10.1636 -10.1535 -10.1527 -10.1526
-10.1520 -10.1501 -10.1487 -10.1420 -10.1414  -9.4459  -7.2100  -7.2014
 -7.2001  -0.9544  -0.9510  -0.8736  -0.8344  -0.8298  -0.8028  -0.7553
 -0.7484  -0.7272  -0.7172  -0.7053  -0.6412  -0.6333  -0.6026  -0.5856
 -0.5631  -0.5374  -0.5303  -0.5045  -0.4832  -0.4771  -0.4494  -0.4347
 -0.4308  -0.4283  -0.4105  -0.4087  -0.4017  -0.4010  -0.3875  -0.3828
 -0.3761  -0.3735  -0.3543  -0.3495  -0.3484  -0.3336  -0.3263  -0.3209
 -0.3204  -0.3107  -0.2953  -0.2934  -0.2689  -0.2354  -0.2337  -0.2247
 -0.2129  -0.2094  -0.1979  -0.1093

          Ground-State Mulliken Net Atomic Charges

     Atom                 Charge (a.u.)
  ----------------------------------------
      1 C                     0.392575
      2 C                     0.377706
      3 C                     1.038274
      4 C                     0.158582
      5 C                     0.661853
      6 C                     0.052251
      7 C                    -1.817601
      8 C                    -0.234177
      9 C                     0.458580
     10 C                    -0.540733
     11 C                     0.078499
     12 C                    -0.507954
     13 C                    -0.555152
     14 C                     0.065711
     15 C                    -1.166033
     16 C                    -0.702939
     17 C                    -0.355996
     18 C                    -0.244024
     19 O                    -0.551608
     20 O                    -0.659482
     21 Cl                    0.494747
     22 H                     0.126730
     23 H                     0.159462
     24 H                     0.183159
     25 H                     0.182072
     26 H                     0.156011
     27 H                     0.171412
     28 H                     0.207060
     29 H                     0.195417
     30 H                     0.175594
  ----------------------------------------
  Sum of atomic charges =    -2.000002

                    Cartesian Multipole Moments
 -----------------------------------------------------------------
    Charge (ESU x 10^10)
                -9.6064
    Dipole Moment (Debye)
         X       9.5438      Y       0.2985      Z      -0.0098
       Tot       9.5485
    Quadrupole Moments (Debye-Ang)
        XX    -168.1059     XY       7.4911     YY    -191.0409
        XZ       0.0605     YZ      -0.1270     ZZ    -141.9407

 Total job time:  107.26s(wall), 823.65s(cpu)
        *  Thank you very much for using Q-Chem.  Have a nice day.  *
