 Q-Chem 5.4, Q-Chem, Inc., Pleasanton, CA (2021)
 Q-Chem 5.4.0 for Intel X86 EM64T Linux

User input:
--------------------------------------------------------------
$molecule
0 1
C                 -0.0647740000      0.9985960000     -0.4082430000
C                 -1.0033830000      0.1387190000     -1.1676480000
C                 -1.1592920000     -1.1544600000     -0.8660130000
C                 -0.4130920000     -1.7973460000      0.2439000000
C                  0.5047470000     -0.9083800000      1.0362140000
C                  0.6566750000      0.3957150000      0.7504980000
O                  0.1250780000      2.1609110000     -0.7227950000
O                 -0.5422360000     -2.9770240000      0.4918900000
C                  1.5174950000      1.3450870000      1.5763260000
C                  2.9061210000      1.6154200000      1.0651810000
O                  1.0490080000      1.8380760000      2.5721850000
H                  2.8409930000      2.0762040000      0.0747680000
H                  3.4567470000      0.6756490000      0.9575350000
H                  3.4302200000      2.2808510000      1.7504460000
H                 -1.8299090000     -1.8089210000     -1.4110560000
Cl                 1.3573140000     -1.6742570000      2.3387280000
H                 -1.5352840000      0.6217810000     -1.9795180000
$end

$rem
BASIS  =  6-311++G(d,p)
GUI  =  2
JOB_TYPE  =  SP
METHOD  =  B3LYP
SCF_CONVERGENCE  = 8
SOLVENT_METHOD = sm12
$end

$smx
solvent dimethylformamide
charges CM5
$end

--------------------------------------------------------------

             Standard Nuclear Orientation (Angstroms)
    I     Atom           X                Y                Z
 ----------------------------------------------------------------
    1      C      -0.0647740000     0.9985960000    -0.4082430000
    2      C      -1.0033830000     0.1387190000    -1.1676480000
    3      C      -1.1592920000    -1.1544600000    -0.8660130000
    4      C      -0.4130920000    -1.7973460000     0.2439000000
    5      C       0.5047470000    -0.9083800000     1.0362140000
    6      C       0.6566750000     0.3957150000     0.7504980000
    7      O       0.1250780000     2.1609110000    -0.7227950000
    8      O      -0.5422360000    -2.9770240000     0.4918900000
    9      C       1.5174950000     1.3450870000     1.5763260000
   10      C       2.9061210000     1.6154200000     1.0651810000
   11      O       1.0490080000     1.8380760000     2.5721850000
   12      H       2.8409930000     2.0762040000     0.0747680000
   13      H       3.4567470000     0.6756490000     0.9575350000
   14      H       3.4302200000     2.2808510000     1.7504460000
   15      H      -1.8299090000    -1.8089210000    -1.4110560000
   16      Cl      1.3573140000    -1.6742570000     2.3387280000
   17      H      -1.5352840000     0.6217810000    -1.9795180000
 ----------------------------------------------------------------

   16    -993.8597199307      4.79e-09  Convergence criterion met
 Total energy in the final basis set =     -993.8795896713

                    Orbital Energies (a.u.)
 --------------------------------------------------------------

 Alpha MOs
 -- Occupied --
******** -19.1549 -19.1533 -19.1415 -10.3040 -10.3028 -10.2941 -10.2832
-10.2362 -10.2217 -10.2206 -10.1812  -9.4969  -7.2617  -7.2520  -7.2509
 -1.0892  -1.0863  -1.0761  -0.9190  -0.8608  -0.8061  -0.7579  -0.7207
 -0.6630  -0.6235  -0.5734  -0.5458  -0.5147  -0.4977  -0.4832  -0.4782
 -0.4662  -0.4585  -0.4552  -0.4415  -0.4359  -0.4260  -0.4056  -0.3869
 -0.3787  -0.3429  -0.3210  -0.3075  -0.3035  -0.2959  -0.2758

          Ground-State Mulliken Net Atomic Charges

     Atom                 Charge (a.u.)
  ----------------------------------------
      1 C                    -1.279665
      2 C                     0.891207
      3 C                     0.741987
      4 C                    -1.090254
      5 C                    -0.027629
      6 C                     0.737591
      7 O                    -0.268420
      8 O                    -0.246310
      9 C                    -0.643649
     10 C                    -0.307601
     11 O                    -0.312377
     12 H                     0.232335
     13 H                     0.219816
     14 H                     0.183130
     15 H                     0.364780
     16 Cl                    0.440582
     17 H                     0.364478
  ----------------------------------------
  Sum of atomic charges =     0.000000

                    Cartesian Multipole Moments
 -----------------------------------------------------------------
    Charge (ESU x 10^10)
                -0.0000
    Dipole Moment (Debye)
         X       0.4780      Y      -0.5334      Z      -3.5606
       Tot       3.6319
    Quadrupole Moments (Debye-Ang)
        XX     -64.2664     XY       1.6519     YY     -92.8434
        XZ       3.7030     YZ      -0.1202     ZZ     -81.2636

 Total job time:  202.58s(wall), 1463.30s(cpu)
        *  Thank you very much for using Q-Chem.  Have a nice day.  *
