 Gaussian 16, Revision A.03,
 Gaussian 16:  ES64L-G16RevA.03 25-Dec-2016

 ----------------------------------------------------------------
 #P UB3LYP/6-311++G(d,p) SCRF=(PCM,Solvent=n,n-DiMethylFormamide)
 ----------------------------------------------------------------

 -------
 Reduced
 -------
 Symbolic Z-matrix:
 Charge = -2 Multiplicity = 1

                         Standard orientation:
 ---------------------------------------------------------------------
 Center     Atomic      Atomic             Coordinates (Angstroms)
 Number     Number       Type             X           Y           Z
 ---------------------------------------------------------------------
      1          6           0       -5.749464   -0.330630   -0.869435
      2          6           0       -6.291066   -1.589945   -0.700622
      3          6           0       -5.544375   -2.600176   -0.045341
      4          6           0       -4.449576   -0.014154   -0.399472
      5          6           0       -3.687844   -1.042368    0.265829
      6          6           0       -4.270397   -2.313684    0.421193
      7          6           0       -3.899180    1.297581   -0.577190
      8          6           0       -2.578830    1.496985   -0.062043
      9          6           0       -1.813112    0.534826    0.587383
     10          6           0       -2.334123   -0.794649    0.779528
     11          8           0       -4.485778    2.301052   -1.152855
     12          8           0       -1.665242   -1.705458    1.368234
     13          1           0       -6.303370    0.458297   -1.368233
     14          1           0       -7.290830   -1.807131   -1.071230
     15          1           0       -5.968002   -3.592610    0.088894
     16          1           0       -3.672280   -3.066160    0.925358
     17          8           0       -2.113607    2.775627   -0.263888
     18          1           0       -2.891783    3.169561   -0.728622
     19          6           0       -0.435487    0.856634    1.111400
     20          6           0        0.697826    0.463235    0.139253
     21          6           0        2.128357    0.674184    0.679454
     22          6           0        3.165530    0.020206   -0.258279
     23          6           0        4.609519   -0.022791    0.265370
     24          6           0        5.573590   -0.739871   -0.690601
     25          6           0        7.022937   -0.903949   -0.189575
     26          6           0        7.815386   -1.829793   -1.124421
     27          6           0        2.435373    2.162168    0.915070
     28          6           0        7.747243    0.440587   -0.023594
     29          1           0       -0.289011    0.296404    2.042635
     30          1           0       -0.379449    1.925999    1.335297
     31          1           0        0.579088    1.025449   -0.796684
     32          1           0        0.565521   -0.595523   -0.105189
     33          1           0        2.190304    0.157982    1.649361
     34          1           0        3.147687    0.544163   -1.224834
     35          1           0        2.838419   -1.005965   -0.466214
     36          1           0        4.622396   -0.533816    1.238075
     37          1           0        4.967578    0.994825    0.450408
     38          1           0        5.591859   -0.209852   -1.653344
     39          1           0        5.169669   -1.737729   -0.906702
     40          1           0        6.979667   -1.385376    0.797583
     41          1           0        7.339763   -2.813986   -1.208324
     42          1           0        8.840473   -1.984779   -0.770736
     43          1           0        7.879996   -1.405636   -2.133933
     44          1           0        3.425306    2.315860    1.356710
     45          1           0        1.701242    2.615316    1.584807
     46          1           0        2.399643    2.714424   -0.031898
     47          1           0        7.248685    1.089463    0.703057
     48          1           0        7.792100    0.979741   -0.977650
     49          1           0        8.778505    0.294932    0.316048
 ---------------------------------------------------------------------

 SCF Done:  E(UB3LYP) =  -1004.00813822     A.U. after   18 cycles

 The electronic state is 1-A.
 Alpha  occ. eigenvalues --  -19.10815 -19.02168 -19.01373 -10.17156 -10.16830
 Alpha  occ. eigenvalues --  -10.16771 -10.15910 -10.15672 -10.15532 -10.15444
 Alpha  occ. eigenvalues --  -10.15231 -10.15174 -10.15130 -10.14600 -10.14528
 Alpha  occ. eigenvalues --  -10.14314 -10.14145 -10.14111 -10.14042 -10.13777
 Alpha  occ. eigenvalues --  -10.13124 -10.12731 -10.11919  -1.02242  -0.93718
 Alpha  occ. eigenvalues --   -0.92819  -0.82040  -0.81300  -0.79684  -0.76786
 Alpha  occ. eigenvalues --   -0.74376  -0.72035  -0.71782  -0.68152  -0.67843
 Alpha  occ. eigenvalues --   -0.66753  -0.63538  -0.61551  -0.58750  -0.57622
 Alpha  occ. eigenvalues --   -0.55494  -0.55201  -0.54207  -0.53073  -0.49902
 Alpha  occ. eigenvalues --   -0.47211  -0.46663  -0.45480  -0.44455  -0.43642
 Alpha  occ. eigenvalues --   -0.43203  -0.42857  -0.41953  -0.41742  -0.40386
 Alpha  occ. eigenvalues --   -0.40010  -0.39670  -0.38691  -0.38024  -0.37682
 Alpha  occ. eigenvalues --   -0.37213  -0.36922  -0.35804  -0.35462  -0.35285
 Alpha  occ. eigenvalues --   -0.34687  -0.34545  -0.34113  -0.33600  -0.33518
 Alpha  occ. eigenvalues --   -0.32130  -0.31819  -0.31432  -0.31236  -0.30882
 Alpha  occ. eigenvalues --   -0.30451  -0.30091  -0.29760  -0.29368  -0.28693
 Alpha  occ. eigenvalues --   -0.22608  -0.22040  -0.21019  -0.19179  -0.18769
 Alpha  occ. eigenvalues --   -0.10205
 Alpha virt. eigenvalues --   -0.00366  -0.00151   0.00141   0.00770   0.00958
 Alpha virt. eigenvalues --    0.01315   0.01580   0.02222   0.02382   0.02558
 Alpha virt. eigenvalues --    0.02738   0.03699   0.03875   0.04095   0.04272

  Beta  occ. eigenvalues --  -19.10815 -19.02168 -19.01373 -10.17156 -10.16830
  Beta  occ. eigenvalues --  -10.16771 -10.15910 -10.15672 -10.15532 -10.15444
  Beta  occ. eigenvalues --  -10.15231 -10.15174 -10.15130 -10.14600 -10.14528
  Beta  occ. eigenvalues --  -10.14314 -10.14145 -10.14111 -10.14042 -10.13777
  Beta  occ. eigenvalues --  -10.13124 -10.12731 -10.11919  -1.02242  -0.93718
  Beta  occ. eigenvalues --   -0.92819  -0.82040  -0.81300  -0.79684  -0.76786
  Beta  occ. eigenvalues --   -0.74376  -0.72035  -0.71782  -0.68152  -0.67843
  Beta  occ. eigenvalues --   -0.66753  -0.63538  -0.61551  -0.58750  -0.57622
  Beta  occ. eigenvalues --   -0.55494  -0.55201  -0.54207  -0.53073  -0.49902
  Beta  occ. eigenvalues --   -0.47211  -0.46663  -0.45480  -0.44455  -0.43642
  Beta  occ. eigenvalues --   -0.43203  -0.42857  -0.41953  -0.41742  -0.40386
  Beta  occ. eigenvalues --   -0.40010  -0.39670  -0.38691  -0.38024  -0.37682
  Beta  occ. eigenvalues --   -0.37213  -0.36922  -0.35804  -0.35462  -0.35285
  Beta  occ. eigenvalues --   -0.34687  -0.34545  -0.34113  -0.33600  -0.33518
  Beta  occ. eigenvalues --   -0.32130  -0.31819  -0.31432  -0.31236  -0.30882
  Beta  occ. eigenvalues --   -0.30451  -0.30091  -0.29760  -0.29368  -0.28693
  Beta  occ. eigenvalues --   -0.22608  -0.22040  -0.21019  -0.19179  -0.18769
  Beta  occ. eigenvalues --   -0.10205
  Beta virt. eigenvalues --   -0.00366  -0.00151   0.00141   0.00770   0.00958
  Beta virt. eigenvalues --    0.01315   0.01580   0.02222   0.02382   0.02558
  Beta virt. eigenvalues --    0.02738   0.03699   0.03875   0.04095   0.04272

 Mulliken charges and spin densities:
               1          2
     1  C   -0.136729   0.000000
     2  C   -0.362989   0.000000
     3  C   -0.544190   0.000000
     4  C    0.557952   0.000000
     5  C   -0.164644  -0.000000
     6  C    0.021730   0.000000
     7  C   -1.098262  -0.000000
     8  C   -0.769364  -0.000000
     9  C    2.168191   0.000000
    10  C   -0.867809   0.000000
    11  O   -0.729706  -0.000000
    12  O   -0.633957  -0.000000
    13  H    0.138752  -0.000000
    14  H    0.153596   0.000000
    15  H    0.147172   0.000000
    16  H    0.141309   0.000000
    17  O   -0.326259   0.000000
    18  H    0.274060  -0.000000
    19  C    0.006089  -0.000000
    20  C   -1.121417  -0.000000
    21  C    1.245512   0.000000
    22  C   -0.709306  -0.000000
    23  C    0.006380   0.000000
    24  C   -0.851015  -0.000000
    25  C    0.535067   0.000000
    26  C   -0.657696  -0.000000
    27  C   -0.743995  -0.000000
    28  C   -0.698742   0.000000
    29  H    0.178452   0.000000
    30  H    0.196014   0.000000
    31  H    0.158003   0.000000
    32  H    0.176002  -0.000000
    33  H    0.117891   0.000000
    34  H    0.142938  -0.000000
    35  H    0.103035   0.000000
    36  H    0.149427   0.000000
    37  H    0.085493  -0.000000
    38  H    0.139586   0.000000
    39  H    0.129550   0.000000
    40  H    0.139491   0.000000
    41  H    0.136228   0.000000
    42  H    0.158520  -0.000000
    43  H    0.140398   0.000000
    44  H    0.145235   0.000000
    45  H    0.137300  -0.000000
    46  H    0.152060   0.000000
    47  H    0.142620   0.000000
    48  H    0.146635   0.000000
    49  H    0.145390  -0.000000
 Sum of Mulliken charges =  -2.00000   0.00000

 Dipole moment (field-independent basis, Debye):
    X=             30.4351    Y=             -1.8637    Z=             -0.6017  Tot=             30.4980
 Quadrupole moment (field-independent basis, Debye-Ang):
   XX=           -278.7459   YY=           -189.0745   ZZ=           -165.3507
   XY=             14.6860   XZ=             -8.9098   YZ=             14.1551

 Normal termination of Gaussian 16 at Sun Jan 21 09:15:51 2024.
