 Gaussian 16, Revision A.03,
 Gaussian 16:  ES64L-G16RevA.03 25-Dec-2016

 ----------------------------------------------
 #P UB3LYP/6-311++G(d,p) nosym opt freq SCF=YQC
 ----------------------------------------------

 -------
 Reduced
 -------
 Symbolic Z-matrix:
 Charge = -2 Multiplicity = 1

 SCF Done:  E(UB3LYP) =  -1003.76472230     a.u. after   17 cycles
 SCF Done:  E(UB3LYP) =  -1003.76501533     A.U. after   27 cycles
 SCF Done:  E(UB3LYP) =  -1003.76488742     a.u. after   38 cycles
 SCF Done:  E(UB3LYP) =  -1003.76506218     A.U. after   25 cycles
 SCF Done:  E(UB3LYP) =  -1003.76489877     a.u. after   28 cycles
 SCF Done:  E(UB3LYP) =  -1003.76508283     A.U. after   25 cycles
 SCF Done:  E(UB3LYP) =  -1003.76495758     a.u. after   24 cycles
 SCF Done:  E(UB3LYP) =  -1003.76509196     A.U. after   25 cycles
 SCF Done:  E(UB3LYP) =  -1003.76493683     a.u. after   39 cycles
 SCF Done:  E(UB3LYP) =  -1003.76510021     A.U. after   24 cycles
 SCF Done:  E(UB3LYP) =  -1003.76510056     a.u. after    1 cycles
 SCF Done:  E(UB3LYP) =  -1003.76510767     A.U. after   21 cycles
 SCF Done:  E(UB3LYP) =  -1003.76506086     a.u. after    1 cycles
 SCF Done:  E(UB3LYP) =  -1003.76510774     A.U. after   26 cycles
 SCF Done:  E(UB3LYP) =  -1003.76509823     a.u. after    1 cycles
 SCF Done:  E(UB3LYP) =  -1003.76510776     A.U. after   24 cycles
 SCF Done:  E(UB3LYP) =  -1003.76510282     a.u. after    1 cycles
 SCF Done:  E(UB3LYP) =  -1003.76510777     A.U. after   25 cycles
 Optimization completed.
    -- Stationary point found.
 Normal termination of Gaussian 16 at Sun Jan 14 08:31:29 2024.

 ----------------------------------------------------------------------
 #P Geom=AllCheck Guess=TCheck SCRF=Check GenChk UB3LYP/6-311++G(d,p) F
 req
 ----------------------------------------------------------------------

 Structure from the checkpoint file:  "291-an.chk"
 -------
 Reduced
 -------
 Charge = -2 Multiplicity = 1

                          Input orientation:
 ---------------------------------------------------------------------
 Center     Atomic      Atomic             Coordinates (Angstroms)
 Number     Number       Type             X           Y           Z
 ---------------------------------------------------------------------
      1          6           0        0.146147    3.727903   -0.056429
      2          6           0       -0.957005    3.674445   -0.885828
      3          6           0       -1.019712    2.707736   -1.919776
      4          6           0        1.233468    2.830944   -0.211121
      5          6           0        1.171572    1.847888   -1.264618
      6          6           0        0.032789    1.821272   -2.090580
      7          6           0        2.371739    2.893529    0.658125
      8          6           0        3.406293    1.937763    0.403816
      9          6           0        3.384163    0.973170   -0.597633
     10          6           0        2.257366    0.884799   -1.491163
     11          8           0        2.539945    3.726029    1.638478
     12          8           0        2.197874    0.016779   -2.422050
     13          1           0        0.215431    4.459921    0.741923
     14          1           0       -1.777963    4.374865   -0.746230
     15          1           0       -1.886792    2.663300   -2.574453
     16          1           0        0.015978    1.070611   -2.874399
     17          8           0        4.465409    2.051972    1.274062
     18          1           0        4.149330    2.805100    1.830491
     19          6           0        4.522329   -0.002477   -0.767025
     20          6           0        5.554579    0.437524   -1.827728
     21          6           0        6.678287   -0.581850   -2.112140
     22          6           0        7.495573   -0.158419   -3.351296
     23          6           0        8.512992   -1.187966   -3.867101
     24          6           0        9.244908   -0.725293   -5.135072
     25          6           0       10.215106   -1.745692   -5.764401
     26          6           0       10.698598   -1.254794   -7.137119
     27          6           0        7.578886   -0.795243   -0.884437
     28          6           0       11.411641   -2.063137   -4.854743
     29          1           0        4.099565   -0.962247   -1.087376
     30          1           0        5.017609   -0.144355    0.198056
     31          1           0        6.002582    1.391370   -1.518483
     32          1           0        5.007483    0.627882   -2.756532
     33          1           0        6.195557   -1.542020   -2.348926
     34          1           0        8.017464    0.782704   -3.125475
     35          1           0        6.792595    0.074061   -4.160642
     36          1           0        7.991419   -2.131862   -4.078024
     37          1           0        9.244138   -1.411624   -3.083909
     38          1           0        9.798410    0.199227   -4.918217
     39          1           0        8.494549   -0.454135   -5.889398
     40          1           0        9.657177   -2.679455   -5.922288
     41          1           0        9.856731   -1.077639   -7.816654
     42          1           0       11.366247   -1.978998   -7.616379
     43          1           0       11.253148   -0.313014   -7.043725
     44          1           0        8.340260   -1.562646   -1.057750
     45          1           0        6.993938   -1.101270   -0.014367
     46          1           0        8.093872    0.136792   -0.621547
     47          1           0       11.098681   -2.494517   -3.898924
     48          1           0       11.988938   -1.155895   -4.638958
     49          1           0       12.093013   -2.775947   -5.331930
 ---------------------------------------------------------------------

 SCF Done:  E(UB3LYP) =  -1003.76510777     a.u. after    1 cycles
 SCF Done:  E(UB3LYP) =  -1003.76510777     A.U. after    6 cycles

 Alpha  occ. eigenvalues --  -18.91952 -18.84125 -18.83082 -10.02812 -10.01412
 Alpha  occ. eigenvalues --  -10.01206 -10.01187 -10.00922  -9.99991  -9.99891
 Alpha  occ. eigenvalues --   -9.99201  -9.99193  -9.98863  -9.98164  -9.96857
 Alpha  occ. eigenvalues --   -9.96787  -9.96369  -9.95985  -9.95833  -9.95732
 Alpha  occ. eigenvalues --   -9.95015  -9.94705  -9.93826  -0.83394  -0.75007
 Alpha  occ. eigenvalues --   -0.74308  -0.66836  -0.64152  -0.63801  -0.59823
 Alpha  occ. eigenvalues --   -0.58085  -0.54798  -0.53929  -0.53504  -0.51817
 Alpha  occ. eigenvalues --   -0.50681  -0.46700  -0.44467  -0.42231  -0.41332
 Alpha  occ. eigenvalues --   -0.39656  -0.38449  -0.36963  -0.34674  -0.32739
 Alpha  occ. eigenvalues --   -0.31698  -0.30206  -0.29446  -0.28586  -0.27878
 Alpha  occ. eigenvalues --   -0.27712  -0.26118  -0.25479  -0.24431  -0.23988
 Alpha  occ. eigenvalues --   -0.23505  -0.23385  -0.22709  -0.21759  -0.21273
 Alpha  occ. eigenvalues --   -0.21155  -0.20051  -0.19200  -0.19037  -0.18576
 Alpha  occ. eigenvalues --   -0.18035  -0.17562  -0.17404  -0.16939  -0.16565
 Alpha  occ. eigenvalues --   -0.16148  -0.15785  -0.15366  -0.14511  -0.14079
 Alpha  occ. eigenvalues --   -0.13013  -0.12279  -0.11801  -0.10969  -0.10620
 Alpha  occ. eigenvalues --   -0.03946  -0.03166  -0.02231  -0.00278  -0.00033
 Alpha  occ. eigenvalues --    0.09402
 Alpha virt. eigenvalues --    0.10218   0.12196   0.12851   0.13440   0.14149
 Alpha virt. eigenvalues --    0.14722   0.15257   0.15541   0.15967   0.16049
 Alpha virt. eigenvalues --    0.16641   0.17314   0.17725   0.18265   0.18352

  Beta  occ. eigenvalues --  -18.91952 -18.84125 -18.83082 -10.02812 -10.01412
  Beta  occ. eigenvalues --  -10.01206 -10.01187 -10.00922  -9.99991  -9.99891
  Beta  occ. eigenvalues --   -9.99201  -9.99193  -9.98863  -9.98164  -9.96857
  Beta  occ. eigenvalues --   -9.96787  -9.96369  -9.95985  -9.95833  -9.95732
  Beta  occ. eigenvalues --   -9.95015  -9.94705  -9.93826  -0.83394  -0.75007
  Beta  occ. eigenvalues --   -0.74308  -0.66836  -0.64152  -0.63801  -0.59823
  Beta  occ. eigenvalues --   -0.58085  -0.54798  -0.53929  -0.53504  -0.51817
  Beta  occ. eigenvalues --   -0.50681  -0.46700  -0.44467  -0.42231  -0.41332
  Beta  occ. eigenvalues --   -0.39656  -0.38449  -0.36963  -0.34674  -0.32739
  Beta  occ. eigenvalues --   -0.31698  -0.30206  -0.29446  -0.28586  -0.27878
  Beta  occ. eigenvalues --   -0.27712  -0.26118  -0.25479  -0.24431  -0.23988
  Beta  occ. eigenvalues --   -0.23505  -0.23385  -0.22709  -0.21759  -0.21273
  Beta  occ. eigenvalues --   -0.21155  -0.20051  -0.19200  -0.19037  -0.18576
  Beta  occ. eigenvalues --   -0.18035  -0.17562  -0.17404  -0.16939  -0.16565
  Beta  occ. eigenvalues --   -0.16148  -0.15785  -0.15366  -0.14511  -0.14079
  Beta  occ. eigenvalues --   -0.13013  -0.12279  -0.11801  -0.10969  -0.10620
  Beta  occ. eigenvalues --   -0.03946  -0.03166  -0.02231  -0.00278  -0.00033
  Beta  occ. eigenvalues --    0.09402
  Beta virt. eigenvalues --    0.10218   0.12196   0.12851   0.13440   0.14149
  Beta virt. eigenvalues --    0.14722   0.15257   0.15541   0.15967   0.16049
  Beta virt. eigenvalues --    0.16641   0.17314   0.17725   0.18265   0.18352

 Mulliken charges and spin densities:
               1          2
     1  C   -0.119816  -0.000000
     2  C   -0.262648   0.000000
     3  C   -0.447090  -0.000000
     4  C    0.763584   0.000000
     5  C   -0.084866  -0.000000
     6  C    0.047463   0.000000
     7  C   -1.435529   0.000000
     8  C   -0.811049   0.000000
     9  C    2.526494   0.000000
    10  C   -1.065948  -0.000000
    11  O   -0.537075  -0.000000
    12  O   -0.429837  -0.000000
    13  H    0.137535  -0.000000
    14  H    0.092643   0.000000
    15  H    0.089448  -0.000000
    16  H    0.144705  -0.000000
    17  O   -0.270246   0.000000
    18  H    0.252693  -0.000000
    19  C   -0.052409  -0.000000
    20  C   -1.058599  -0.000000
    21  C    1.474651  -0.000000
    22  C   -0.309667   0.000000
    23  C   -0.358075  -0.000000
    24  C    0.997849   0.000000
    25  C   -2.552484   0.000000
    26  C    0.898011  -0.000000
    27  C   -0.673505  -0.000000
    28  C    0.866561  -0.000000
    29  H    0.197398   0.000000
    30  H    0.202035   0.000000
    31  H    0.153214  -0.000000
    32  H    0.186712   0.000000
    33  H    0.119662  -0.000000
    34  H    0.092784   0.000000
    35  H    0.083277  -0.000000
    36  H    0.053119   0.000000
    37  H    0.270706  -0.000000
    38  H    0.061669  -0.000000
    39  H    0.218799  -0.000000
    40  H    0.036824   0.000000
    41  H   -0.136728   0.000000
    42  H   -0.857169   0.000000
    43  H   -0.054194   0.000000
    44  H    0.055747   0.000000
    45  H    0.138147   0.000000
    46  H    0.128070  -0.000000
    47  H   -0.096610   0.000000
    48  H   -0.116735   0.000000
    49  H   -0.559522   0.000000
 Sum of Mulliken charges =  -2.00000  -0.00000

 Dipole moment (field-independent basis, Debye):
    X=            -46.7958    Y=             -7.6431    Z=             20.8957  Tot=             51.8160
 Quadrupole moment (field-independent basis, Debye-Ang):
   XX=           -601.8107   YY=           -226.4843   ZZ=           -312.6333
   XY=             51.3117   XZ=            212.6291   YZ=            -49.0423

  Exact polarizability:2868.701-946.0861265.046-981.200 356.6321946.539
 Approx polarizability:****************7878.995********9921.906********

                      1                      2                      3
                      A                      A                      A
 Frequencies --     11.2167                21.3247                24.1335
 Red. masses --      4.4723                 2.9626                 4.7744
 Frc consts  --      0.0003                 0.0008                 0.0016
 IR Inten    --      0.4628                 0.5767                 0.6639

                      4                      5                      6
                      A                      A                      A
 Frequencies --     39.8955                44.9704                70.8873
 Red. masses --      3.6698                 3.1608                 3.6061
 Frc consts  --      0.0034                 0.0038                 0.0107
 IR Inten    --      2.4493                 2.0058                 5.2670

                      7                      8                      9
                      A                      A                      A
 Frequencies --     91.0336               102.5071               109.5428
 Red. masses --      3.4976                 3.5503                 1.8330
 Frc consts  --      0.0171                 0.0220                 0.0130
 IR Inten    --      1.3578                 0.3810                 1.0992

                     10                     11                     12
                      A                      A                      A
 Frequencies --    118.5643               141.4162               156.6701
 Red. masses --      3.9957                 2.0000                 5.0363
 Frc consts  --      0.0331                 0.0236                 0.0728
 IR Inten    --      0.3783                 1.3913                 1.0276

                     13                     14                     15
                      A                      A                      A
 Frequencies --    173.0778               181.7946               217.8007
 Red. masses --      3.6422                 6.9592                 1.0847
 Frc consts  --      0.0643                 0.1355                 0.0303
 IR Inten    --      1.8443                 3.0475                 2.4523

                     16                     17                     18
                      A                      A                      A
 Frequencies --    231.3489               240.4789               246.9686
 Red. masses --      1.4951                 2.1570                 1.6734
 Frc consts  --      0.0471                 0.0735                 0.0601
 IR Inten    --      1.4234                 0.7513                13.0250

                     19                     20                     21
                      A                      A                      A
 Frequencies --    252.0605               268.3566               288.7247
 Red. masses --      2.8950                 1.8079                 2.9232
 Frc consts  --      0.1084                 0.0767                 0.1436
 IR Inten    --      6.8721                 3.0796                 2.1624

                     22                     23                     24
                      A                      A                      A
 Frequencies --    325.9554               345.2272               368.3777
 Red. masses --      4.2952                 5.4634                 7.1113
 Frc consts  --      0.2689                 0.3836                 0.5686
 IR Inten    --      0.0162                19.2257                 0.2342

                     25                     26                     27
                      A                      A                      A
 Frequencies --    372.6987               381.2265               406.8778
 Red. masses --      4.1777                 2.2715                 4.1936
 Frc consts  --      0.3419                 0.1945                 0.4090
 IR Inten    --      2.5548                13.8237                22.0906

                     28                     29                     30
                      A                      A                      A
 Frequencies --    418.4825               425.9485               432.0148
 Red. masses --      1.9819                 2.7458                 8.5847
 Frc consts  --      0.2045                 0.2935                 0.9440
 IR Inten    --      4.8758                91.7229               157.5172

                     31                     32                     33
                      A                      A                      A
 Frequencies --    449.0859               468.9071               487.6886
 Red. masses --      3.3818                 3.7884                 3.0556
 Frc consts  --      0.4018                 0.4908                 0.4282
 IR Inten    --     55.0756               185.1213               177.7646

                     34                     35                     36
                      A                      A                      A
 Frequencies --    505.5083               531.0495               564.3118
 Red. masses --      3.9207                 4.9051                 5.0887
 Frc consts  --      0.5903                 0.8150                 0.9548
 IR Inten    --    250.8484                82.3826                 6.5195

                     37                     38                     39
                      A                      A                      A
 Frequencies --    642.3538               671.9136               694.0842
 Red. masses --      5.8152                 5.5497                 2.9875
 Frc consts  --      1.4137                 1.4762                 0.8480
 IR Inten    --      2.0866                 5.3504                19.0630

                     40                     41                     42
                      A                      A                      A
 Frequencies --    696.9138               704.4229               737.4120
 Red. masses --      2.4542                 4.2458                 1.1394
 Frc consts  --      0.7023                 1.2413                 0.3651
 IR Inten    --     36.1442                11.2840                 0.4008

                     43                     44                     45
                      A                      A                      A
 Frequencies --    742.6856               757.9152               769.9215
 Red. masses --      2.7963                 1.6730                 2.0479
 Frc consts  --      0.9087                 0.5662                 0.7153
 IR Inten    --     30.1047                 3.2149                24.7489

                     46                     47                     48
                      A                      A                      A
 Frequencies --    774.2454               797.9155               814.9477
 Red. masses --      1.4268                 2.2463                 1.4637
 Frc consts  --      0.5039                 0.8426                 0.5728
 IR Inten    --     33.1440                10.9263                 0.1652

                     49                     50                     51
                      A                      A                      A
 Frequencies --    835.7823               849.7839               878.7039
 Red. masses --      1.7218                 2.4177                 2.4332
 Frc consts  --      0.7086                 1.0287                 1.1069
 IR Inten    --     21.8456                 4.2424                34.2280

                     52                     53                     54
                      A                      A                      A
 Frequencies --    924.9219               930.2318               939.3888
 Red. masses --      1.3399                 1.8576                 1.5931
 Frc consts  --      0.6753                 0.9471                 0.8283
 IR Inten    --      6.7130                 5.2670                25.8492

                     55                     56                     57
                      A                      A                      A
 Frequencies --    943.4186               946.2598               957.0437
 Red. masses --      4.3864                 1.2591                 1.5160
 Frc consts  --      2.3002                 0.6643                 0.8181
 IR Inten    --     98.3022                 0.9604                53.1026

                     58                     59                     60
                      A                      A                      A
 Frequencies --    960.1850               961.1276               989.4908
 Red. masses --      1.7250                 1.3215                 1.9849
 Frc consts  --      0.9370                 0.7192                 1.1450
 IR Inten    --     32.7867                 0.9981                11.8523

                     61                     62                     63
                      A                      A                      A
 Frequencies --   1006.8355              1022.4415              1032.0638
 Red. masses --      2.8192                 2.1394                 3.1215
 Frc consts  --      1.6838                 1.3177                 1.9590
 IR Inten    --     29.2294               303.6634                21.5921

                     64                     65                     66
                      A                      A                      A
 Frequencies --   1045.3554              1053.0296              1066.1525
 Red. masses --      1.9249                 2.7128                 1.7532
 Frc consts  --      1.2394                 1.7724                 1.1741
 IR Inten    --     40.1535                56.1178                67.8416

                     67                     68                     69
                      A                      A                      A
 Frequencies --   1095.7774              1099.2236              1128.7547
 Red. masses --      2.6032                 2.1237                 1.9836
 Frc consts  --      1.8416                 1.5119                 1.4890
 IR Inten    --     59.0107                20.2686                57.4187

                     70                     71                     72
                      A                      A                      A
 Frequencies --   1136.6590              1147.4822              1173.1825
 Red. masses --      1.3204                 2.4119                 1.9060
 Frc consts  --      1.0051                 1.8711                 1.5456
 IR Inten    --    132.9689                 3.8280                45.9856

                     73                     74                     75
                      A                      A                      A
 Frequencies --   1183.6685              1187.7758              1192.1629
 Red. masses --      3.0037                 1.8344                 2.0097
 Frc consts  --      2.4795                 1.5248                 1.6829
 IR Inten    --    235.9058                29.9806               204.4245

                     76                     77                     78
                      A                      A                      A
 Frequencies --   1211.0522              1233.5479              1245.8799
 Red. masses --      1.7270                 1.7383                 1.8474
 Frc consts  --      1.4923                 1.5584                 1.6895
 IR Inten    --     45.5576                10.5786               141.3484

                     79                     80                     81
                      A                      A                      A
 Frequencies --   1258.8712              1283.7910              1285.8936
 Red. masses --      1.3363                 1.3804                 1.9940
 Frc consts  --      1.2477                 1.3404                 1.9426
 IR Inten    --     24.8990                29.2295                 6.3061

                     82                     83                     84
                      A                      A                      A
 Frequencies --   1303.9097              1324.6533              1326.3297
 Red. masses --      1.3066                 1.3185                 1.1643
 Frc consts  --      1.3088                 1.3631                 1.2067
 IR Inten    --     11.0133                49.1227               267.0179

                     85                     86                     87
                      A                      A                      A
 Frequencies --   1329.5758              1339.8097              1347.1115
 Red. masses --      1.1774                 5.4350                 1.3867
 Frc consts  --      1.2263                 5.7482                 1.4826
 IR Inten    --    163.5747               951.8477               167.5675

                     88                     89                     90
                      A                      A                      A
 Frequencies --   1358.3856              1364.1425              1367.0953
 Red. masses --      1.7525                 1.3575                 1.5241
 Frc consts  --      1.9053                 1.4883                 1.6782
 IR Inten    --    712.2526                43.1134                32.0060

                     91                     92                     93
                      A                      A                      A
 Frequencies --   1375.7139              1377.8885              1385.9272
 Red. masses --      1.4346                 1.3568                 1.3681
 Frc consts  --      1.5997                 1.5178                 1.5482
 IR Inten    --     28.3887                19.8033               663.9816

                     94                     95                     96
                      A                      A                      A
 Frequencies --   1392.0189              1402.2470              1411.7487
 Red. masses --      1.3667                 1.2746                 1.2598
 Frc consts  --      1.5603                 1.4767                 1.4793
 IR Inten    --    111.3217                 6.2350               441.1137

                     97                     98                     99
                      A                      A                      A
 Frequencies --   1426.1958              1440.6661              1447.6026
 Red. masses --      3.5769                 2.4121                 2.7100
 Frc consts  --      4.2867                 2.9497                 3.3459
 IR Inten    --   3235.0828              1262.0631                53.8845

                    100                    101                    102
                      A                      A                      A
 Frequencies --   1469.5087              1477.1668              1478.6920
 Red. masses --      1.4972                 1.0800                 1.0951
 Frc consts  --      1.9049                 1.3885                 1.4108
 IR Inten    --    729.2792                23.3302                47.5715

                    103                    104                    105
                      A                      A                      A
 Frequencies --   1480.3854              1488.2053              1490.6761
 Red. masses --      1.0432                 1.1038                 1.0717
 Frc consts  --      1.3469                 1.4403                 1.4030
 IR Inten    --    140.0111                53.3850                34.1471

                    106                    107                    108
                      A                      A                      A
 Frequencies --   1492.1983              1493.7968              1496.3102
 Red. masses --      2.8444                 1.0548                 1.1234
 Frc consts  --      3.7316                 1.3868                 1.4819
 IR Inten    --    983.6074               258.1584                35.9067

                    109                    110                    111
                      A                      A                      A
 Frequencies --   1502.8600              1505.3228              1508.8608
 Red. masses --      1.0647                 1.0709                 1.0899
 Frc consts  --      1.4168                 1.4297                 1.4620
 IR Inten    --     30.8086               100.4261                26.9982

                    112                    113                    114
                      A                      A                      A
 Frequencies --   1515.1426              1548.1631              1594.9998
 Red. masses --      4.0357                 4.2230                 5.0521
 Frc consts  --      5.4586                 5.9635                 7.5726
 IR Inten    --   1037.2230              1701.1124                31.7473

                    115                    116                    117
                      A                      A                      A
 Frequencies --   1607.7677              2966.3073              2977.1105
 Red. masses --      5.0641                 1.0799                 1.0736
 Frc consts  --      7.7126                 5.5986                 5.6064
 IR Inten    --   3605.5700                 4.2204                25.0594

                    118                    119                    120
                      A                      A                      A
 Frequencies --   2981.5499              2982.8504              2988.1288
 Red. masses --      1.0663                 1.0633                 1.0399
 Frc consts  --      5.5846                 5.5741                 5.4704
 IR Inten    --      0.8213                 7.6344                14.8219

                    121                    122                    123
                      A                      A                      A
 Frequencies --   2993.9723              2996.5261              2997.6061
 Red. masses --      1.0643                 1.0475                 1.0551
 Frc consts  --      5.6210                 5.5417                 5.5856
 IR Inten    --     12.4355                42.5018                10.8444

                    124                    125                    126
                      A                      A                      A
 Frequencies --   3005.8774              3010.2431              3013.9734
 Red. masses --      1.0446                 1.0595                 1.0956
 Frc consts  --      5.5607                 5.6565                 5.8638
 IR Inten    --     64.6377                99.0571                 6.4590

                    127                    128                    129
                      A                      A                      A
 Frequencies --   3020.8659              3044.8975              3047.3275
 Red. masses --      1.0947                 1.0953                 1.1009
 Frc consts  --      5.8856                 5.9830                 6.0231
 IR Inten    --      4.2516                 4.6795                15.2557

                    130                    131                    132
                      A                      A                      A
 Frequencies --   3051.3125              3053.4253              3056.6542
 Red. masses --      1.1002                 1.1007                 1.1005
 Frc consts  --      6.0354                 6.0463                 6.0581
 IR Inten    --      8.2771                12.3604                28.5948

                    133                    134                    135
                      A                      A                      A
 Frequencies --   3061.3894              3066.5671              3070.2328
 Red. masses --      1.0978                 1.1016                 1.0987
 Frc consts  --      6.0622                 6.1037                 6.1021
 IR Inten    --     23.2448                34.2653                17.3589

                    136                    137                    138
                      A                      A                      A
 Frequencies --   3090.9781              3105.8520              3129.0919
 Red. masses --      1.0962                 1.0833                 1.0902
 Frc consts  --      6.1708                 6.1569                 6.2893
 IR Inten    --     13.4380                69.0574               275.5572

                    139                    140                    141
                      A                      A                      A
 Frequencies --   3162.5445              3165.2912              3382.2493
 Red. masses --      1.0907                 1.0921                 1.0636
 Frc consts  --      6.4273                 6.4464                 7.1687
 IR Inten    --     47.2538               268.6119                41.3729

 - Thermochemistry -
 -------------------
 Temperature   298.150 Kelvin.  Pressure   1.00000 Atm.
 Atom     1 has atomic number  6 and mass  12.00000

 Molecular mass:   314.18819 amu.
 Principal axes and moments of inertia in atomic units:
                           1         2         3
     Eigenvalues --  3195.23775********************
           X            0.82472   0.48921   0.28374
           Y           -0.37795   0.10354   0.92002
           Z           -0.42070   0.86600  -0.27029
 This molecule is an asymmetric top.
 Rotational symmetry number  1.
 Warning -- assumption of classical behavior for rotation
           may cause significant error
 Rotational temperatures (Kelvin)      0.02711     0.00374     0.00345
 Rotational constants (GHZ):           0.56482     0.07786     0.07184
 Zero-point vibrational energy    1087529.3 (Joules/Mol)
                                  259.92575 (Kcal/Mol)
 Warning -- explicit consideration of  36 degrees of freedom as
           vibrations may cause significant error
 Vibrational temperatures:     16.14    30.68    34.72    57.40    64.70
          (Kelvin)            101.99   130.98   147.48   157.61   170.59
                              203.47   225.41   249.02   261.56   313.37
                              332.86   346.00   355.33   362.66   386.11
                              415.41   468.98   496.70   530.01   536.23
                              548.50   585.41   602.10   612.84   621.57
                              646.13   674.65   701.68   727.31   764.06
                              811.92   924.20   966.73   998.63  1002.70
                             1013.51  1060.97  1068.56  1090.47  1107.75
                             1113.97  1148.02  1172.53  1202.50  1222.65
                             1264.26  1330.76  1338.40  1351.57  1357.37
                             1361.46  1376.97  1381.49  1382.85  1423.66
                             1448.61  1471.07  1484.91  1504.03  1515.07
                             1533.96  1576.58  1581.54  1624.03  1635.40
                             1650.97  1687.95  1703.03  1708.94  1715.26
                             1742.43  1774.80  1792.54  1811.23  1847.09
                             1850.11  1876.04  1905.88  1908.29  1912.96
                             1927.69  1938.19  1954.41  1962.70  1966.95
                             1979.35  1982.47  1994.04  2002.80  2017.52
                             2031.19  2051.98  2072.80  2082.78  2114.30
                             2125.31  2127.51  2129.94  2141.20  2144.75
                             2146.94  2149.24  2152.86  2162.28  2165.82
                             2170.91  2179.95  2227.46  2294.85  2313.22
                             4267.85  4283.40  4289.79  4291.66  4299.25
                             4307.66  4311.33  4312.89  4324.79  4331.07
                             4336.44  4346.35  4380.93  4384.42  4390.16
                             4393.20  4397.84  4404.66  4412.11  4417.38
                             4447.23  4468.63  4502.07  4550.20  4554.15
                             4866.30

 Zero-point correction=                           0.414218 (Hartree/Particle)
 Thermal correction to Energy=                    0.437816
 Thermal correction to Enthalpy=                  0.438760
 Thermal correction to Gibbs Free Energy=         0.358268
 Sum of electronic and zero-point Energies=          -1003.350890
 Sum of electronic and thermal Energies=             -1003.327292
 Sum of electronic and thermal Enthalpies=           -1003.326347
 Sum of electronic and thermal Free Energies=        -1003.406840

                     E (Thermal)             CV                S
                      KCal/Mol        Cal/Mol-Kelvin    Cal/Mol-Kelvin
 Total                  274.734             89.847            169.410
 Electronic               0.000              0.000              0.000
 Translational            0.889              2.981             43.130
 Rotational               0.889              2.981             35.874
 Vibrational            272.956             83.886             90.406
 Vibration     1          0.593              1.987              7.783
 Vibration     2          0.593              1.985              6.507
 Vibration     3          0.593              1.985              6.261
 Vibration     4          0.594              1.981              5.264
 Vibration     5          0.595              1.979              5.027
 Vibration     6          0.598              1.968              4.129
 Vibration     7          0.602              1.956              3.638
 Vibration     8          0.605              1.947              3.406
 Vibration     9          0.606              1.942              3.277
 Vibration    10          0.609              1.934              3.124
 Vibration    11          0.615              1.912              2.785
 Vibration    12          0.620              1.895              2.590
 Vibration    13          0.627              1.876              2.402
 Vibration    14          0.630              1.865              2.310
 Vibration    15          0.646              1.814              1.977
 Vibration    16          0.653              1.793              1.868
 Vibration    17          0.658              1.778              1.799
 Vibration    18          0.661              1.768              1.752
 Vibration    19          0.664              1.759              1.716
 Vibration    20          0.673              1.731              1.607
 Vibration    21          0.685              1.695              1.481
 Vibration    22          0.710              1.624              1.280
 Vibration    23          0.724              1.585              1.188
 Vibration    24          0.741              1.537              1.087
 Vibration    25          0.744              1.528              1.069
 Vibration    26          0.751              1.510              1.034
 Vibration    27          0.772              1.455              0.938
 Vibration    28          0.781              1.430              0.897
 Vibration    29          0.788              1.414              0.872
 Vibration    30          0.793              1.400              0.852
 Vibration    31          0.808              1.363              0.799
 Vibration    32          0.826              1.319              0.741
 Vibration    33          0.844              1.277              0.690
 Vibration    34          0.861              1.238              0.644
 Vibration    35          0.886              1.181              0.585
 Vibration    36          0.920              1.108              0.515

 Optimization completed.
    -- Stationary point found.
 Normal termination of Gaussian 16 at Sun Jan 14 13:52:16 2024.
