 Gaussian 16, Revision A.03,
 Gaussian 16:  ES64L-G16RevA.03 25-Dec-2016

 ----------------------------------------------------------------
 #P UB3LYP/6-311++G(d,p) SCRF=(PCM,Solvent=n,n-DiMethylFormamide)
 ----------------------------------------------------------------

 -------
 Reduced
 -------
 Symbolic Z-matrix:
 Charge = -2 Multiplicity = 1

                         Standard orientation:
 ---------------------------------------------------------------------
 Center     Atomic      Atomic             Coordinates (Angstroms)
 Number     Number       Type             X           Y           Z
 ---------------------------------------------------------------------
      1          6           0       -2.698004   -1.020690    0.513385
      2          8           0       -1.678394   -1.143434   -0.468574
      3          6           0       -0.529889   -0.377104   -0.208671
      4          6           0        0.680328   -1.069324   -0.154208
      5          6           0        1.953905   -0.435929    0.026164
      6          8           0        3.078249   -1.083155    0.073837
      7          6           0        1.855080    0.990362    0.158459
      8          6           0        0.641803    1.677906    0.106083
      9          6           0       -0.633195    1.057574   -0.096240
     10          8           0       -1.749431    1.717749   -0.179991
     11          1           0       -2.987912    0.027596    0.630141
     12          1           0       -3.552522   -1.619743    0.173628
     13          1           0       -2.357027   -1.425725    1.482755
     14          1           0        0.657283   -2.152769   -0.256212
     15          1           0        2.786919    1.539290    0.302549
     16          1           0        0.629695    2.765305    0.195133
 ---------------------------------------------------------------------

 SCF Done:  E(UB3LYP) =  -496.381672850     A.U. after   16 cycles

 The electronic state is 1-A.
 Alpha  occ. eigenvalues --  -19.11086 -19.01043 -19.00937 -10.18891 -10.17278
 Alpha  occ. eigenvalues --  -10.16550 -10.16367 -10.11962 -10.11642 -10.11592
 Alpha  occ. eigenvalues --   -1.01831  -0.92141  -0.91818  -0.77229  -0.70471
 Alpha  occ. eigenvalues --   -0.65756  -0.63101  -0.55581  -0.52681  -0.45707
 Alpha  occ. eigenvalues --   -0.44391  -0.43189  -0.42020  -0.39941  -0.38080
 Alpha  occ. eigenvalues --   -0.35199  -0.34854  -0.33197  -0.32303  -0.31427
 Alpha  occ. eigenvalues --   -0.30497  -0.26245  -0.21916  -0.20173  -0.19100
 Alpha  occ. eigenvalues --   -0.18668  -0.11309
 Alpha virt. eigenvalues --    0.00451   0.01527   0.01960   0.02633   0.03458
 Alpha virt. eigenvalues --    0.04143   0.04550   0.05529   0.06412   0.06925
 Alpha virt. eigenvalues --    0.07797   0.08519   0.09309   0.09987   0.10483

  Beta  occ. eigenvalues --  -19.11086 -19.01043 -19.00937 -10.18891 -10.17278
  Beta  occ. eigenvalues --  -10.16550 -10.16367 -10.11962 -10.11642 -10.11592
  Beta  occ. eigenvalues --   -1.01831  -0.92141  -0.91818  -0.77229  -0.70471
  Beta  occ. eigenvalues --   -0.65756  -0.63101  -0.55581  -0.52681  -0.45707
  Beta  occ. eigenvalues --   -0.44391  -0.43189  -0.42020  -0.39941  -0.38080
  Beta  occ. eigenvalues --   -0.35199  -0.34854  -0.33197  -0.32303  -0.31427
  Beta  occ. eigenvalues --   -0.30497  -0.26245  -0.21916  -0.20173  -0.19100
  Beta  occ. eigenvalues --   -0.18668  -0.11309
  Beta virt. eigenvalues --    0.00451   0.01527   0.01960   0.02633   0.03458
  Beta virt. eigenvalues --    0.04143   0.04550   0.05529   0.06412   0.06925
  Beta virt. eigenvalues --    0.07797   0.08519   0.09309   0.09987   0.10483

 Mulliken charges and spin densities:
               1          2
     1  C   -0.264778  -0.000000
     2  O   -0.257649   0.000000
     3  C   -0.434782  -0.000000
     4  C    0.545512   0.000000
     5  C   -0.622760  -0.000000
     6  O   -0.747526   0.000000
     7  C    0.058548   0.000000
     8  C   -0.120025  -0.000000
     9  C   -0.234722   0.000000
    10  O   -0.738763   0.000000
    11  H    0.176982   0.000000
    12  H    0.127644  -0.000000
    13  H    0.108882   0.000000
    14  H    0.148139   0.000000
    15  H    0.124439   0.000000
    16  H    0.130859  -0.000000
 Sum of Mulliken charges =  -2.00000  -0.00000

 Dipole moment (field-independent basis, Debye):
    X=             -6.4820    Y=             -1.7707    Z=              1.7574  Tot=              6.9456
 Quadrupole moment (field-independent basis, Debye-Ang):
   XX=           -117.4296   YY=            -86.3372   ZZ=            -69.0548
   XY=             23.5725   XZ=             -5.1323   YZ=             -0.0488

 Normal termination of Gaussian 16 at Wed Jan 24 22:49:03 2024.
