 Q-Chem 5.4, Q-Chem, Inc., Pleasanton, CA (2021)
 Q-Chem 5.4.0 for Intel X86 EM64T Linux

User input:
--------------------------------------------------------------
$molecule
0 1
C                  1.2357000000      1.5553440000     -0.4861730000
C                 -0.0427700000      1.1750080000      0.1904650000
C                 -0.4497590000     -0.1131900000      0.1868510000
C                  0.3665610000     -1.1467770000     -0.5107930000
C                  1.6804850000     -0.7867660000     -1.1849930000
C                  2.0860580000      0.4975460000     -1.0979280000
O                  1.5686770000      2.7272280000     -0.5339300000
O                 -0.0156190000     -2.3033580000     -0.5339930000
S                  3.6447950000      1.0840820000     -1.8835780000
C                  4.4881540000      2.0895430000     -0.6460180000
C                  4.4477480000      3.4768740000     -0.7479120000
C                  5.2279000000      1.4447150000      0.3434010000
C                  5.9280870000      2.2163070000      1.2680860000
C                  5.1645270000      4.2356190000      0.1733220000
C                  5.8969060000      3.6078190000      1.1812080000
O                  3.2741750000      1.9302970000     -3.0187770000
O                  4.4852000000     -0.1020210000     -2.0885880000
H                  3.8638440000      3.9397380000     -1.5316480000
H                  5.2724750000      0.3632860000      0.3740930000
H                  5.1493130000      5.3170510000      0.1044520000
H                  6.5086200000      1.7306720000      2.0437720000
C                 -1.7029040000     -0.6417780000      0.8252810000
C                 -0.7697470000      2.3278890000      0.8204840000
H                  6.4497800000      4.2048030000      1.8977510000
H                 -2.2396020000      0.1207190000      1.3841210000
H                 -1.4622060000     -1.4679300000      1.4987680000
H                 -2.3710000000     -1.0561460000      0.0648730000
H                 -0.9180050000      3.1226870000      0.0857970000
H                 -0.1669640000      2.7651770000      1.6219390000
H                 -1.7354990000      2.0392920000      1.2275700000
C                  2.3784390000     -1.9282340000     -1.8652350000
H                  1.7269400000     -2.7990740000     -1.8650200000
H                  3.3087340000     -2.1730380000     -1.3481000000
H                  2.6608150000     -1.6690050000     -2.8852460000
$end
$rem
MAX_SCF_CYCLES=200
BASIS  =  6-311++G(d,p)
GUI  =  2
JOB_TYPE  =  SP
METHOD  =  B3LYP
SOLVENT_METHOD = COSMO
$end
$solvent
dielectric 37.219
opticaldielectric 1.43
$end

--------------------------------------------------------------

             Standard Nuclear Orientation (Angstroms)
    I     Atom           X                Y                Z
 ----------------------------------------------------------------
    1      C      -0.7750511904    -0.9335504973     0.5560947000
    2      C      -2.0674798331    -1.5993447523     0.2049163829
    3      C      -3.0895269375    -0.8678050298    -0.2904385859
    4      C      -2.9319291534     0.6040411306    -0.4642758618
    5      C      -1.6199881437     1.2978600603    -0.1356789691
    6      C      -0.6017315462     0.5208478247     0.2896827280
    7      O       0.1233196003    -1.5858606957     1.0599675515
    8      O      -3.8637032232     1.2650467743    -0.8875346757
    9      S       1.0381757116     1.2240289763     0.7448441179
   10      C       2.2754075680     0.1736531714    -0.0423845536
   11      C       2.9692022726    -0.7585448574     0.7233556625
   12      C       2.5606177321     0.3779520439    -1.3910484793
   13      C       3.5553547521    -0.3911796344    -1.9907093176
   14      C       3.9713519238    -1.5096033589     0.1152887281
   15      C       4.2590981273    -1.3309292872    -1.2380862115
   16      O       1.1738193572     1.1194568300     2.1983850523
   17      O       1.1330703954     2.5321917795     0.0854087003
   18      H       2.7199103840    -0.8858855483     1.7678971811
   19      H       2.0312574417     1.1379892713    -1.9518859848
   20      H       4.5259631897    -2.2353151201     0.6985712468
   21      H       3.7898878628    -0.2447185032    -3.0386081891
   22      C      -4.4378872130    -1.3970009320    -0.6894959679
   23      C      -2.0860051219    -3.0780910693     0.4647629582
   24      H       5.0382050397    -1.9218811517    -1.7063401382
   25      H      -4.4986558819    -2.4799888248    -0.6174337952
   26      H      -4.6706040435    -1.0987366822    -1.7146441073
   27      H      -5.2190456590    -0.9583815742    -0.0620583436
   28      H      -1.7906223025    -3.2799355409     1.4969727637
   29      H      -1.3487064057    -3.5841222767    -0.1654919721
   30      H      -3.0622972111    -3.5207864312     0.2843225565
   31      C      -1.6198599235     2.7848341836    -0.3399486437
   32      H      -2.6312512262     3.1169182342    -0.5627066177
   33      H      -0.9595362782     3.0593913155    -1.1654166675
   34      H      -1.2368052124     3.3054777308     0.5372957378
 ----------------------------------------------------------------

    9   -1279.2856423328      8.98e-06  Convergence criterion met
 Total energy in the final basis set =    -1279.2856423328
    5   -1279.3079586121      3.53e-06  Convergence criterion met
 Total energy in the final basis set =    -1279.3079586121

                    Orbital Energies (a.u.)
 --------------------------------------------------------------

 Alpha MOs
 -- Occupied --
-89.0726 -19.1503 -19.1454 -19.1394 -19.1353 -10.2970 -10.2950 -10.2463
-10.2418 -10.2229 -10.2198 -10.2180 -10.2022 -10.1998 -10.1938 -10.1920
-10.1914 -10.1762 -10.1747 -10.1742  -8.1362  -6.0990  -6.0981  -6.0972
 -1.1335  -1.0842  -1.0814  -1.0301  -0.8853  -0.8797  -0.8375  -0.7916
 -0.7706  -0.7571  -0.7504  -0.7168  -0.6772  -0.6681  -0.6297  -0.6238
 -0.5923  -0.5876  -0.5565  -0.5485  -0.5197  -0.4960  -0.4892  -0.4867
 -0.4748  -0.4734  -0.4665  -0.4605  -0.4448  -0.4427  -0.4403  -0.4315
 -0.4304  -0.4163  -0.4091  -0.4014  -0.3987  -0.3981  -0.3921  -0.3863
 -0.3811  -0.3670  -0.3616  -0.3509  -0.3339  -0.3208  -0.3134  -0.3036
 -0.2890  -0.2811  -0.2776  -0.2729

          Ground-State Mulliken Net Atomic Charges

     Atom                 Charge (a.u.)
  ----------------------------------------
      1 C                    -0.583555
      2 C                     0.193477
      3 C                     0.545569
      4 C                    -1.141346
      5 C                     0.881382
      6 C                     0.041979
      7 O                    -0.200669
      8 O                    -0.233023
      9 S                     0.543688
     10 C                     0.363784
     11 C                    -0.313838
     12 C                     0.107755
     13 C                    -0.521877
     14 C                    -0.399591
     15 C                    -0.341160
     16 O                    -0.160228
     17 O                    -0.169916
     18 H                     0.274186
     19 H                     0.256530
     20 H                     0.239323
     21 H                     0.238956
     22 C                    -0.482392
     23 C                    -0.584976
     24 H                     0.216721
     25 H                     0.143544
     26 H                     0.198344
     27 H                     0.204925
     28 H                     0.203916
     29 H                     0.207362
     30 H                     0.144839
     31 C                    -0.521659
     32 H                     0.192526
     33 H                     0.233749
     34 H                     0.221672
  ----------------------------------------
  Sum of atomic charges =     0.000000

                    Cartesian Multipole Moments
 -----------------------------------------------------------------
    Charge (ESU x 10^10)
                -0.0000
    Dipole Moment (Debye)
         X      -1.2773      Y      -5.7923      Z      -4.5376
       Tot       7.4680
    Quadrupole Moments (Debye-Ang)
        XX    -111.1851     XY      -1.0445     YY    -125.5587
        XZ     -12.2651     YZ      -1.8917     ZZ    -126.7379

 Total job time:  122.70s(wall), 760.81s(cpu)
        *  Thank you very much for using Q-Chem.  Have a nice day.  *
