 Q-Chem 5.4, Q-Chem, Inc., Pleasanton, CA (2021)
 Q-Chem 5.4.0 for Intel X86 EM64T Linux

User input:
--------------------------------------------------------------
$molecule
-1 2
C                  2.6217660000     -0.3381810000     -1.9374040000
C                  2.5914420000     -0.0052260000     -0.4255430000
C                  2.8030020000      1.5159080000     -0.2283570000
C                  3.7855610000     -0.7265930000      0.2302070000
C                  1.2403810000     -0.4344280000      0.1836440000
C                  1.1732240000     -1.3602500000      1.1962800000
C                 -0.0636040000     -1.7949390000      1.7995010000
O                 -0.0938910000     -2.6510180000      2.7323890000
C                 -1.2637010000     -1.1916460000      1.2718850000
C                 -1.2650920000     -0.2610060000      0.2614510000
C                  0.0058150000      0.1661120000     -0.3376370000
O                  0.0361450000      1.0250180000     -1.2735810000
C                 -2.5791800000      0.3529620000     -0.2647830000
C                 -2.7490750000      0.0327470000     -1.7701140000
C                 -3.8183030000     -0.1987520000      0.4676510000
C                 -2.5659080000      1.8880230000     -0.0625210000
H                  3.5812120000     -0.0319780000     -2.3738250000
H                  2.5090450000     -1.4164530000     -2.0923710000
H                  1.8137020000      0.1758030000     -2.4561970000
H                  1.9990670000      2.0762830000     -0.7037620000
H                  3.7623540000      1.8247580000     -0.6631330000
H                  2.8205030000      1.7629830000      0.8384260000
H                  3.7266230000     -1.8115980000      0.1042670000
H                  3.8538550000     -0.5134240000      1.3009290000
H                  4.7149260000     -0.3852510000     -0.2389100000
H                  2.0643560000     -1.8225460000      1.6038910000
H                 -2.1831290000     -1.5286680000      1.7356200000
H                 -3.6817750000      0.4709380000     -2.1480180000
H                 -2.7971380000     -1.0501840000     -1.9261600000
H                 -1.9110480000      0.4311950000     -2.3404440000
H                 -3.7895760000      0.0180630000      1.5394320000
H                 -4.7190000000      0.2694570000      0.0555580000
H                 -3.9178880000     -1.2810330000      0.3439200000
H                 -3.4990620000      2.3278610000     -0.4374040000
H                 -2.4815630000      2.1312750000      1.0019480000
H                 -1.7240500000      2.3337890000     -0.5906290000
$end
$rem
MAX_SCF_CYCLES=200
BASIS  =  6-311++G(d,p)
GUI  =  2
JOB_TYPE  =  SP
METHOD  =  B3LYP
SOLVENT_METHOD = PCM
$end
$pcm
theory = CPCM
$end
$solvent
dielectric 37.219
opticaldielectric 1.43
$end

--------------------------------------------------------------

             Standard Nuclear Orientation (Angstroms)
    I     Atom           X                Y                Z
 ----------------------------------------------------------------
    1      C       2.6217660000    -0.3381810000    -1.9374040000
    2      C       2.5914420000    -0.0052260000    -0.4255430000
    3      C       2.8030020000     1.5159080000    -0.2283570000
    4      C       3.7855610000    -0.7265930000     0.2302070000
    5      C       1.2403810000    -0.4344280000     0.1836440000
    6      C       1.1732240000    -1.3602500000     1.1962800000
    7      C      -0.0636040000    -1.7949390000     1.7995010000
    8      O      -0.0938910000    -2.6510180000     2.7323890000
    9      C      -1.2637010000    -1.1916460000     1.2718850000
   10      C      -1.2650920000    -0.2610060000     0.2614510000
   11      C       0.0058150000     0.1661120000    -0.3376370000
   12      O       0.0361450000     1.0250180000    -1.2735810000
   13      C      -2.5791800000     0.3529620000    -0.2647830000
   14      C      -2.7490750000     0.0327470000    -1.7701140000
   15      C      -3.8183030000    -0.1987520000     0.4676510000
   16      C      -2.5659080000     1.8880230000    -0.0625210000
   17      H       3.5812120000    -0.0319780000    -2.3738250000
   18      H       2.5090450000    -1.4164530000    -2.0923710000
   19      H       1.8137020000     0.1758030000    -2.4561970000
   20      H       1.9990670000     2.0762830000    -0.7037620000
   21      H       3.7623540000     1.8247580000    -0.6631330000
   22      H       2.8205030000     1.7629830000     0.8384260000
   23      H       3.7266230000    -1.8115980000     0.1042670000
   24      H       3.8538550000    -0.5134240000     1.3009290000
   25      H       4.7149260000    -0.3852510000    -0.2389100000
   26      H       2.0643560000    -1.8225460000     1.6038910000
   27      H      -2.1831290000    -1.5286680000     1.7356200000
   28      H      -3.6817750000     0.4709380000    -2.1480180000
   29      H      -2.7971380000    -1.0501840000    -1.9261600000
   30      H      -1.9110480000     0.4311950000    -2.3404440000
   31      H      -3.7895760000     0.0180630000     1.5394320000
   32      H      -4.7190000000     0.2694570000     0.0555580000
   33      H      -3.9178880000    -1.2810330000     0.3439200000
   34      H      -3.4990620000     2.3278610000    -0.4374040000
   35      H      -2.4815630000     2.1312750000     1.0019480000
   36      H      -1.7240500000     2.3337890000    -0.5906290000
 ----------------------------------------------------------------

    8    -696.3101737374      8.37e-06  Convergence criterion met
 Total energy in the final basis set =     -696.3101737374

                    Orbital Energies (a.u.)
 --------------------------------------------------------------

 Alpha MOs
 -- Occupied --
-19.0716 -19.0673 -10.2143 -10.2116 -10.1777 -10.1777 -10.1665 -10.1665
-10.1499 -10.1499 -10.1460 -10.1459 -10.1420 -10.1420 -10.1420 -10.1419
 -0.9929  -0.9903  -0.8302  -0.8150  -0.7800  -0.7213  -0.6787  -0.6746
 -0.6720  -0.6715  -0.6653  -0.6038  -0.5749  -0.5252  -0.5136  -0.4754
 -0.4649  -0.4467  -0.4456  -0.4295  -0.4261  -0.4229  -0.4115  -0.4103
 -0.4039  -0.3808  -0.3791  -0.3739  -0.3723  -0.3709  -0.3604  -0.3556
 -0.3535  -0.3435  -0.3301  -0.3230  -0.3227  -0.3199  -0.3169  -0.3116
 -0.2704  -0.2427  -0.2366  -0.2234  -0.1553

 Beta MOs
 -- Occupied --
-19.0653 -19.0606 -10.2125 -10.2100 -10.1778 -10.1778 -10.1653 -10.1653
-10.1490 -10.1490 -10.1460 -10.1459 -10.1419 -10.1419 -10.1419 -10.1419
 -0.9815  -0.9784  -0.8262  -0.8142  -0.7771  -0.7191  -0.6756  -0.6744
 -0.6717  -0.6713  -0.6578  -0.6006  -0.5719  -0.5224  -0.5124  -0.4736
 -0.4617  -0.4463  -0.4432  -0.4277  -0.4258  -0.4225  -0.4109  -0.3989
 -0.3978  -0.3788  -0.3717  -0.3710  -0.3697  -0.3640  -0.3564  -0.3546
 -0.3534  -0.3297  -0.3287  -0.3220  -0.3215  -0.3162  -0.3147  -0.3111
 -0.2400  -0.2354  -0.2309  -0.2178

          Ground-State Mulliken Net Atomic Charges

     Atom                 Charge (a.u.)    Spin (a.u.)
  --------------------------------------------------------
      1 C                    -0.712528       0.008037
      2 C                     0.765166      -0.027416
      3 C                    -0.711875       0.008120
      4 C                    -0.494784       0.001356
      5 C                     0.565862       0.087643
      6 C                    -0.340498       0.056692
      7 C                    -0.583422       0.128817
      8 O                    -0.543859       0.223911
      9 C                    -0.340733       0.056476
     10 C                     0.563428       0.087744
     11 C                    -0.750471       0.139923
     12 O                    -0.413492       0.252458
     13 C                     0.765765      -0.027075
     14 C                    -0.711881       0.008056
     15 C                    -0.496024       0.001350
     16 C                    -0.713197       0.007958
     17 H                     0.154844       0.000188
     18 H                     0.142837       0.000879
     19 H                     0.168552      -0.001200
     20 H                     0.168928      -0.001201
     21 H                     0.154942       0.000204
     22 H                     0.142316       0.000862
     23 H                     0.135889      -0.000394
     24 H                     0.136086      -0.000385
     25 H                     0.174836       0.000100
     26 H                     0.196972      -0.006097
     27 H                     0.197075      -0.006084
     28 H                     0.154834       0.000208
     29 H                     0.142494       0.000874
     30 H                     0.168800      -0.001199
     31 H                     0.135956      -0.000396
     32 H                     0.174931       0.000099
     33 H                     0.136140      -0.000385
     34 H                     0.155037       0.000202
     35 H                     0.142518       0.000879
     36 H                     0.168555      -0.001204
  --------------------------------------------------------
  Sum of atomic charges =    -1.000000

                    Cartesian Multipole Moments
 -----------------------------------------------------------------
    Charge (ESU x 10^10)
                -4.8032
    Dipole Moment (Debye)
         X       0.1741      Y       4.9094      Z      -4.5911
       Tot       6.7239
    Quadrupole Moments (Debye-Ang)
        XX    -103.0919     XY      -1.0129     YY    -128.8156
        XZ       0.7487     YZ      23.8627     ZZ    -131.5060

 Total job time:  89.47s(wall), 542.20s(cpu)
        *  Thank you very much for using Q-Chem.  Have a nice day.  *
