 Gaussian 16, Revision A.03,
 Gaussian 16:  ES64L-G16RevA.03 25-Dec-2016

 ----------------------------------------------------------------
 #P UB3LYP/6-311++G(d,p) SCRF=(PCM,Solvent=n,n-DiMethylFormamide)
 ----------------------------------------------------------------

 -------
 Reduced
 -------
 Symbolic Z-matrix:
 Charge = -2 Multiplicity = 1

                         Standard orientation:
 ---------------------------------------------------------------------
 Center     Atomic      Atomic             Coordinates (Angstroms)
 Number     Number       Type             X           Y           Z
 ---------------------------------------------------------------------
      1          6           0       -6.949256   -0.866798   -1.208150
      2          6           0       -7.443941   -2.084413   -0.783538
      3          6           0       -6.769338   -2.808757    0.229463
      4          6           0       -5.769271   -0.312747   -0.651216
      5          6           0       -5.081502   -1.049668    0.379130
      6          6           0       -5.612757   -2.286892    0.787823
      7          6           0       -5.267219    0.954645   -1.098923
      8          6           0       -4.070400    1.412627   -0.462931
      9          6           0       -3.382314    0.735306    0.537397
     10          6           0       -3.853536   -0.542707    1.005168
     11          8           0       -5.797635    1.707719   -2.010261
     12          8           0       -3.245962   -1.193893    1.916171
     13          8           0       -3.644329    2.632431   -0.934267
     14          1           0       -7.449446   -0.294938   -1.983091
     15          1           0       -8.351205   -2.488417   -1.227646
     16          1           0       -7.156176   -3.767905    0.564750
     17          1           0       -5.071966   -2.818663    1.564135
     18          1           0       -4.348914    2.813715   -1.603244
     19          6           0       -2.142037    1.318245    1.163708
     20          6           0       -0.836361    0.810080    0.514441
     21          6           0        0.450683    1.265688    1.246439
     22          6           0        1.694172    0.595393    0.684201
     23          6           0        2.167623    0.880022   -0.604996
     24          6           0        2.412144   -0.338679    1.441450
     25          6           0        3.316587    0.275353   -1.109959
     26          6           0        4.016762   -0.635887   -0.324761
     27          6           0        3.562714   -0.954845    0.949804
     28          1           0       -2.129006    1.026566    2.220823
     29          1           0       -2.186550    2.409262    1.100716
     30          1           0       -0.800080    1.138940   -0.531340
     31          1           0       -0.866435   -0.283033    0.508242
     32          1           0        0.356058    0.933445    2.287850
     33          6           0        0.608666    2.799228    1.264531
     34          1           0        1.626178    1.580914   -1.230688
     35          1           0        2.056891   -0.595876    2.434294
     36          1           0        4.105904   -1.681139    1.543919
     37          8           0        5.121627   -1.297216   -0.859996
     38          6           0        6.394961   -0.838691   -0.600431
     39          6           0        6.674258    0.322481    0.121644
     40          6           0        7.438145   -1.611093   -1.121056
     41          6           0        8.756290   -1.220242   -0.916502
     42          6           0        8.004130    0.700685    0.318345
     43          6           0        9.048883   -0.062166   -0.194475
     44          1           0        3.672527    0.496914   -2.109819
     45          1           0       -0.228901    3.267506    1.785108
     46          1           0        0.631184    3.207616    0.249209
     47          1           0        1.535091    3.094559    1.768203
     48          1           0        5.866157    0.921092    0.522750
     49          1           0        7.196069   -2.508866   -1.679730
     50          1           0        9.563854   -1.824811   -1.322476
     51          1           0        8.220253    1.605056    0.880820
     52          1           0       10.080406    0.238715   -0.035593
 ---------------------------------------------------------------------

 SCF Done:  E(UB3LYP) =  -1305.51562873     A.U. after   17 cycles

 The electronic state is 1-A.
 Alpha  occ. eigenvalues --  -19.16767 -19.10879 -19.02183 -19.01426 -10.24536
 Alpha  occ. eigenvalues --  -10.23633 -10.18241 -10.18208 -10.18184 -10.18017
 Alpha  occ. eigenvalues --  -10.18006 -10.17891 -10.17771 -10.17761 -10.17758
 Alpha  occ. eigenvalues --  -10.17406 -10.17200 -10.17180 -10.16871 -10.15710
 Alpha  occ. eigenvalues --  -10.15307 -10.15005 -10.14546 -10.14176 -10.14133
 Alpha  occ. eigenvalues --  -10.14067 -10.14021 -10.13163 -10.12773 -10.11973
 Alpha  occ. eigenvalues --   -1.08469  -1.02298  -0.93784  -0.92901  -0.87159
 Alpha  occ. eigenvalues --   -0.85846  -0.82092  -0.80609  -0.77233  -0.75916
 Alpha  occ. eigenvalues --   -0.75598  -0.75473  -0.73343  -0.71827  -0.71503
 Alpha  occ. eigenvalues --   -0.68414  -0.65087  -0.63428  -0.62303  -0.61817
 Alpha  occ. eigenvalues --   -0.61386  -0.58984  -0.57907  -0.56395  -0.55329
 Alpha  occ. eigenvalues --   -0.54925  -0.53159  -0.50814  -0.49964  -0.48989
 Alpha  occ. eigenvalues --   -0.48146  -0.47644  -0.46503  -0.45137  -0.45040
 Alpha  occ. eigenvalues --   -0.44720  -0.43646  -0.43116  -0.42785  -0.42294
 Alpha  occ. eigenvalues --   -0.42027  -0.41442  -0.41028  -0.40650  -0.39773
 Alpha  occ. eigenvalues --   -0.39531  -0.38865  -0.37808  -0.37171  -0.36973
 Alpha  occ. eigenvalues --   -0.36597  -0.35966  -0.35875  -0.35582  -0.34791
 Alpha  occ. eigenvalues --   -0.34639  -0.34396  -0.33686  -0.33336  -0.32857
 Alpha  occ. eigenvalues --   -0.32139  -0.31134  -0.30852  -0.30404  -0.29515
 Alpha  occ. eigenvalues --   -0.29443  -0.26699  -0.26187  -0.24577  -0.23590
 Alpha  occ. eigenvalues --   -0.22640  -0.22082  -0.21038  -0.19233  -0.18838
 Alpha  occ. eigenvalues --   -0.10234
 Alpha virt. eigenvalues --   -0.02828  -0.01560  -0.01429  -0.00804  -0.00499
 Alpha virt. eigenvalues --   -0.00170   0.00070   0.00622   0.00945   0.01299
 Alpha virt. eigenvalues --    0.01567   0.01955   0.02108   0.02394   0.02911

  Beta  occ. eigenvalues --  -19.16767 -19.10879 -19.02183 -19.01426 -10.24536
  Beta  occ. eigenvalues --  -10.23633 -10.18241 -10.18208 -10.18184 -10.18017
  Beta  occ. eigenvalues --  -10.18006 -10.17891 -10.17771 -10.17761 -10.17758
  Beta  occ. eigenvalues --  -10.17406 -10.17200 -10.17180 -10.16871 -10.15710
  Beta  occ. eigenvalues --  -10.15307 -10.15005 -10.14546 -10.14176 -10.14133
  Beta  occ. eigenvalues --  -10.14067 -10.14021 -10.13163 -10.12773 -10.11973
  Beta  occ. eigenvalues --   -1.08469  -1.02298  -0.93784  -0.92901  -0.87159
  Beta  occ. eigenvalues --   -0.85846  -0.82092  -0.80609  -0.77233  -0.75916
  Beta  occ. eigenvalues --   -0.75598  -0.75473  -0.73343  -0.71827  -0.71503
  Beta  occ. eigenvalues --   -0.68414  -0.65087  -0.63428  -0.62303  -0.61817
  Beta  occ. eigenvalues --   -0.61386  -0.58984  -0.57907  -0.56395  -0.55329
  Beta  occ. eigenvalues --   -0.54925  -0.53159  -0.50814  -0.49964  -0.48989
  Beta  occ. eigenvalues --   -0.48146  -0.47644  -0.46503  -0.45137  -0.45040
  Beta  occ. eigenvalues --   -0.44720  -0.43646  -0.43116  -0.42785  -0.42294
  Beta  occ. eigenvalues --   -0.42027  -0.41442  -0.41028  -0.40650  -0.39773
  Beta  occ. eigenvalues --   -0.39531  -0.38865  -0.37808  -0.37171  -0.36973
  Beta  occ. eigenvalues --   -0.36597  -0.35966  -0.35875  -0.35582  -0.34791
  Beta  occ. eigenvalues --   -0.34639  -0.34396  -0.33686  -0.33336  -0.32857
  Beta  occ. eigenvalues --   -0.32139  -0.31134  -0.30852  -0.30404  -0.29515
  Beta  occ. eigenvalues --   -0.29443  -0.26699  -0.26187  -0.24577  -0.23590
  Beta  occ. eigenvalues --   -0.22640  -0.22082  -0.21038  -0.19233  -0.18838
  Beta  occ. eigenvalues --   -0.10234
  Beta virt. eigenvalues --   -0.02828  -0.01560  -0.01429  -0.00804  -0.00499
  Beta virt. eigenvalues --   -0.00170   0.00070   0.00622   0.00945   0.01299
  Beta virt. eigenvalues --    0.01567   0.01955   0.02108   0.02394   0.02911

 Mulliken charges and spin densities:
               1          2
     1  C   -0.073245   0.000000
     2  C   -0.424476  -0.000000
     3  C   -0.513639  -0.000000
     4  C    0.341845  -0.000000
     5  C    0.136379  -0.000000
     6  C    0.016683   0.000000
     7  C   -1.022181   0.000000
     8  C   -0.757621  -0.000000
     9  C    2.106372   0.000000
    10  C   -0.884616   0.000000
    11  O   -0.726369   0.000000
    12  O   -0.634000   0.000000
    13  O   -0.322014  -0.000000
    14  H    0.143075  -0.000000
    15  H    0.152110  -0.000000
    16  H    0.148564   0.000000
    17  H    0.141466  -0.000000
    18  H    0.271489   0.000000
    19  C   -0.217943  -0.000000
    20  C   -1.056345  -0.000000
    21  C    0.202421  -0.000000
    22  C    0.756104   0.000000
    23  C   -0.311629   0.000000
    24  C   -0.228523  -0.000000
    25  C   -0.032915   0.000000
    26  C   -0.374523  -0.000000
    27  C   -0.061405   0.000000
    28  H    0.158120  -0.000000
    29  H    0.241722   0.000000
    30  H    0.163720  -0.000000
    31  H    0.192588   0.000000
    32  H    0.197910   0.000000
    33  C   -0.743690   0.000000
    34  H    0.188849   0.000000
    35  H    0.179098  -0.000000
    36  H    0.209511   0.000000
    37  O   -0.058550  -0.000000
    38  C   -0.252556  -0.000000
    39  C    0.088338  -0.000000
    40  C   -0.241296   0.000000
    41  C   -0.209776   0.000000
    42  C   -0.161585   0.000000
    43  C   -0.326847   0.000000
    44  H    0.204671   0.000000
    45  H    0.139148  -0.000000
    46  H    0.162006   0.000000
    47  H    0.148127  -0.000000
    48  H    0.174625   0.000000
    49  H    0.186570   0.000000
    50  H    0.197581  -0.000000
    51  H    0.216355  -0.000000
    52  H    0.170299   0.000000
 Sum of Mulliken charges =  -2.00000  -0.00000

 Dipole moment (field-independent basis, Debye):
    X=             42.6546    Y=              0.2723    Z=              1.6588  Tot=             42.6877
 Quadrupole moment (field-independent basis, Debye-Ang):
   XX=           -413.6482   YY=           -210.5968   ZZ=           -210.7317
   XY=             11.7073   XZ=            -16.2690   YZ=             17.9480

 Normal termination of Gaussian 16 at Thu Jan 25 06:05:03 2024.
