 Q-Chem 5.4, Q-Chem, Inc., Pleasanton, CA (2021)
 Q-Chem 5.4.0 for Intel X86 EM64T Linux

User input:
--------------------------------------------------------------
$molecule
0 1
C                 -1.7712760000      1.8855580000     -5.1550450000
C                 -1.6914700000      0.5495270000     -5.5279930000
C                 -1.3239020000     -0.4211760000     -4.5914040000
C                 -1.4841630000      2.2671670000     -3.8396760000
C                 -1.1157870000      1.2916090000     -2.9022640000
C                 -1.0371510000     -0.0515360000     -3.2834240000
C                 -1.5834520000      3.7176400000     -3.4845960000
C                 -0.8060840000      1.6723660000     -1.5005640000
C                 -1.2741350000      4.1147700000     -2.0674480000
C                 -0.9046420000      3.1112370000     -1.1403490000
C                 -1.3351970000      5.4412080000     -1.6174700000
C                 -1.0441480000      5.8015280000     -0.2740200000
C                 -0.6775980000      4.7559190000      0.6003930000
C                 -0.6093420000      3.4474650000      0.1814010000
O                 -1.9068620000      4.5243280000     -4.3363300000
O                 -0.4818610000      0.8330970000     -0.6728080000
H                 -2.0540620000      2.6517120000     -5.8656750000
H                 -1.9151920000      0.2603960000     -6.5485810000
H                 -1.2625790000     -1.4628140000     -4.8854370000
H                 -0.7501270000     -0.7831980000     -2.5385330000
Br                -0.2584810000      5.1715860000      2.4251670000
H                 -0.3272370000      2.6548630000      0.8613730000
N                 -1.1396490000      7.0875860000      0.1537230000
Cl                -1.7718930000      6.7818300000     -2.6611390000
H                 -1.2790140000      7.8219500000     -0.5201150000
H                 -0.8005150000      7.3267720000      1.0708040000
$end

$rem
BASIS  =  6-311++G(d,p)
GUI  =  2
JOB_TYPE  =  SP
METHOD  =  B3LYP
SCF_CONVERGENCE  = 8
SOLVENT_METHOD = sm12
$end

$smx
solvent dimethylformamide
charges CM5
$end

--------------------------------------------------------------

             Standard Nuclear Orientation (Angstroms)
    I     Atom           X                Y                Z
 ----------------------------------------------------------------
    1      C      -1.7712760000     1.8855580000    -5.1550450000
    2      C      -1.6914700000     0.5495270000    -5.5279930000
    3      C      -1.3239020000    -0.4211760000    -4.5914040000
    4      C      -1.4841630000     2.2671670000    -3.8396760000
    5      C      -1.1157870000     1.2916090000    -2.9022640000
    6      C      -1.0371510000    -0.0515360000    -3.2834240000
    7      C      -1.5834520000     3.7176400000    -3.4845960000
    8      C      -0.8060840000     1.6723660000    -1.5005640000
    9      C      -1.2741350000     4.1147700000    -2.0674480000
   10      C      -0.9046420000     3.1112370000    -1.1403490000
   11      C      -1.3351970000     5.4412080000    -1.6174700000
   12      C      -1.0441480000     5.8015280000    -0.2740200000
   13      C      -0.6775980000     4.7559190000     0.6003930000
   14      C      -0.6093420000     3.4474650000     0.1814010000
   15      O      -1.9068620000     4.5243280000    -4.3363300000
   16      O      -0.4818610000     0.8330970000    -0.6728080000
   17      H      -2.0540620000     2.6517120000    -5.8656750000
   18      H      -1.9151920000     0.2603960000    -6.5485810000
   19      H      -1.2625790000    -1.4628140000    -4.8854370000
   20      H      -0.7501270000    -0.7831980000    -2.5385330000
   21      Br     -0.2584810000     5.1715860000     2.4251670000
   22      H      -0.3272370000     2.6548630000     0.8613730000
   23      N      -1.1396490000     7.0875860000     0.1537230000
   24      Cl     -1.7718930000     6.7818300000    -2.6611390000
   25      H      -1.2790140000     7.8219500000    -0.5201150000
   26      H      -0.8005150000     7.3267720000     1.0708040000
 ----------------------------------------------------------------

   15   -3777.4838526468      8.21e-09  Convergence criterion met
 Total energy in the final basis set =    -3777.5064390540

                    Orbital Energies (a.u.)
 --------------------------------------------------------------

 Alpha MOs
 -- Occupied --
********-101.5713 -62.5044 -56.3249 -56.3209 -56.3209 -19.1318 -19.1258
-14.3528 -10.2890 -10.2804 -10.2701 -10.2677 -10.2566 -10.2293 -10.2118
-10.2108 -10.2101 -10.2085 -10.1985 -10.1980 -10.1974 -10.1973  -9.4861
 -8.7131  -7.2508  -7.2411  -7.2401  -6.5446  -6.5315  -6.5314  -2.6555
 -2.6518  -2.6515  -2.6412  -2.6412  -1.0701  -1.0612  -0.9740  -0.9021
 -0.8888  -0.8767  -0.8352  -0.7977  -0.7788  -0.7661  -0.7600  -0.6909
 -0.6697  -0.6483  -0.6263  -0.5947  -0.5774  -0.5678  -0.5439  -0.5266
 -0.5010  -0.4890  -0.4815  -0.4660  -0.4652  -0.4592  -0.4544  -0.4512
 -0.4448  -0.4341  -0.4236  -0.4216  -0.3933  -0.3822  -0.3817  -0.3692
 -0.3688  -0.3451  -0.3429  -0.3265  -0.3151  -0.2855  -0.2848  -0.2785
 -0.2720  -0.2707  -0.2393

          Ground-State Mulliken Net Atomic Charges

     Atom                 Charge (a.u.)
  ----------------------------------------
      1 C                     0.232690
      2 C                     0.430371
      3 C                     0.417263
      4 C                    -0.401852
      5 C                    -0.483663
      6 C                     0.120239
      7 C                    -1.901821
      8 C                    -1.416565
      9 C                     0.539244
     10 C                    -0.178259
     11 C                     0.475502
     12 C                    -0.718567
     13 C                     0.990442
     14 C                     0.235151
     15 O                    -0.135937
     16 O                    -0.270711
     17 H                     0.191666
     18 H                     0.329029
     19 H                     0.326879
     20 H                     0.189175
     21 Br                   -0.078731
     22 H                     0.205095
     23 N                    -0.011197
     24 Cl                    0.309965
     25 H                     0.298045
     26 H                     0.306547
  ----------------------------------------
  Sum of atomic charges =     0.000000

                    Cartesian Multipole Moments
 -----------------------------------------------------------------
    Charge (ESU x 10^10)
                 0.0000
    Dipole Moment (Debye)
         X       0.1478      Y       1.2049      Z      -0.1116
       Tot       1.2191
    Quadrupole Moments (Debye-Ang)
        XX    -131.9495     XY       4.1204     YY    -100.5308
        XZ       0.5163     YZ      21.8955     ZZ    -118.6972

 Total job time:  595.54s(wall), 4628.57s(cpu)
        *  Thank you very much for using Q-Chem.  Have a nice day.  *
