 Q-Chem 5.4, Q-Chem, Inc., Pleasanton, CA (2021)
 Q-Chem 5.4.0 for Intel X86 EM64T Linux

User input:
--------------------------------------------------------------
$molecule
-1 2
C                 -3.2307640000      0.0618690000      1.0038740000
C                 -1.8858730000     -0.0063220000      0.3298250000
C                 -1.7712110000     -0.2279180000     -1.0289040000
C                 -0.5235900000     -0.3048890000     -1.7369480000
O                 -0.4563650000     -0.5088930000     -2.9799420000
C                  0.6853970000     -0.1288870000     -0.9114650000
C                  1.9592600000     -0.1866790000     -1.5087800000
C                  3.1091890000     -0.0247270000     -0.7560820000
C                  3.0125420000      0.2020910000      0.6312730000
C                  1.7698180000      0.2622610000      1.2365440000
C                  0.5865320000      0.0999190000      0.4879430000
C                 -0.7188090000      0.1701850000      1.1659750000
O                 -0.8105230000      0.3731730000      2.4090660000
H                 -4.0400410000     -0.0838530000      0.2827040000
H                 -3.3148930000     -0.6970490000      1.7895300000
H                 -3.3706530000      1.0266100000      1.5038530000
H                 -2.6654740000     -0.3573190000     -1.6344270000
H                  2.0007000000     -0.3625580000     -2.5780170000
H                  4.0845250000     -0.0720960000     -1.2321370000
H                  3.9139200000      0.3295230000      1.2242430000
H                  1.6663110000      0.4355570000      2.3018670000
$end
$rem
MAX_SCF_CYCLES=200
BASIS  =  6-311++G(d,p)
GUI  =  2
JOB_TYPE  =  SP
METHOD  =  B3LYP
SOLVENT_METHOD = COSMO
$end
$solvent
dielectric 37.219
opticaldielectric 1.43
$end

--------------------------------------------------------------

             Standard Nuclear Orientation (Angstroms)
    I     Atom           X                Y                Z
 ----------------------------------------------------------------
    1      C       3.4632745678    -0.3474556936     0.0000251084
    2      C       2.0013173487     0.0136605711    -0.0000158717
    3      C       1.5843619967     1.3306817898     0.0000169072
    4      C       0.2095538298     1.7474689087    -0.0000281046
    5      O      -0.1351780225     2.9608653229     0.0000652125
    6      C      -0.7831192565     0.6572172878    -0.0000423947
    7      C      -2.1586254152     0.9586055330    -0.0000590218
    8      C      -3.1100995773    -0.0462906558    -0.0000030654
    9      C      -2.7042692122    -1.3956766840     0.0000697633
   10      C      -1.3573192181    -1.7120025680     0.0000358964
   11      C      -0.3724196427    -0.7035894771    -0.0000301327
   12      C       1.0518932183    -1.0776385323    -0.0001219985
   13      O       1.4205090475    -2.2855347076     0.0000209163
   14      H       4.0898797155     0.5489908026    -0.0000098434
   15      H       3.7168222027    -0.9573755596     0.8740965721
   16      H       3.7168248705    -0.9574768916    -0.8739654588
   17      H       2.3197605933     2.1321167125     0.0000831806
   18      H      -2.4391976363     2.0060775775    -0.0001146227
   19      H      -4.1674640749     0.2029738971     0.0000007645
   20      H      -3.4494216141    -2.1862982938     0.0001198427
   21      H      -1.0171440929    -2.7415360453     0.0000180197
 ----------------------------------------------------------------

   10    -574.6607638142      6.67e-06  Convergence criterion met
 Total energy in the final basis set =     -574.6607638142
    5    -574.7462133666      5.68e-06  Convergence criterion met
 Total energy in the final basis set =     -574.7462133666

                    Orbital Energies (a.u.)
 --------------------------------------------------------------

 Alpha MOs
 -- Occupied --
-19.0792 -19.0789 -10.2232 -10.2209 -10.1733 -10.1728 -10.1727 -10.1721
-10.1715 -10.1694 -10.1691 -10.1582 -10.1550  -1.0033  -1.0009  -0.8577
 -0.8106  -0.7531  -0.7497  -0.6996  -0.6598  -0.6145  -0.5933  -0.5558
 -0.5084  -0.4960  -0.4664  -0.4476  -0.4280  -0.4252  -0.4199  -0.4176
 -0.3967  -0.3907  -0.3812  -0.3749  -0.3704  -0.3495  -0.3464  -0.3369
 -0.2747  -0.2573  -0.2485  -0.2473  -0.2400  -0.1546

 Beta MOs
 -- Occupied --
-19.0733 -19.0728 -10.2216 -10.2190 -10.1729 -10.1721 -10.1718 -10.1712
-10.1711 -10.1694 -10.1690 -10.1570 -10.1551  -0.9928  -0.9900  -0.8556
 -0.8056  -0.7511  -0.7480  -0.6955  -0.6529  -0.6125  -0.5906  -0.5530
 -0.5061  -0.4931  -0.4635  -0.4464  -0.4243  -0.4179  -0.4170  -0.4121
 -0.3888  -0.3884  -0.3796  -0.3690  -0.3522  -0.3447  -0.3379  -0.3356
 -0.2509  -0.2492  -0.2429  -0.2404  -0.2345

          Ground-State Mulliken Net Atomic Charges

     Atom                 Charge (a.u.)    Spin (a.u.)
  --------------------------------------------------------
      1 C                    -0.366937       0.002346
      2 C                     0.606649       0.095554
      3 C                    -0.411863       0.084233
      4 C                    -0.768229       0.100237
      5 O                    -0.535467       0.210041
      6 C                     0.694485       0.047762
      7 C                    -0.014876       0.021272
      8 C                    -0.428937       0.030365
      9 C                    -0.469350       0.018400
     10 C                     0.061553       0.039878
     11 C                     0.103641      -0.005992
     12 C                    -0.396378       0.135841
     13 O                    -0.511938       0.226050
     14 H                     0.160408      -0.000224
     15 H                     0.174574       0.005843
     16 H                     0.174468       0.005841
     17 H                     0.166012      -0.008834
     18 H                     0.174556      -0.002001
     19 H                     0.205395      -0.002385
     20 H                     0.199132      -0.001813
     21 H                     0.183102      -0.002412
  --------------------------------------------------------
  Sum of atomic charges =    -1.000000

                    Cartesian Multipole Moments
 -----------------------------------------------------------------
    Charge (ESU x 10^10)
                -4.8032
    Dipole Moment (Debye)
         X      -2.5042      Y      -2.0515      Z      -0.0017
       Tot       3.2372
    Quadrupole Moments (Debye-Ang)
        XX     -76.6128     XY      10.6707     YY    -115.4122
        XZ       0.0002     YZ      -0.0024     ZZ     -81.6298

 Total job time:  40.26s(wall), 308.20s(cpu)
        *  Thank you very much for using Q-Chem.  Have a nice day.  *
