 Gaussian 16, Revision A.03,
 Gaussian 16:  ES64L-G16RevA.03 25-Dec-2016

 --------------------------------------
 #P UB3LYP/6-311++G(d,p) nosym opt freq
 --------------------------------------

 -------
 Radical
 -------
 Symbolic Z-matrix:
 Charge = -1 Multiplicity = 2

 SCF Done:  E(UB3LYP) =  -1896.98606941     A.U. after   27 cycles
 SCF Done:  E(UB3LYP) =  -1897.03861103     A.U. after   19 cycles
 SCF Done:  E(UB3LYP) =  -1897.06867343     A.U. after   20 cycles
 SCF Done:  E(UB3LYP) =  -1897.07038663     A.U. after   17 cycles
 SCF Done:  E(UB3LYP) =  -1897.07108301     A.U. after   16 cycles
 SCF Done:  E(UB3LYP) =  -1897.07206682     A.U. after   17 cycles
 SCF Done:  E(UB3LYP) =  -1897.07249105     A.U. after   18 cycles
 SCF Done:  E(UB3LYP) =  -1897.07305212     A.U. after   17 cycles
 SCF Done:  E(UB3LYP) =  -1897.07315876     A.U. after   18 cycles
 SCF Done:  E(UB3LYP) =  -1897.07339857     A.U. after   16 cycles
 SCF Done:  E(UB3LYP) =  -1897.07327071     A.U. after   20 cycles
 SCF Done:  E(UB3LYP) =  -1897.07429362     A.U. after   17 cycles
 SCF Done:  E(UB3LYP) =  -1897.07440865     A.U. after   17 cycles
 SCF Done:  E(UB3LYP) =  -1897.07449785     A.U. after   17 cycles
 SCF Done:  E(UB3LYP) =  -1897.07467976     A.U. after   17 cycles
 SCF Done:  E(UB3LYP) =  -1897.07470724     A.U. after   15 cycles
 SCF Done:  E(UB3LYP) =  -1897.07471648     A.U. after   13 cycles
 SCF Done:  E(UB3LYP) =  -1897.07471812     A.U. after   13 cycles
 SCF Done:  E(UB3LYP) =  -1897.07471851     A.U. after   11 cycles
 Optimization completed.
    -- Stationary point found.
 Normal termination of Gaussian 16 at Fri Dec 22 03:25:25 2023.

 ----------------------------------------------------------------------
 #P Geom=AllCheck Guess=TCheck SCRF=Check GenChk UB3LYP/6-311++G(d,p) F
 req
 ----------------------------------------------------------------------

 Structure from the checkpoint file:  "219-rad.chk"
 -------
 Radical
 -------
 Charge = -1 Multiplicity = 2

                          Input orientation:
 ---------------------------------------------------------------------
 Center     Atomic      Atomic             Coordinates (Angstroms)
 Number     Number       Type             X           Y           Z
 ---------------------------------------------------------------------
      1          6           0        5.072353   -2.479804    0.272959
      2          6           0        5.810215   -1.522001   -0.384278
      3          6           0        5.123029   -0.496526   -1.073505
      4          6           0        3.659084   -2.458767    0.263070
      5          6           0        2.985015   -1.416802   -0.436105
      6          6           0        3.745096   -0.434521   -1.100958
      7          6           0        2.928154   -3.508626    0.975130
      8          6           0        1.464631   -3.421869    0.918651
      9          6           0        0.790531   -2.380003    0.219370
     10          6           0        1.521512   -1.330094   -0.492742
     11          6           0        0.704553   -4.403990    1.583701
     12          6           0       -0.622682   -2.358982    0.209393
     13          6           0       -1.360579   -3.316737    0.866760
     14          8           0        3.515037   -4.420893    1.597204
     15          8           0        0.934593   -0.417880   -1.114770
     16          1           0        5.555689   -3.280173    0.820243
     17          1           0       -2.442897   -3.305160    0.852209
     18          1           0        3.221354    0.359690   -1.617937
     19          1           0        1.228330   -5.198090    2.100829
     20          1           0       -1.106028   -1.558714   -0.338029
     21          6           0       -0.673394   -4.341949    1.556211
     22         16           0        6.067387    0.716765   -1.973661
     23          1           0        6.892535   -1.533673   -0.369867
     24         16           0       -1.617634   -5.555094    2.456881
     25          8           0       -0.762252   -6.707708    2.752843
     26          8           0       -2.925307   -5.754097    1.824374
     27          7           0       -1.983239   -4.726083    3.908817
     28          1           0       -1.224418   -4.844728    4.574856
     29          1           0       -2.843561   -5.119578    4.281431
     30          8           0        5.211827    1.869102   -2.270169
     31          8           0        7.374692    0.916330   -1.340552
     32          7           0        6.434211   -0.112350   -3.425007
     33          1           0        7.294142    0.281739   -3.797814
     34          1           0        5.675279    0.004357   -4.091217
 ---------------------------------------------------------------------

 SCF Done:  E(UB3LYP) =  -1897.07471851     A.U. after    2 cycles

 Alpha  occ. eigenvalues --  -88.98373 -88.98372 -19.03577 -19.03575 -19.03573
 Alpha  occ. eigenvalues --  -19.03572 -18.98146 -18.98145 -14.26642 -14.26640
 Alpha  occ. eigenvalues --  -10.13252 -10.13250 -10.12142 -10.12140 -10.09807
 Alpha  occ. eigenvalues --  -10.09807 -10.09761 -10.09760 -10.08911 -10.08909
 Alpha  occ. eigenvalues --  -10.08864 -10.08863 -10.08748 -10.08747  -8.04559
 Alpha  occ. eigenvalues --   -8.04557  -6.00867  -6.00865  -6.00798  -6.00797
 Alpha  occ. eigenvalues --   -6.00621  -6.00619  -1.03886  -1.03884  -0.92829
 Alpha  occ. eigenvalues --   -0.92825  -0.91104  -0.90832  -0.83266  -0.83265
 Alpha  occ. eigenvalues --   -0.78468  -0.77866  -0.71490  -0.68403  -0.67502
 Alpha  occ. eigenvalues --   -0.66903  -0.60860  -0.60059  -0.56152  -0.55174
 Alpha  occ. eigenvalues --   -0.51804  -0.50868  -0.47715  -0.47336  -0.45628
 Alpha  occ. eigenvalues --   -0.45054  -0.44817  -0.43692  -0.42187  -0.41335
 Alpha  occ. eigenvalues --   -0.39235  -0.38868  -0.38237  -0.37381  -0.36478
 Alpha  occ. eigenvalues --   -0.34766  -0.34657  -0.34106  -0.33310  -0.32522
 Alpha  occ. eigenvalues --   -0.32182  -0.30867  -0.29189  -0.28690  -0.28551
 Alpha  occ. eigenvalues --   -0.28175  -0.27804  -0.27581  -0.26247  -0.25524
 Alpha  occ. eigenvalues --   -0.25126  -0.24960  -0.23856  -0.23772  -0.22800
 Alpha  occ. eigenvalues --   -0.22722  -0.21415  -0.21264  -0.18060  -0.17796
 Alpha  occ. eigenvalues --   -0.17395  -0.16858  -0.15037  -0.14220  -0.05258
 Alpha virt. eigenvalues --    0.02337   0.04687   0.05524   0.05651   0.07045
 Alpha virt. eigenvalues --    0.08899   0.09047   0.09610   0.09930   0.10480
 Alpha virt. eigenvalues --    0.11201   0.11689   0.12377   0.12716   0.13236

  Beta  occ. eigenvalues --  -88.98373 -88.98372 -19.03575 -19.03571 -19.03568
  Beta  occ. eigenvalues --  -19.03565 -18.97535 -18.97534 -14.26638 -14.26637
  Beta  occ. eigenvalues --  -10.13157 -10.13155 -10.12095 -10.12093 -10.09836
  Beta  occ. eigenvalues --  -10.09836 -10.09675 -10.09675 -10.08823 -10.08822
  Beta  occ. eigenvalues --  -10.08788 -10.08787 -10.08724 -10.08723  -8.04559
  Beta  occ. eigenvalues --   -8.04557  -6.00864  -6.00863  -6.00798  -6.00796
  Beta  occ. eigenvalues --   -6.00622  -6.00621  -1.03875  -1.03874  -0.92821
  Beta  occ. eigenvalues --   -0.92817  -0.90082  -0.89777  -0.83255  -0.83253
  Beta  occ. eigenvalues --   -0.78231  -0.77751  -0.71087  -0.68216  -0.67381
  Beta  occ. eigenvalues --   -0.66689  -0.60736  -0.59595  -0.55791  -0.55007
  Beta  occ. eigenvalues --   -0.51651  -0.50819  -0.47562  -0.47263  -0.45562
  Beta  occ. eigenvalues --   -0.44889  -0.44778  -0.43616  -0.42137  -0.41282
  Beta  occ. eigenvalues --   -0.39041  -0.38786  -0.38055  -0.37339  -0.36433
  Beta  occ. eigenvalues --   -0.34741  -0.34620  -0.34030  -0.32226  -0.32202
  Beta  occ. eigenvalues --   -0.31943  -0.30306  -0.28893  -0.28522  -0.28124
  Beta  occ. eigenvalues --   -0.27727  -0.27531  -0.26301  -0.25466  -0.25390
  Beta  occ. eigenvalues --   -0.24912  -0.24864  -0.23817  -0.23734  -0.22746
  Beta  occ. eigenvalues --   -0.22693  -0.21345  -0.21035  -0.17567  -0.16578
  Beta  occ. eigenvalues --   -0.16132  -0.15612  -0.14468  -0.13649
  Beta virt. eigenvalues --    0.00591   0.03091   0.05459   0.05538   0.05951
  Beta virt. eigenvalues --    0.07247   0.08918   0.09050   0.09615   0.09943
  Beta virt. eigenvalues --    0.10965   0.11226   0.11701   0.12460   0.12720

 Mulliken charges and spin densities:
               1          2
     1  C   -0.070924   0.000537
     2  C   -0.369301   0.072902
     3  C   -0.227387   0.019628
     4  C    0.597542   0.079809
     5  C    0.160749   0.054683
     6  C   -0.026796  -0.004517
     7  C   -0.741975   0.047278
     8  C    0.160487   0.054620
     9  C    0.597618   0.079743
    10  C   -0.742069   0.047230
    11  C   -0.027268  -0.004462
    12  C   -0.071003   0.000513
    13  C   -0.369635   0.072891
    14  O   -0.326128   0.228103
    15  O   -0.326078   0.228000
    16  H    0.164737  -0.000539
    17  H    0.223356  -0.004708
    18  H    0.249098  -0.000236
    19  H    0.249097  -0.000241
    20  H    0.164744  -0.000538
    21  C   -0.226232   0.019574
    22  S    0.154395   0.006687
    23  H    0.223352  -0.004709
    24  S    0.154224   0.006669
    25  O   -0.196453   0.001932
    26  O   -0.274071  -0.002091
    27  N   -0.375161  -0.000307
    28  H    0.270686  -0.000119
    29  H    0.287776   0.001131
    30  O   -0.196304   0.001932
    31  O   -0.274131  -0.002094
    32  N   -0.375354  -0.000313
    33  H    0.287778   0.001133
    34  H    0.270632  -0.000120
 Sum of Mulliken charges =  -1.00000   1.00000

 Dipole moment (field-independent basis, Debye):
    X=            -10.6875    Y=             11.6176    Z=             -1.1604  Tot=             15.8284
 Quadrupole moment (field-independent basis, Debye-Ang):
   XX=           -230.3028   YY=           -252.7497   ZZ=           -146.1363
   XY=             -8.0430   XZ=             -7.6857   YZ=             21.1336

  Exact polarizability: 419.249  89.999 274.616 -74.354 -96.229 220.312
 Approx polarizability: 638.534  45.719 441.615 -32.802-140.266 331.515

                      1                      2                      3
                      A                      A                      A
 Frequencies --     22.1858                26.4220                31.2660
 Red. masses --      9.2705                 7.6365                 7.4188
 Frc consts  --      0.0027                 0.0031                 0.0043
 IR Inten    --      1.9928                 4.8150                 0.0025

                      4                      5                      6
                      A                      A                      A
 Frequencies --     67.5057                79.2960                80.6139
 Red. masses --      6.4830                 9.5446                 6.1113
 Frc consts  --      0.0174                 0.0354                 0.0234
 IR Inten    --      0.0001                 0.8552                 9.2279

                      7                      8                      9
                      A                      A                      A
 Frequencies --    119.2453               122.4456               139.6094
 Red. masses --      3.8552                 2.4088                 3.1029
 Frc consts  --      0.0323                 0.0213                 0.0356
 IR Inten    --      0.0046                42.5002                 0.0000

                     10                     11                     12
                      A                      A                      A
 Frequencies --    156.4403               175.8175               186.6770
 Red. masses --      2.9205                 2.2349                11.0304
 Frc consts  --      0.0421                 0.0407                 0.2265
 IR Inten    --     32.9114                 0.0001                 0.0000

                     13                     14                     15
                      A                      A                      A
 Frequencies --    191.0192               229.1990               239.7924
 Red. masses --      2.6169                 8.1868                 3.9962
 Frc consts  --      0.0563                 0.2534                 0.1354
 IR Inten    --     32.9416                 8.3566                 0.0000

                     16                     17                     18
                      A                      A                      A
 Frequencies --    263.8749               271.7024               326.0826
 Red. masses --     11.9539                10.8915                 3.5628
 Frc consts  --      0.4904                 0.4737                 0.2232
 IR Inten    --      1.7326                 0.0000                57.6478

                     19                     20                     21
                      A                      A                      A
 Frequencies --    334.1234               350.4927               353.8147
 Red. masses --      3.9790                 5.2525                 5.3580
 Frc consts  --      0.2617                 0.3802                 0.3952
 IR Inten    --      0.0007                 8.4532                 0.0015

                     22                     23                     24
                      A                      A                      A
 Frequencies --    399.4433               409.2587               422.3200
 Red. masses --     10.2176                 7.1755                 3.6187
 Frc consts  --      0.9605                 0.7081                 0.3803
 IR Inten    --     18.2748                 0.0000                 4.9544

                     25                     26                     27
                      A                      A                      A
 Frequencies --    430.4611               439.3368               444.0695
 Red. masses --      6.8178                 5.8131                 6.6701
 Frc consts  --      0.7443                 0.6611                 0.7750
 IR Inten    --      0.0000                24.9379                 0.0011

                     28                     29                     30
                      A                      A                      A
 Frequencies --    470.7263               472.9204               480.8993
 Red. masses --      3.4434                 8.0201                 8.9655
 Frc consts  --      0.4496                 1.0568                 1.2216
 IR Inten    --      0.0001                33.3839                 0.0001

                     31                     32                     33
                      A                      A                      A
 Frequencies --    503.5238               508.2275               544.1380
 Red. masses --      8.6746                 9.4700                 5.8843
 Frc consts  --      1.2958                 1.4412                 1.0265
 IR Inten    --      0.0000                 0.0001               431.9384

                     34                     35                     36
                      A                      A                      A
 Frequencies --    565.1261               589.8259               643.2553
 Red. masses --      5.7814                 6.5564                 4.7788
 Frc consts  --      1.0879                 1.3439                 1.1650
 IR Inten    --     43.8392                 0.0001                 0.0002

                     37                     38                     39
                      A                      A                      A
 Frequencies --    648.1232               669.2550               679.3946
 Red. masses --      7.3511                 6.0724                 4.5319
 Frc consts  --      1.8194                 1.6025                 1.2325
 IR Inten    --      7.4072               262.3256                 0.0193

                     40                     41                     42
                      A                      A                      A
 Frequencies --    684.0948               698.2024               720.6448
 Red. masses --      4.5674                 6.8393                 4.6953
 Frc consts  --      1.2594                 1.9644                 1.4367
 IR Inten    --    324.6878                 0.0000                26.7195

                     43                     44                     45
                      A                      A                      A
 Frequencies --    727.6758               732.0381               797.2636
 Red. masses --      5.6680                 4.7485                 2.2033
 Frc consts  --      1.7683                 1.4992                 0.8251
 IR Inten    --      0.0016                 1.6217                 0.0000

                     46                     47                     48
                      A                      A                      A
 Frequencies --    830.0874               832.0253               836.1337
 Red. masses --      2.0769                 1.9729                 2.2558
 Frc consts  --      0.8432                 0.8047                 0.9292
 IR Inten    --     56.1315                61.0724                 0.0008

                     49                     50                     51
                      A                      A                      A
 Frequencies --    853.3323               861.2639               957.1171
 Red. masses --      1.7804                 2.5288                 1.8637
 Frc consts  --      0.7639                 1.1052                 1.0059
 IR Inten    --      0.1006               300.1038                23.0335

                     52                     53                     54
                      A                      A                      A
 Frequencies --    958.3048               963.0443               968.6309
 Red. masses --      1.4132                 2.5753                 6.1713
 Frc consts  --      0.7647                 1.4072                 3.4115
 IR Inten    --      0.0001                28.3784                 0.0002

                     55                     56                     57
                      A                      A                      A
 Frequencies --    991.9445               994.6941              1061.2111
 Red. masses --      1.3082                 1.3368                 2.3721
 Frc consts  --      0.7584                 0.7793                 1.5740
 IR Inten    --      0.0000                 4.9647               105.7413

                     58                     59                     60
                      A                      A                      A
 Frequencies --   1062.5383              1081.4415              1088.2828
 Red. masses --      2.8269                 3.0120                 1.8562
 Frc consts  --      1.8804                 2.0754                 1.2953
 IR Inten    --      0.0215               537.2588                 0.0205

                     61                     62                     63
                      A                      A                      A
 Frequencies --   1106.2683              1118.2320              1134.0085
 Red. masses --      1.6620                 2.1016                 2.2346
 Frc consts  --      1.1984                 1.5484                 1.6931
 IR Inten    --    447.5062                 0.0001               147.4380

                     64                     65                     66
                      A                      A                      A
 Frequencies --   1137.6382              1166.9383              1185.3773
 Red. masses --      1.6937                 4.2956                 4.8172
 Frc consts  --      1.2915                 3.4464                 3.9880
 IR Inten    --      0.0050               216.1003                 0.0001

                     67                     68                     69
                      A                      A                      A
 Frequencies --   1213.3903              1220.6562              1253.1816
 Red. masses --      2.5037                 1.6150                 1.6984
 Frc consts  --      2.1719                 1.4178                 1.5715
 IR Inten    --     89.4935                 0.0007               147.1335

                     70                     71                     72
                      A                      A                      A
 Frequencies --   1285.6555              1286.9474              1306.5226
 Red. masses --      9.6260                 8.2022                 2.0363
 Frc consts  --      9.3745                 8.0039                 2.0479
 IR Inten    --      0.1725               304.9812                 0.0000

                     73                     74                     75
                      A                      A                      A
 Frequencies --   1365.9822              1369.3487              1385.4079
 Red. masses --     11.2252                10.7495                 3.6744
 Frc consts  --     12.3406                11.8760                 4.1552
 IR Inten    --    111.7750                 0.0005               160.0254

                     76                     77                     78
                      A                      A                      A
 Frequencies --   1454.3166              1460.8649              1484.4856
 Red. masses --      5.0933                 2.4007                 2.7346
 Frc consts  --      6.3470                 3.0186                 3.5505
 IR Inten    --      0.0001               103.7172                 0.0000

                     79                     80                     81
                      A                      A                      A
 Frequencies --   1513.6244              1541.2787              1547.8617
 Red. masses --      6.4140                 9.1776                 6.6326
 Frc consts  --      8.6579                12.8452                 9.3626
 IR Inten    --    550.0885                 0.0066               179.0272

                     82                     83                     84
                      A                      A                      A
 Frequencies --   1583.8658              1584.5332              1603.6102
 Red. masses --      1.1182                 1.0995                 5.8873
 Frc consts  --      1.6527                 1.6264                 8.9200
 IR Inten    --      0.1961                52.1612                 0.0007

                     85                     86                     87
                      A                      A                      A
 Frequencies --   1622.3150              1624.3522              3186.1963
 Red. masses --      9.0353                 7.6705                 1.0870
 Frc consts  --     14.0109                11.9244                 6.5014
 IR Inten    --      0.0758               102.4630                 7.2033

                     88                     89                     90
                      A                      A                      A
 Frequencies --   3186.3639              3202.2113              3202.2779
 Red. masses --      1.0870                 1.0944                 1.0942
 Frc consts  --      6.5026                 6.6119                 6.6108
 IR Inten    --      0.0078                 6.2567                 0.0156

                     91                     92                     93
                      A                      A                      A
 Frequencies --   3204.7416              3204.8942              3485.6169
 Red. masses --      1.0903                 1.0906                 1.0466
 Frc consts  --      6.5978                 6.5997                 7.4918
 IR Inten    --      9.5730                 0.4079                17.9436

                     94                     95                     96
                      A                      A                      A
 Frequencies --   3485.9128              3589.8967              3590.2839
 Red. masses --      1.0466                 1.0969                 1.0969
 Frc consts  --      7.4930                 8.3290                 8.3309
 IR Inten    --     16.6104                18.3694                18.1997

 - Thermochemistry -
 -------------------
 Temperature   298.150 Kelvin.  Pressure   1.00000 Atm.
 Atom     1 has atomic number  6 and mass  12.00000

 Molecular mass:   365.99803 amu.
 Principal axes and moments of inertia in atomic units:
                           1         2         3
     Eigenvalues --  2605.25339********************
           X            0.72798   0.68531   0.01972
           Y            0.54965  -0.60059   0.58067
           Z           -0.40978   0.41188   0.81390
 This molecule is an asymmetric top.
 Rotational symmetry number  1.
 Warning -- assumption of classical behavior for rotation
           may cause significant error
 Rotational temperatures (Kelvin)      0.03325     0.00381     0.00353
 Rotational constants (GHZ):           0.69273     0.07939     0.07350
 Zero-point vibrational energy     602217.8 (Joules/Mol)
                                  143.93352 (Kcal/Mol)
 Warning -- explicit consideration of  35 degrees of freedom as
           vibrations may cause significant error
 Vibrational temperatures:     31.92    38.02    44.98    97.13   114.09
          (Kelvin)            115.99   171.57   176.17   200.87   225.08
                              252.96   268.59   274.83   329.77   345.01
                              379.66   390.92   469.16   480.73   504.28
                              509.06   574.71   588.83   607.62   619.34
                              632.11   638.92   677.27   680.43   691.91
                              724.46   731.23   782.89   813.09   848.63
                              925.50   932.50   962.91   977.50   984.26
                             1004.56  1036.85  1046.96  1053.24  1147.08
                             1194.31  1197.10  1203.01  1227.75  1239.17
                             1377.08  1378.79  1385.61  1393.64  1427.19
                             1431.14  1526.85  1528.76  1555.95  1565.80
                             1591.67  1608.89  1631.59  1636.81  1678.96
                             1705.49  1745.80  1756.25  1803.05  1849.77
                             1851.63  1879.79  1965.34  1970.19  1993.29
                             2092.44  2101.86  2135.84  2177.77  2217.56
                             2227.03  2278.83  2279.79  2307.24  2334.15
                             2337.08  4584.23  4584.47  4607.27  4607.36
                             4610.91  4611.13  5015.03  5015.45  5165.06
                             5165.62

 Zero-point correction=                           0.229373 (Hartree/Particle)
 Thermal correction to Energy=                    0.250614
 Thermal correction to Enthalpy=                  0.251558
 Thermal correction to Gibbs Free Energy=         0.177023
 Sum of electronic and zero-point Energies=          -1896.845346
 Sum of electronic and thermal Energies=             -1896.824105
 Sum of electronic and thermal Enthalpies=           -1896.823161
 Sum of electronic and thermal Free Energies=        -1896.897696

                     E (Thermal)             CV                S
                      KCal/Mol        Cal/Mol-Kelvin    Cal/Mol-Kelvin
 Total                  157.262             81.147            156.872
 Electronic               0.000              0.000              1.377
 Translational            0.889              2.981             43.585
 Rotational               0.889              2.981             35.629
 Vibrational            155.485             75.186             76.280
 Vibration     1          0.593              1.985              6.428
 Vibration     2          0.593              1.985              6.081
 Vibration     3          0.594              1.983              5.747
 Vibration     4          0.598              1.970              4.225
 Vibration     5          0.600              1.963              3.908
 Vibration     6          0.600              1.962              3.876
 Vibration     7          0.609              1.933              3.113
 Vibration     8          0.610              1.930              3.061
 Vibration     9          0.615              1.914              2.809
 Vibration    10          0.620              1.895              2.592
 Vibration    11          0.628              1.872              2.372
 Vibration    12          0.632              1.858              2.261
 Vibration    13          0.634              1.852              2.218
 Vibration    14          0.652              1.796              1.885
 Vibration    15          0.657              1.780              1.804
 Vibration    16          0.670              1.739              1.636
 Vibration    17          0.675              1.725              1.585
 Vibration    18          0.710              1.623              1.279
 Vibration    19          0.716              1.607              1.240
 Vibration    20          0.727              1.574              1.164
 Vibration    21          0.730              1.567              1.149
 Vibration    22          0.765              1.471              0.965
 Vibration    23          0.774              1.450              0.929
 Vibration    24          0.785              1.422              0.884
 Vibration    25          0.792              1.404              0.857
 Vibration    26          0.799              1.384              0.829
 Vibration    27          0.804              1.374              0.814
 Vibration    28          0.828              1.315              0.736
 Vibration    29          0.830              1.310              0.729
 Vibration    30          0.837              1.292              0.708
 Vibration    31          0.859              1.242              0.649
 Vibration    32          0.863              1.232              0.638
 Vibration    33          0.899              1.153              0.556
 Vibration    34          0.921              1.107              0.514
 Vibration    35          0.947              1.053              0.467

                           ! Non-Optimized Parameters !
 Normal termination of Gaussian 16 at Fri Dec 22 07:00:33 2023.
