 Gaussian 16, Revision A.03,
 Gaussian 16:  ES64L-G16RevA.03 25-Dec-2016

 ----------------------------------------------------------------
 #P UB3LYP/6-311++G(d,p) SCRF=(PCM,Solvent=n,n-DiMethylFormamide)
 ----------------------------------------------------------------

 ------------------
 Radical PCM in DMF
 ------------------
 Symbolic Z-matrix:
 Charge = -1 Multiplicity = 2

                         Standard orientation:
 ---------------------------------------------------------------------
 Center     Atomic      Atomic             Coordinates (Angstroms)
 Number     Number       Type             X           Y           Z
 ---------------------------------------------------------------------
      1          6           0       -4.754686   -1.431427    0.000608
      2          8           0       -4.394682   -0.062952    0.000057
      3          6           0       -3.047393    0.241116   -0.000089
      4          6           0       -2.745418    1.623456   -0.000224
      5          6           0       -1.430789    2.031041   -0.000221
      6          6           0       -0.365826    1.102135   -0.000155
      7          6           0        1.013711    1.589163    0.000014
      8          8           0        1.288543    2.814230    0.000099
      9          6           0        2.056800    0.559060    0.000060
     10          6           0        3.412634    0.951472    0.000222
     11          6           0        4.429856    0.017408    0.000265
     12          6           0        4.117526   -1.360521    0.000150
     13          6           0        2.799120   -1.768950   -0.000035
     14          6           0        1.740610   -0.831999   -0.000063
     15          6           0        0.360159   -1.313284   -0.000253
     16          8           0        0.078085   -2.541591   -0.000444
     17          6           0       -0.678284   -0.284720   -0.000159
     18          6           0       -2.034574   -0.694073   -0.000110
     19          1           0       -4.377276   -1.947910    0.891209
     20          1           0       -4.377775   -1.948489   -0.889875
     21          1           0       -5.845265   -1.457576    0.000873
     22          1           0       -3.563171    2.335729   -0.000337
     23          1           0       -1.173233    3.084005   -0.000227
     24          1           0        3.621173    2.015355    0.000307
     25          1           0        5.467128    0.339294    0.000384
     26          1           0        4.915880   -2.097137    0.000176
     27          1           0        2.531915   -2.819515   -0.000192
     28          1           0       -2.215613   -1.760515   -0.000081
 ---------------------------------------------------------------------

 SCF Done:  E(UB3LYP) =  -803.654027150     A.U. after   19 cycles

 The electronic state is 2-A.
 Alpha  occ. eigenvalues --  -19.15705 -19.07570 -19.07418 -10.23546 -10.22479
 Alpha  occ. eigenvalues --  -10.22073 -10.21854 -10.17532 -10.17421 -10.17288
 Alpha  occ. eigenvalues --  -10.17246 -10.17208 -10.17169 -10.17142 -10.16947
 Alpha  occ. eigenvalues --  -10.16902 -10.16896 -10.16714  -1.06840  -1.00282
 Alpha  occ. eigenvalues --   -0.99872  -0.86143  -0.85079  -0.78645  -0.75383
 Alpha  occ. eigenvalues --   -0.74941  -0.74638  -0.70079  -0.66628  -0.63237
 Alpha  occ. eigenvalues --   -0.61294  -0.58865  -0.55866  -0.54015  -0.53313
 Alpha  occ. eigenvalues --   -0.49319  -0.48435  -0.46924  -0.46758  -0.45828
 Alpha  occ. eigenvalues --   -0.43731  -0.42901  -0.42265  -0.42154  -0.41623
 Alpha  occ. eigenvalues --   -0.40966  -0.40023  -0.39134  -0.37986  -0.37602
 Alpha  occ. eigenvalues --   -0.35721  -0.35348  -0.35002  -0.33899  -0.33171
 Alpha  occ. eigenvalues --   -0.31371  -0.26472  -0.25768  -0.25522  -0.24629
 Alpha  occ. eigenvalues --   -0.23694  -0.23127  -0.14080
 Alpha virt. eigenvalues --   -0.05169  -0.01867  -0.00394  -0.00143   0.00338
 Alpha virt. eigenvalues --    0.01061   0.01888   0.02124   0.03433   0.03470
 Alpha virt. eigenvalues --    0.03763   0.04386   0.05001   0.05413   0.05598

  Beta  occ. eigenvalues --  -19.15696 -19.07062 -19.06837 -10.23510 -10.22319
  Beta  occ. eigenvalues --  -10.21865 -10.21853 -10.17446 -10.17429 -10.17251
  Beta  occ. eigenvalues --  -10.17210 -10.17139 -10.17108 -10.17052 -10.16954
  Beta  occ. eigenvalues --  -10.16880 -10.16844 -10.16680  -1.06814  -0.99381
  Beta  occ. eigenvalues --   -0.98840  -0.85883  -0.84965  -0.78282  -0.75153
  Beta  occ. eigenvalues --   -0.74765  -0.74489  -0.69972  -0.65875  -0.63082
  Beta  occ. eigenvalues --   -0.61056  -0.58805  -0.55641  -0.53868  -0.53138
  Beta  occ. eigenvalues --   -0.49139  -0.48333  -0.46861  -0.46522  -0.45692
  Beta  occ. eigenvalues --   -0.43677  -0.42804  -0.42214  -0.41322  -0.40891
  Beta  occ. eigenvalues --   -0.40571  -0.39837  -0.38949  -0.37317  -0.35668
  Beta  occ. eigenvalues --   -0.35645  -0.35237  -0.34278  -0.33818  -0.33036
  Beta  occ. eigenvalues --   -0.30554  -0.25489  -0.24638  -0.24507  -0.24130
  Beta  occ. eigenvalues --   -0.23187  -0.22518
  Beta virt. eigenvalues --   -0.08172  -0.04252  -0.00890  -0.00381   0.00137
  Beta virt. eigenvalues --    0.00337   0.01065   0.01898   0.02124   0.03480
  Beta virt. eigenvalues --    0.03498   0.03765   0.04398   0.05179   0.05430

 Mulliken charges and spin densities:
               1          2
     1  C   -0.344275  -0.000656
     2  O   -0.209571   0.002914
     3  C   -0.707724   0.012200
     4  C   -0.391964   0.029013
     5  C    0.155242   0.015155
     6  C    0.188325   0.025676
     7  C   -0.660996   0.085966
     8  O   -0.458879   0.188127
     9  C    0.078360   0.042104
    10  C    0.133971   0.016065
    11  C   -0.482984   0.052968
    12  C   -0.471698   0.024913
    13  C    0.075598   0.039250
    14  C    0.329244   0.019448
    15  C   -0.654926   0.126753
    16  O   -0.467680   0.217419
    17  C    0.633794   0.064205
    18  C    0.519806   0.053075
    19  H    0.165774   0.000742
    20  H    0.165779   0.000741
    21  H    0.189549  -0.000141
    22  H    0.205309  -0.002896
    23  H    0.173365  -0.000663
    24  H    0.163908  -0.000741
    25  H    0.179204  -0.003990
    26  H    0.181308  -0.002438
    27  H    0.162071  -0.002391
    28  H    0.150088  -0.002819
 Sum of Mulliken charges =  -1.00000   1.00000

 Dipole moment (field-independent basis, Debye):
    X=             -3.3713    Y=             -2.0019    Z=              0.0015  Tot=              3.9209
 Quadrupole moment (field-independent basis, Debye-Ang):
   XX=           -107.4342   YY=           -136.4057   ZZ=           -111.3587
   XY=             -1.0146   XZ=             -0.0033   YZ=             -0.0048

 Normal termination of Gaussian 16 at Sun Jan 14 01:13:03 2024.
