 Gaussian 16, Revision A.03,
 Gaussian 16:  ES64L-G16RevA.03 25-Dec-2016

 ----------------------------------------------------------------------
 #P UB3LYP/6-311++G(d,p) nosym opt freq SCRF=(PCM,Solvent=n,n-DiMethylF
 ormamide)
 ----------------------------------------------------------------------

 -------
 Reduced
 -------
 Symbolic Z-matrix:
 Charge = -2 Multiplicity = 1

 SCF Done:  E(UB3LYP) =  -2015.63310436     A.U. after   20 cycles
 SCF Done:  E(UB3LYP) =  -2015.63600910     A.U. after   15 cycles
 SCF Done:  E(UB3LYP) =  -2015.63738682     A.U. after   14 cycles
 SCF Done:  E(UB3LYP) =  -2015.63758381     A.U. after   14 cycles
 SCF Done:  E(UB3LYP) =  -2015.63756469     A.U. after   14 cycles
 SCF Done:  E(UB3LYP) =  -2015.63764636     A.U. after   13 cycles
 SCF Done:  E(UB3LYP) =  -2015.63767910     A.U. after   12 cycles
 SCF Done:  E(UB3LYP) =  -2015.63770292     A.U. after   12 cycles
 SCF Done:  E(UB3LYP) =  -2015.63772094     A.U. after   13 cycles
 SCF Done:  E(UB3LYP) =  -2015.63773504     A.U. after   14 cycles
 SCF Done:  E(UB3LYP) =  -2015.63774120     A.U. after   13 cycles
 SCF Done:  E(UB3LYP) =  -2015.63775057     A.U. after   12 cycles
 SCF Done:  E(UB3LYP) =  -2015.63775126     A.U. after   10 cycles
 SCF Done:  E(UB3LYP) =  -2015.63775180     A.U. after   11 cycles
 SCF Done:  E(UB3LYP) =  -2015.63775220     A.U. after   11 cycles
 Optimization completed.
    -- Stationary point found.
 Normal termination of Gaussian 16 at Sun Feb 11 02:58:42 2024.

 ----------------------------------------------------------------------
 #P Geom=AllCheck Guess=TCheck SCRF=Check GenChk UB3LYP/6-311++G(d,p) F
 req
 ----------------------------------------------------------------------

 Structure from the checkpoint file:  "217-an.chk"
 -------
 Reduced
 -------
 Charge = -2 Multiplicity = 1

                          Input orientation:
 ---------------------------------------------------------------------
 Center     Atomic      Atomic             Coordinates (Angstroms)
 Number     Number       Type             X           Y           Z
 ---------------------------------------------------------------------
      1          6           0        5.006942   -2.088021    0.553303
      2          6           0        5.761350   -1.409765   -0.384019
      3          6           0        5.148105   -0.732613   -1.480973
      4          6           0        3.603636   -2.123796    0.463805
      5          6           0        2.953661   -1.448303   -0.643910
      6          6           0        3.782876   -0.766623   -1.584760
      7          6           0        2.860241   -2.838411    1.483246
      8          6           0        1.422062   -2.826155    1.298368
      9          6           0        0.786016   -2.146728    0.184948
     10          6           0        1.528851   -1.440900   -0.820830
     11          6           0        0.616680   -3.500607    2.233613
     12          6           0       -0.638624   -2.191423    0.106126
     13          6           0       -1.411526   -2.845451    1.028407
     14          8           0        3.425938   -3.431182    2.463128
     15          8           0        0.954213   -0.839038   -1.816476
     16          1           0        5.479256   -2.601682    1.380753
     17         16           0        7.507396   -1.413500   -0.242354
     18          1           0       -2.491456   -2.854871    0.951242
     19          1           0        3.288556   -0.259016   -2.404251
     20          1           0        1.104605   -4.007583    3.056089
     21          1           0       -1.105492   -1.675155   -0.724058
     22          6           0       -0.759127   -3.508517    2.111220
     23         16           0       -1.718126   -4.382991    3.287675
     24          8           0       -0.925218   -4.738879    4.470028
     25          8           0       -3.013058   -3.725977    3.513220
     26          8           0       -2.018981   -5.769993    2.444325
     27          6           0       -2.948684   -6.709493    3.045201
     28          1           0       -2.575413   -7.051579    4.011725
     29          1           0       -2.994014   -7.543002    2.348061
     30          1           0       -3.933681   -6.253766    3.151217
     31          1           0        5.753279   -0.198749   -2.202820
     32          8           0        7.938409   -1.895960    1.074742
     33          8           0        8.084362   -0.150317   -0.722907
     34          8           0        7.886889   -2.572494   -1.354910
     35          6           0        9.294999   -2.741103   -1.666139
     36          1           0        9.852625   -3.027931   -0.773193
     37          1           0        9.700667   -1.825086   -2.096770
     38          1           0        9.325576   -3.545350   -2.397603
 ---------------------------------------------------------------------

 SCF Done:  E(UB3LYP) =  -2015.63775220     A.U. after    2 cycles

 Alpha  occ. eigenvalues --  -89.07950 -89.07947 -19.17099 -19.17099 -19.12802
 Alpha  occ. eigenvalues --  -19.12799 -19.12719 -19.12716 -19.04653 -19.02577
 Alpha  occ. eigenvalues --  -10.22818 -10.22817 -10.20593 -10.20121 -10.20118
 Alpha  occ. eigenvalues --  -10.18667 -10.18312 -10.18311 -10.17598 -10.17598
 Alpha  occ. eigenvalues --  -10.16498 -10.16497 -10.16142 -10.16140 -10.15815
 Alpha  occ. eigenvalues --  -10.15812  -8.14041  -8.14038  -6.10417  -6.10415
 Alpha  occ. eigenvalues --   -6.10259  -6.10257  -6.10069  -6.10067  -1.14601
 Alpha  occ. eigenvalues --   -1.14597  -1.03935  -1.03933  -1.01678  -1.01677
 Alpha  occ. eigenvalues --   -0.96715  -0.94113  -0.86039  -0.85748  -0.79548
 Alpha  occ. eigenvalues --   -0.77338  -0.75687  -0.74842  -0.73503  -0.72043
 Alpha  occ. eigenvalues --   -0.67570  -0.65314  -0.65061  -0.60771  -0.60198
 Alpha  occ. eigenvalues --   -0.58342  -0.56102  -0.55040  -0.54540  -0.52121
 Alpha  occ. eigenvalues --   -0.51844  -0.50167  -0.49185  -0.48685  -0.48334
 Alpha  occ. eigenvalues --   -0.46516  -0.45881  -0.45460  -0.45011  -0.44889
 Alpha  occ. eigenvalues --   -0.44832  -0.42837  -0.42507  -0.41470  -0.40651
 Alpha  occ. eigenvalues --   -0.40263  -0.40248  -0.40069  -0.39321  -0.37284
 Alpha  occ. eigenvalues --   -0.37145  -0.36419  -0.35060  -0.35057  -0.34712
 Alpha  occ. eigenvalues --   -0.34358  -0.34273  -0.34161  -0.34043  -0.32736
 Alpha  occ. eigenvalues --   -0.32712  -0.32250  -0.32243  -0.31615  -0.29817
 Alpha  occ. eigenvalues --   -0.29794  -0.26072  -0.24980  -0.24334  -0.24264
 Alpha  occ. eigenvalues --   -0.22272  -0.20683  -0.12781
 Alpha virt. eigenvalues --   -0.05526  -0.04530  -0.00523  -0.00195  -0.00026
 Alpha virt. eigenvalues --    0.00689   0.01368   0.01640   0.01822   0.02450
 Alpha virt. eigenvalues --    0.02701   0.03255   0.03260   0.03932   0.04086

  Beta  occ. eigenvalues --  -89.07950 -89.07947 -19.17099 -19.17099 -19.12802
  Beta  occ. eigenvalues --  -19.12799 -19.12719 -19.12716 -19.04653 -19.02577
  Beta  occ. eigenvalues --  -10.22818 -10.22817 -10.20593 -10.20121 -10.20118
  Beta  occ. eigenvalues --  -10.18667 -10.18312 -10.18311 -10.17598 -10.17598
  Beta  occ. eigenvalues --  -10.16498 -10.16497 -10.16142 -10.16140 -10.15815
  Beta  occ. eigenvalues --  -10.15812  -8.14041  -8.14038  -6.10417  -6.10415
  Beta  occ. eigenvalues --   -6.10259  -6.10257  -6.10069  -6.10067  -1.14601
  Beta  occ. eigenvalues --   -1.14597  -1.03935  -1.03933  -1.01678  -1.01677
  Beta  occ. eigenvalues --   -0.96715  -0.94113  -0.86039  -0.85748  -0.79548
  Beta  occ. eigenvalues --   -0.77338  -0.75687  -0.74842  -0.73503  -0.72043
  Beta  occ. eigenvalues --   -0.67570  -0.65314  -0.65061  -0.60771  -0.60198
  Beta  occ. eigenvalues --   -0.58342  -0.56102  -0.55040  -0.54540  -0.52121
  Beta  occ. eigenvalues --   -0.51844  -0.50167  -0.49185  -0.48685  -0.48334
  Beta  occ. eigenvalues --   -0.46516  -0.45881  -0.45460  -0.45011  -0.44889
  Beta  occ. eigenvalues --   -0.44832  -0.42837  -0.42507  -0.41470  -0.40651
  Beta  occ. eigenvalues --   -0.40263  -0.40248  -0.40069  -0.39321  -0.37284
  Beta  occ. eigenvalues --   -0.37145  -0.36419  -0.35060  -0.35057  -0.34712
  Beta  occ. eigenvalues --   -0.34358  -0.34273  -0.34161  -0.34043  -0.32736
  Beta  occ. eigenvalues --   -0.32712  -0.32250  -0.32243  -0.31615  -0.29817
  Beta  occ. eigenvalues --   -0.29794  -0.26072  -0.24980  -0.24334  -0.24264
  Beta  occ. eigenvalues --   -0.22272  -0.20683  -0.12781
  Beta virt. eigenvalues --   -0.05526  -0.04530  -0.00523  -0.00195  -0.00026
  Beta virt. eigenvalues --    0.00689   0.01368   0.01640   0.01822   0.02450
  Beta virt. eigenvalues --    0.02701   0.03255   0.03260   0.03932   0.04086

 Mulliken charges and spin densities:
               1          2
     1  C    0.163466   0.000000
     2  C   -0.949221  -0.000000
     3  C   -0.396908  -0.000000
     4  C    0.403719   0.000000
     5  C    0.467453   0.000000
     6  C   -0.208663   0.000000
     7  C   -0.934680  -0.000000
     8  C    0.390000   0.000000
     9  C    0.458699   0.000000
    10  C   -0.390374   0.000000
    11  C    0.163040  -0.000000
    12  C   -0.206679   0.000000
    13  C   -0.403029  -0.000000
    14  O   -0.542836   0.000000
    15  O   -0.649258  -0.000000
    16  H    0.215678  -0.000000
    17  S    0.413323   0.000000
    18  H    0.213942  -0.000000
    19  H    0.157930   0.000000
    20  H    0.215664   0.000000
    21  H    0.157788  -0.000000
    22  C   -0.936072   0.000000
    23  S    0.401882  -0.000000
    24  O   -0.224736  -0.000000
    25  O   -0.275288   0.000000
    26  O   -0.082915  -0.000000
    27  C   -0.154089   0.000000
    28  H    0.174632  -0.000000
    29  H    0.183748   0.000000
    30  H    0.171474   0.000000
    31  H    0.214023  -0.000000
    32  O   -0.222414  -0.000000
    33  O   -0.277639   0.000000
    34  O   -0.085040  -0.000000
    35  C   -0.157163  -0.000000
    36  H    0.175266  -0.000000
    37  H    0.171621   0.000000
    38  H    0.183656  -0.000000
 Sum of Mulliken charges =  -2.00000  -0.00000

 Dipole moment (field-independent basis, Debye):
    X=            -22.8827    Y=             18.2227    Z=             -9.9175  Tot=             30.8876
 Quadrupole moment (field-independent basis, Debye-Ang):
   XX=           -298.6689   YY=           -217.0864   ZZ=           -234.4451
   XY=             33.8492   XZ=            -24.4690   YZ=             47.3598

  Exact polarizability: 834.129 136.678 340.920-146.740-142.277 431.364
 Approx polarizability: 889.088 130.163 384.392-131.966-162.315 499.847

                      1                      2                      3
                      A                      A                      A
 Frequencies --     18.0005                23.3438                32.5566
 Red. masses --      5.6005                 6.6336                 6.3922
 Frc consts  --      0.0011                 0.0021                 0.0040
 IR Inten    --      5.4981                 3.0911                 6.3657

                      4                      5                      6
                      A                      A                      A
 Frequencies --     45.2801                55.7685                63.1931
 Red. masses --      5.2784                 3.5604                 3.0391
 Frc consts  --      0.0064                 0.0065                 0.0072
 IR Inten    --      3.5758                 3.6142                 1.4115

                      7                      8                      9
                      A                      A                      A
 Frequencies --     75.7716                83.2433               118.4685
 Red. masses --      6.6723                 5.7121                 3.3719
 Frc consts  --      0.0226                 0.0233                 0.0279
 IR Inten    --      9.4696                 5.2980                 0.6181

                     10                     11                     12
                      A                      A                      A
 Frequencies --    131.9272               132.5379               145.7323
 Red. masses --      3.9528                 2.9316                 1.4812
 Frc consts  --      0.0405                 0.0303                 0.0185
 IR Inten    --      2.7446                 9.0904                 2.9496

                     13                     14                     15
                      A                      A                      A
 Frequencies --    146.7633               163.1811               190.0720
 Red. masses --      1.5017                 7.7897                11.6922
 Frc consts  --      0.0191                 0.1222                 0.2489
 IR Inten    --      0.7349                10.6600                 3.2680

                     16                     17                     18
                      A                      A                      A
 Frequencies --    200.2435               223.9884               245.7036
 Red. masses --      5.2787                 8.9472                 5.0041
 Frc consts  --      0.1247                 0.2645                 0.1780
 IR Inten    --     17.7842                16.0667                19.0476

                     19                     20                     21
                      A                      A                      A
 Frequencies --    252.2687               261.6887               271.9880
 Red. masses --      9.3212                 5.8185                10.7762
 Frc consts  --      0.3495                 0.2348                 0.4697
 IR Inten    --      9.2356                41.2241                19.4857

                     22                     23                     24
                      A                      A                      A
 Frequencies --    328.4123               345.1033               369.1212
 Red. masses --      6.0930                 5.8642                 7.3463
 Frc consts  --      0.3872                 0.4115                 0.5897
 IR Inten    --      1.5096                 9.6650                47.2673

                     25                     26                     27
                      A                      A                      A
 Frequencies --    371.6554               379.2900               416.7985
 Red. masses --      7.3511                10.6183                 4.2178
 Frc consts  --      0.5983                 0.9000                 0.4317
 IR Inten    --      9.2025                35.6924                 2.1853

                     28                     29                     30
                      A                      A                      A
 Frequencies --    433.5185               445.6931               451.4752
 Red. masses --      6.0361                 7.9710                10.4933
 Frc consts  --      0.6684                 0.9329                 1.2602
 IR Inten    --      9.0876                 5.3870               100.2909

                     31                     32                     33
                      A                      A                      A
 Frequencies --    469.4993               470.6656               482.5693
 Red. masses --      3.4781                10.8543                 7.3183
 Frc consts  --      0.4517                 1.4167                 1.0041
 IR Inten    --     90.4669                18.0454                13.3602

                     34                     35                     36
                      A                      A                      A
 Frequencies --    489.4602               492.9053               509.0955
 Red. masses --     11.2650                 7.4707                 9.5744
 Frc consts  --      1.5901                 1.0694                 1.4620
 IR Inten    --     31.7597                56.4678                 7.6751

                     37                     38                     39
                      A                      A                      A
 Frequencies --    539.7495               595.7953               599.7990
 Red. masses --      6.3484                10.1703                 8.8647
 Frc consts  --      1.0897                 2.1270                 1.8790
 IR Inten    --    195.3542              1261.1749               138.7326

                     40                     41                     42
                      A                      A                      A
 Frequencies --    617.0267               643.3010               649.0197
 Red. masses --      4.7444                 8.8722                 7.4082
 Frc consts  --      1.0642                 2.1633                 1.8386
 IR Inten    --     12.0035               264.9356               599.6926

                     43                     44                     45
                      A                      A                      A
 Frequencies --    651.7467               688.0695               696.5897
 Red. masses --      8.5289                 7.9583                 6.8588
 Frc consts  --      2.1345                 2.2199                 1.9609
 IR Inten    --    619.7528               107.8478                18.3795

                     46                     47                     48
                      A                      A                      A
 Frequencies --    712.6507               719.3495               728.5682
 Red. masses --      4.5488                 4.0630                 8.1653
 Frc consts  --      1.3611                 1.2387                 2.5537
 IR Inten    --     61.0592                11.3524               495.6500

                     49                     50                     51
                      A                      A                      A
 Frequencies --    785.0555               798.8617               824.7088
 Red. masses --      2.1169                 1.4640                 3.4317
 Frc consts  --      0.7687                 0.5505                 1.3752
 IR Inten    --     17.6446                 1.0183                31.9020

                     52                     53                     54
                      A                      A                      A
 Frequencies --    854.9939               923.9768               949.8346
 Red. masses --      7.1941                 6.3629                 1.4095
 Frc consts  --      3.0985                 3.2006                 0.7492
 IR Inten    --     29.6848                22.4531                20.8290

                     55                     56                     57
                      A                      A                      A
 Frequencies --    955.5472               959.7472               963.7798
 Red. masses --      1.5401                 8.6156                 6.8741
 Frc consts  --      0.8285                 4.6757                 3.7621
 IR Inten    --      4.9957              1565.5196               209.2999

                     58                     59                     60
                      A                      A                      A
 Frequencies --    983.2184               984.9651               985.8781
 Red. masses --      1.2950                 1.4122                 3.8223
 Frc consts  --      0.7376                 0.8072                 2.1889
 IR Inten    --      0.3583                 4.4388                 2.7213

                     61                     62                     63
                      A                      A                      A
 Frequencies --   1043.1456              1048.1821              1068.0529
 Red. masses --      2.6149                 2.2863                 8.2186
 Frc consts  --      1.6764                 1.4800                 5.5237
 IR Inten    --   1381.0459                12.5454              2545.4354

                     64                     65                     66
                      A                      A                      A
 Frequencies --   1073.2077              1109.5670              1130.7652
 Red. masses --      9.7330                 3.8256                 1.7361
 Frc consts  --      6.6049                 2.7750                 1.3078
 IR Inten    --    348.1529               560.2837                16.8361

                     67                     68                     69
                      A                      A                      A
 Frequencies --   1161.1962              1162.5073              1166.5790
 Red. masses --      1.2634                 1.2625                 1.7171
 Frc consts  --      1.0037                 1.0053                 1.3768
 IR Inten    --      4.4063                 4.4972                93.0428

                     70                     71                     72
                      A                      A                      A
 Frequencies --   1173.7257              1179.2006              1180.5440
 Red. masses --      3.7727                 1.3493                 1.5903
 Frc consts  --      3.0622                 1.1054                 1.3058
 IR Inten    --    776.5766                 4.2622                36.7451

                     73                     74                     75
                      A                      A                      A
 Frequencies --   1193.0688              1218.1719              1229.1515
 Red. masses --      2.8982                 1.5556                13.9221
 Frc consts  --      2.4306                 1.3601                12.3927
 IR Inten    --    117.4814               124.2395               780.7037

                     76                     77                     78
                      A                      A                      A
 Frequencies --   1230.5370              1242.0014              1328.1934
 Red. masses --     18.0588                 2.0293                 2.1552
 Frc consts  --     16.1112                 1.8443                 2.2401
 IR Inten    --    135.6080               240.1774               259.2584

                     79                     80                     81
                      A                      A                      A
 Frequencies --   1329.3938              1351.8668              1361.7699
 Red. masses --      5.1822                 4.3149                 6.3841
 Frc consts  --      5.3960                 4.6461                 6.9752
 IR Inten    --    283.6470              1657.5079               697.1812

                     82                     83                     84
                      A                      A                      A
 Frequencies --   1432.9885              1449.8050              1454.3153
 Red. masses --      8.2408                 2.5642                 1.1430
 Frc consts  --      9.9702                 3.1755                 1.4244
 IR Inten    --    826.1278               157.3429                 1.5578

                     85                     86                     87
                      A                      A                      A
 Frequencies --   1454.7252              1464.7291              1473.9649
 Red. masses --      1.1479                 2.3116                 1.0458
 Frc consts  --      1.4313                 2.9219                 1.3387
 IR Inten    --      1.6245                 0.1684                 8.7399

                     88                     89                     90
                      A                      A                      A
 Frequencies --   1474.7061              1487.3711              1488.9800
 Red. masses --      1.0464                 7.9786                 7.1998
 Frc consts  --      1.3408                10.3996                 9.4048
 IR Inten    --      9.1938               231.9768               202.0514

                     91                     92                     93
                      A                      A                      A
 Frequencies --   1491.6134              1491.6833              1517.5565
 Red. masses --      1.0494                 1.0486                 6.6865
 Frc consts  --      1.3756                 1.3747                 9.0728
 IR Inten    --     17.2777                20.2156                24.5205

                     94                     95                     96
                      A                      A                      A
 Frequencies --   1550.2566              1582.4851              1605.8900
 Red. masses --      7.9914                 5.7448                 7.1808
 Frc consts  --     11.3157                 8.4763                10.9107
 IR Inten    --     17.7056               846.2175                 3.1435

                     97                     98                     99
                      A                      A                      A
 Frequencies --   3046.3884              3046.6342              3127.3736
 Red. masses --      1.0291                 1.0291                 1.1085
 Frc consts  --      5.6272                 5.6279                 6.3879
 IR Inten    --     83.5367                69.3683                23.0080

                    100                    101                    102
                      A                      A                      A
 Frequencies --   3127.6636              3156.9229              3156.9350
 Red. masses --      1.1084                 1.1057                 1.1056
 Frc consts  --      6.3885                 6.4925                 6.4921
 IR Inten    --     23.3825                 9.0193                10.0580

                    103                    104                    105
                      A                      A                      A
 Frequencies --   3181.7681              3184.3514              3197.6773
 Red. masses --      1.0860                 1.0857                 1.0945
 Frc consts  --      6.4777                 6.4863                 6.5940
 IR Inten    --     12.7184                 9.6069                19.1134

                    106                    107                    108
                      A                      A                      A
 Frequencies --   3199.4326              3203.6445              3206.0958
 Red. masses --      1.0943                 1.0896                 1.0892
 Frc consts  --      6.5997                 6.5887                 6.5968
 IR Inten    --     20.5181                 7.6127                 6.1599

 - Thermochemistry -
 -------------------
 Temperature   298.150 Kelvin.  Pressure   1.00000 Atm.
 Atom     1 has atomic number  6 and mass  12.00000

 Molecular mass:   395.99736 amu.
 Principal axes and moments of inertia in atomic units:
                           1         2         3
     Eigenvalues --  3849.05271********************
           X            0.89417   0.44770  -0.00484
           Y            0.28823  -0.56733   0.77140
           Z           -0.34261   0.69116   0.63633
 This molecule is an asymmetric top.
 Rotational symmetry number  1.
 Warning -- assumption of classical behavior for rotation
           may cause significant error
 Rotational temperatures (Kelvin)      0.02250     0.00327     0.00300
 Rotational constants (GHZ):           0.46888     0.06818     0.06255
 Zero-point vibrational energy     678198.9 (Joules/Mol)
                                  162.09343 (Kcal/Mol)
 Warning -- explicit consideration of  40 degrees of freedom as
           vibrations may cause significant error
 Vibrational temperatures:     25.90    33.59    46.84    65.15    80.24
          (Kelvin)             90.92   109.02   119.77   170.45   189.81
                              190.69   209.68   211.16   234.78   273.47
                              288.11   322.27   353.51   362.96   376.51
                              391.33   472.51   496.53   531.08   534.73
                              545.71   599.68   623.74   641.25   649.57
                              675.50   677.18   694.31   704.22   709.18
                              732.47   776.58   857.22   862.98   887.76
                              925.57   933.79   937.72   989.98  1002.24
                             1025.35  1034.98  1048.25  1129.52  1149.38
                             1186.57  1230.15  1329.40  1366.60  1374.82
                             1380.86  1386.66  1414.63  1417.15  1418.46
                             1500.85  1508.10  1536.69  1544.11  1596.42
                             1626.92  1670.70  1672.59  1678.45  1688.73
                             1696.61  1698.54  1716.56  1752.68  1768.47
                             1770.47  1786.96  1910.97  1912.70  1945.03
                             1959.28  2061.75  2085.95  2092.44  2093.03
                             2107.42  2120.71  2121.77  2140.00  2142.31
                             2146.10  2146.20  2183.43  2230.47  2276.84
                             2310.52  4383.07  4383.43  4499.59  4500.01
                             4542.11  4542.13  4577.85  4581.57  4600.74
                             4603.27  4609.33  4612.86

 Zero-point correction=                           0.258312 (Hartree/Particle)
 Thermal correction to Energy=                    0.282371
 Thermal correction to Enthalpy=                  0.283315
 Thermal correction to Gibbs Free Energy=         0.201995
 Sum of electronic and zero-point Energies=          -2015.379440
 Sum of electronic and thermal Energies=             -2015.355381
 Sum of electronic and thermal Enthalpies=           -2015.354437
 Sum of electronic and thermal Free Energies=        -2015.435757

                     E (Thermal)             CV                S
                      KCal/Mol        Cal/Mol-Kelvin    Cal/Mol-Kelvin
 Total                  177.190             89.498            171.152
 Electronic               0.000              0.000              0.000
 Translational            0.889              2.981             43.820
 Rotational               0.889              2.981             36.329
 Vibrational            175.413             83.537             91.003
 Vibration     1          0.593              1.986              6.843
 Vibration     2          0.593              1.985              6.327
 Vibration     3          0.594              1.983              5.667
 Vibration     4          0.595              1.979              5.014
 Vibration     5          0.596              1.975              4.602
 Vibration     6          0.597              1.972              4.355
 Vibration     7          0.599              1.965              3.998
 Vibration     8          0.600              1.961              3.813
 Vibration     9          0.609              1.934              3.125
 Vibration    10          0.612              1.921              2.918
 Vibration    11          0.613              1.921              2.909
 Vibration    12          0.617              1.907              2.727
 Vibration    13          0.617              1.906              2.714
 Vibration    14          0.623              1.888              2.513
 Vibration    15          0.633              1.854              2.227
 Vibration    16          0.638              1.840              2.131
 Vibration    17          0.649              1.805              1.927
 Vibration    18          0.660              1.770              1.761
 Vibration    19          0.664              1.759              1.715
 Vibration    20          0.669              1.743              1.650
 Vibration    21          0.675              1.725              1.584
 Vibration    22          0.712              1.619              1.268
 Vibration    23          0.723              1.585              1.188
 Vibration    24          0.741              1.536              1.083
 Vibration    25          0.743              1.530              1.073
 Vibration    26          0.749              1.514              1.042
 Vibration    27          0.780              1.434              0.903
 Vibration    28          0.794              1.397              0.847
 Vibration    29          0.805              1.370              0.809
 Vibration    30          0.810              1.358              0.791
 Vibration    31          0.827              1.318              0.739
 Vibration    32          0.828              1.315              0.736
 Vibration    33          0.839              1.289              0.703
 Vibration    34          0.845              1.273              0.685
 Vibration    35          0.849              1.266              0.676
 Vibration    36          0.864              1.230              0.636
 Vibration    37          0.895              1.162              0.566
 Vibration    38          0.954              1.041              0.457
 Vibration    39          0.958              1.032              0.450
 Vibration    40          0.977              0.996              0.421

                           ! Non-Optimized Parameters !
 Normal termination of Gaussian 16 at Sun Feb 11 06:21:31 2024.
