 Gaussian 16, Revision A.03,
 Gaussian 16:  ES64L-G16RevA.03 25-Dec-2016

 ----------------------------------------------------------------
 #P UB3LYP/6-311++G(d,p) SCRF=(PCM,Solvent=n,n-DiMethylFormamide)
 ----------------------------------------------------------------

 -------
 Reduced
 -------
 Symbolic Z-matrix:
 Charge = -2 Multiplicity = 1

                         Standard orientation:
 ---------------------------------------------------------------------
 Center     Atomic      Atomic             Coordinates (Angstroms)
 Number     Number       Type             X           Y           Z
 ---------------------------------------------------------------------
      1          6           0       -3.793672    0.572325    0.414907
      2          6           0       -4.619087   -0.534441    0.438557
      3          6           0       -4.087835   -1.822016    0.166159
      4          6           0       -2.407820    0.464546    0.122513
      5          6           0       -1.864163   -0.849331   -0.151130
      6          6           0       -2.736696   -1.953452   -0.119313
      7          6           0       -1.566839    1.619865    0.094218
      8          6           0       -0.196565    1.378576   -0.209616
      9          6           0        0.370545    0.131658   -0.479342
     10          6           0       -0.444441   -1.053499   -0.456689
     11          8           0       -1.937581    2.853267    0.317842
     12          8           0        0.032425   -2.217014   -0.697026
     13          1           0       -4.179432    1.566491    0.619341
     14          1           0       -5.677875   -0.420017    0.666130
     15          1           0       -4.735027   -2.696519    0.182422
     16          1           0       -2.297521   -2.924114   -0.329579
     17          8           0        0.557979    2.533690   -0.224363
     18          1           0       -0.149930    3.190086   -0.002759
     19          6           0        1.834325   -0.001304   -0.814904
     20          6           0        2.723040   -0.320696    0.408739
     21          6           0        4.203416   -0.614226    0.091283
     22          6           0        4.941346   -1.129872    1.336583
     23          6           0        4.935855    0.602023   -0.495248
     24          1           0        2.183201    0.922715   -1.287989
     25          1           0        1.941450   -0.825381   -1.531034
     26          1           0        2.290882   -1.193976    0.908417
     27          1           0        2.666682    0.515016    1.119123
     28          1           0        4.225073   -1.414357   -0.662635
     29          1           0        5.988475   -1.380301    1.120640
     30          1           0        4.456591   -2.025823    1.739019
     31          1           0        4.943975   -0.371330    2.129190
     32          1           0        5.988608    0.374259   -0.705578
     33          1           0        4.911930    1.442735    0.209013
     34          1           0        4.471882    0.940049   -1.425662
 ---------------------------------------------------------------------

 SCF Done:  E(UB3LYP) =  -807.390101337     A.U. after   18 cycles

 The electronic state is 1-A.
 Alpha  occ. eigenvalues --  -19.10764 -19.02248 -19.01461 -10.17279 -10.16955
 Alpha  occ. eigenvalues --  -10.16136 -10.15730 -10.14847 -10.14747 -10.14635
 Alpha  occ. eigenvalues --  -10.14420 -10.14219 -10.14188 -10.14147 -10.13847
 Alpha  occ. eigenvalues --  -10.13322 -10.12902 -10.12071  -1.02087  -0.93510
 Alpha  occ. eigenvalues --   -0.92448  -0.82044  -0.79903  -0.76564  -0.72809
 Alpha  occ. eigenvalues --   -0.71849  -0.68319  -0.67426  -0.63568  -0.60959
 Alpha  occ. eigenvalues --   -0.57856  -0.55693  -0.54351  -0.53078  -0.49900
 Alpha  occ. eigenvalues --   -0.46770  -0.45531  -0.44281  -0.43186  -0.42522
 Alpha  occ. eigenvalues --   -0.41782  -0.40503  -0.39668  -0.39287  -0.38544
 Alpha  occ. eigenvalues --   -0.37565  -0.36864  -0.35713  -0.35446  -0.34839
 Alpha  occ. eigenvalues --   -0.34674  -0.34322  -0.33043  -0.32164  -0.31438
 Alpha  occ. eigenvalues --   -0.30748  -0.30486  -0.30142  -0.29277  -0.29179
 Alpha  occ. eigenvalues --   -0.22647  -0.22061  -0.21117  -0.19271  -0.18795
 Alpha  occ. eigenvalues --   -0.10503
 Alpha virt. eigenvalues --   -0.00313  -0.00069   0.00492   0.01153   0.01697
 Alpha virt. eigenvalues --    0.02008   0.02266   0.02349   0.03660   0.03904
 Alpha virt. eigenvalues --    0.04113   0.04617   0.04817   0.05474   0.05959

  Beta  occ. eigenvalues --  -19.10764 -19.02248 -19.01461 -10.17279 -10.16955
  Beta  occ. eigenvalues --  -10.16136 -10.15730 -10.14847 -10.14747 -10.14635
  Beta  occ. eigenvalues --  -10.14420 -10.14219 -10.14188 -10.14147 -10.13847
  Beta  occ. eigenvalues --  -10.13322 -10.12902 -10.12071  -1.02087  -0.93510
  Beta  occ. eigenvalues --   -0.92448  -0.82044  -0.79903  -0.76564  -0.72809
  Beta  occ. eigenvalues --   -0.71849  -0.68319  -0.67426  -0.63568  -0.60959
  Beta  occ. eigenvalues --   -0.57856  -0.55693  -0.54351  -0.53078  -0.49900
  Beta  occ. eigenvalues --   -0.46770  -0.45531  -0.44281  -0.43186  -0.42522
  Beta  occ. eigenvalues --   -0.41782  -0.40503  -0.39668  -0.39287  -0.38544
  Beta  occ. eigenvalues --   -0.37565  -0.36864  -0.35713  -0.35446  -0.34839
  Beta  occ. eigenvalues --   -0.34674  -0.34322  -0.33043  -0.32164  -0.31438
  Beta  occ. eigenvalues --   -0.30748  -0.30486  -0.30142  -0.29277  -0.29179
  Beta  occ. eigenvalues --   -0.22647  -0.22061  -0.21117  -0.19271  -0.18795
  Beta  occ. eigenvalues --   -0.10503
  Beta virt. eigenvalues --   -0.00313  -0.00069   0.00492   0.01153   0.01697
  Beta virt. eigenvalues --    0.02008   0.02266   0.02349   0.03660   0.03904
  Beta virt. eigenvalues --    0.04113   0.04617   0.04817   0.05474   0.05959

 Mulliken charges and spin densities:
               1          2
     1  C   -0.016962   0.000000
     2  C   -0.405183   0.000000
     3  C   -0.492458   0.000000
     4  C    0.307586   0.000000
     5  C    0.010789  -0.000000
     6  C    0.052727   0.000000
     7  C   -1.014177  -0.000000
     8  C   -0.687602  -0.000000
     9  C    2.119063   0.000000
    10  C   -0.933725  -0.000000
    11  O   -0.734342   0.000000
    12  O   -0.640435  -0.000000
    13  H    0.141604  -0.000000
    14  H    0.153686   0.000000
    15  H    0.149041  -0.000000
    16  H    0.140688   0.000000
    17  O   -0.331794   0.000000
    18  H    0.274038  -0.000000
    19  C   -0.182936  -0.000000
    20  C   -0.695213   0.000000
    21  C    0.448312  -0.000000
    22  C   -0.643868  -0.000000
    23  C   -0.649768   0.000000
    24  H    0.186434   0.000000
    25  H    0.168080  -0.000000
    26  H    0.165963  -0.000000
    27  H    0.142171  -0.000000
    28  H    0.127809  -0.000000
    29  H    0.144357   0.000000
    30  H    0.132973  -0.000000
    31  H    0.139025   0.000000
    32  H    0.142475  -0.000000
    33  H    0.140906  -0.000000
    34  H    0.140737  -0.000000
 Sum of Mulliken charges =  -2.00000  -0.00000

 Dipole moment (field-independent basis, Debye):
    X=             10.2803    Y=             -2.4843    Z=              1.4519  Tot=             10.6754
 Quadrupole moment (field-independent basis, Debye-Ang):
   XX=           -154.6046   YY=           -166.3607   ZZ=           -123.2183
   XY=             11.8336   XZ=              2.3851   YZ=             -6.6702

 Normal termination of Gaussian 16 at Sun Jan 21 09:10:23 2024.
