 Gaussian 16, Revision A.03,
 Gaussian 16:  ES64L-G16RevA.03 25-Dec-2016

 --------------------------------------
 #P UB3LYP/6-311++G(d,p) nosym opt freq
 --------------------------------------

 -------
 Reduced
 -------
 Symbolic Z-matrix:
 Charge = -2 Multiplicity = 1

 SCF Done:  E(UB3LYP) =  -807.132642616     A.U. after   45 cycles
 Optimization completed.
    -- Stationary point found.
 Normal termination of Gaussian 16 at Mon Jan  8 01:42:13 2024.

 ----------------------------------------------------------------------
 #P Geom=AllCheck Guess=TCheck SCRF=Check GenChk UB3LYP/6-311++G(d,p) F
 req
 ----------------------------------------------------------------------

 Structure from the checkpoint file:  "289-an.chk"
 -------
 Reduced
 -------
 Charge = -2 Multiplicity = 1

                          Input orientation:
 ---------------------------------------------------------------------
 Center     Atomic      Atomic             Coordinates (Angstroms)
 Number     Number       Type             X           Y           Z
 ---------------------------------------------------------------------
      1          6           0       -2.026427    3.045501   -0.254218
      2          6           0       -2.987706    2.498436    0.572499
      3          6           0       -2.707527    1.311458    1.298352
      4          6           0       -0.745218    2.451109   -0.405544
      5          6           0       -0.457040    1.242537    0.338111
      6          6           0       -1.462343    0.713752    1.169472
      7          6           0        0.237501    3.024390   -1.270659
      8          6           0        1.481964    2.334810   -1.333737
      9          6           0        1.803471    1.169127   -0.635894
     10          6           0        0.840680    0.565672    0.246257
     11          8           0        0.096965    4.103791   -1.994454
     12          8           0        1.091780   -0.502156    0.906274
     13          1           0       -2.220025    3.952294   -0.819210
     14          1           0       -3.961106    2.977280    0.667974
     15          1           0       -3.462635    0.876364    1.949799
     16          1           0       -1.214349   -0.193356    1.712542
     17          8           0        2.382928    2.937187   -2.187697
     18          1           0        1.829359    3.700046   -2.492177
     19          6           0        3.149190    0.509693   -0.800575
     20          6           0        4.183969    0.941206    0.263453
     21          6           0        5.525522    0.181394    0.226412
     22          6           0        6.388635    0.529076    1.449260
     23          6           0        6.312699    0.432156   -1.068663
     24          1           0        3.540341    0.728612   -1.799780
     25          1           0        3.005934   -0.574012   -0.708482
     26          1           0        3.723906    0.794388    1.246226
     27          1           0        4.377320    2.017192    0.158073
     28          1           0        5.295904   -0.892770    0.276594
     29          1           0        7.332822   -0.031481    1.459795
     30          1           0        5.856845    0.311161    2.381667
     31          1           0        6.642646    1.596344    1.455413
     32          1           0        7.266673   -0.110368   -1.070611
     33          1           0        6.537263    1.499849   -1.182488
     34          1           0        5.745939    0.120257   -1.949972
 ---------------------------------------------------------------------

 SCF Done:  E(UB3LYP) =  -807.132642615     A.U. after    5 cycles

 Alpha  occ. eigenvalues --  -18.89019 -18.80732 -18.79944  -9.97745  -9.97269
 Alpha  occ. eigenvalues --   -9.96955  -9.96096  -9.95855  -9.94768  -9.94556
 Alpha  occ. eigenvalues --   -9.94318  -9.93816  -9.93388  -9.93285  -9.93224
 Alpha  occ. eigenvalues --   -9.92183  -9.91851  -9.90942  -0.80306  -0.71705
 Alpha  occ. eigenvalues --   -0.70637  -0.61195  -0.61032  -0.55799  -0.52442
 Alpha  occ. eigenvalues --   -0.50858  -0.49691  -0.47901  -0.42940  -0.40587
 Alpha  occ. eigenvalues --   -0.36974  -0.36020  -0.34365  -0.31841  -0.28906
 Alpha  occ. eigenvalues --   -0.26803  -0.25938  -0.24592  -0.23525  -0.22573
 Alpha  occ. eigenvalues --   -0.21258  -0.20754  -0.19994  -0.19339  -0.18652
 Alpha  occ. eigenvalues --   -0.17230  -0.16613  -0.15671  -0.14793  -0.14730
 Alpha  occ. eigenvalues --   -0.13389  -0.13089  -0.12771  -0.12562  -0.11747
 Alpha  occ. eigenvalues --   -0.10707  -0.09490  -0.08993  -0.08133  -0.07561
 Alpha  occ. eigenvalues --   -0.01322  -0.00297   0.00878   0.02641   0.02855
 Alpha  occ. eigenvalues --    0.11734
 Alpha virt. eigenvalues --    0.13088   0.15296   0.15444   0.16590   0.17208
 Alpha virt. eigenvalues --    0.17819   0.19162   0.19321   0.19553   0.19846
 Alpha virt. eigenvalues --    0.20566   0.20887   0.21226   0.22509   0.22763

  Beta  occ. eigenvalues --  -18.89019 -18.80732 -18.79944  -9.97745  -9.97269
  Beta  occ. eigenvalues --   -9.96955  -9.96096  -9.95855  -9.94768  -9.94556
  Beta  occ. eigenvalues --   -9.94318  -9.93816  -9.93388  -9.93285  -9.93224
  Beta  occ. eigenvalues --   -9.92183  -9.91851  -9.90942  -0.80306  -0.71705
  Beta  occ. eigenvalues --   -0.70637  -0.61195  -0.61032  -0.55799  -0.52442
  Beta  occ. eigenvalues --   -0.50858  -0.49691  -0.47901  -0.42940  -0.40587
  Beta  occ. eigenvalues --   -0.36974  -0.36020  -0.34365  -0.31841  -0.28906
  Beta  occ. eigenvalues --   -0.26803  -0.25938  -0.24592  -0.23525  -0.22573
  Beta  occ. eigenvalues --   -0.21258  -0.20754  -0.19994  -0.19339  -0.18652
  Beta  occ. eigenvalues --   -0.17230  -0.16613  -0.15671  -0.14793  -0.14730
  Beta  occ. eigenvalues --   -0.13389  -0.13089  -0.12771  -0.12562  -0.11747
  Beta  occ. eigenvalues --   -0.10707  -0.09490  -0.08993  -0.08133  -0.07561
  Beta  occ. eigenvalues --   -0.01322  -0.00297   0.00878   0.02641   0.02855
  Beta  occ. eigenvalues --    0.11734
  Beta virt. eigenvalues --    0.13088   0.15296   0.15444   0.16590   0.17208
  Beta virt. eigenvalues --    0.17819   0.19162   0.19321   0.19553   0.19846
  Beta virt. eigenvalues --    0.20566   0.20887   0.21226   0.22509   0.22763

 Mulliken charges and spin densities:
               1          2
     1  C   -0.011609   0.000000
     2  C   -0.308084  -0.000000
     3  C   -0.400869  -0.000000
     4  C    0.521391  -0.000000
     5  C    0.140924   0.000000
     6  C    0.063998  -0.000000
     7  C   -1.404936  -0.000000
     8  C   -0.720110  -0.000000
     9  C    2.584507   0.000000
    10  C   -1.156336   0.000000
    11  O   -0.568534  -0.000000
    12  O   -0.459723  -0.000000
    13  H    0.132217   0.000000
    14  H    0.079854  -0.000000
    15  H    0.077524   0.000000
    16  H    0.133866   0.000000
    17  O   -0.284312   0.000000
    18  H    0.245599  -0.000000
    19  C   -0.458092   0.000000
    20  C    0.414880  -0.000000
    21  C   -1.266506   0.000000
    22  C    0.602482  -0.000000
    23  C    0.173288  -0.000000
    24  H    0.276791  -0.000000
    25  H    0.133212   0.000000
    26  H    0.237957  -0.000000
    27  H    0.095860   0.000000
    28  H    0.103020  -0.000000
    29  H   -0.673513   0.000000
    30  H    0.039396   0.000000
    31  H    0.006788   0.000000
    32  H   -0.422572   0.000000
    33  H    0.069341   0.000000
    34  H    0.002300   0.000000
 Sum of Mulliken charges =  -2.00000   0.00000

 Dipole moment (field-independent basis, Debye):
    X=            -17.2286    Y=            -13.8304    Z=              2.1035  Tot=             22.1931
 Quadrupole moment (field-independent basis, Debye-Ang):
   XX=           -278.0961   YY=           -180.9490   ZZ=           -146.9629
   XY=              6.8676   XZ=             -3.1129   YZ=             23.0942

  Exact polarizability:2108.937-440.824 541.000 125.516  -4.537 835.945
 Approx polarizability:****************1316.3881269.486-425.481 862.846

                      1                      2                      3
                      A                      A                      A
 Frequencies --     21.1513                36.0957                42.4583
 Red. masses --      3.6306                 3.2636                 4.7267
 Frc consts  --      0.0010                 0.0025                 0.0050
 IR Inten    --      0.6945                 0.0790                 0.0975

                      4                      5                      6
                      A                      A                      A
 Frequencies --     99.4515               108.8297               129.2007
 Red. masses --      6.6841                 2.2349                 4.1024
 Frc consts  --      0.0390                 0.0156                 0.0403
 IR Inten    --      2.3177                 4.4498                 0.4736

                      7                      8                      9
                      A                      A                      A
 Frequencies --    163.8516               182.9992               197.3673
 Red. masses --      6.5868                 3.7440                 5.2253
 Frc consts  --      0.1042                 0.0739                 0.1199
 IR Inten    --      1.0623                 6.2232                 5.8801

                     10                     11                     12
                      A                      A                      A
 Frequencies --    218.4254               248.8773               253.6273
 Red. masses --      1.0632                 2.1871                 1.4614
 Frc consts  --      0.0299                 0.0798                 0.0554
 IR Inten    --      2.6768                12.1946                 6.2155

                     13                     14                     15
                      A                      A                      A
 Frequencies --    286.3641               311.6707               341.3686
 Red. masses --      2.8846                 4.0520                 5.4338
 Frc consts  --      0.1394                 0.2319                 0.3731
 IR Inten    --      2.4880                 1.2889                 7.1220

                     16                     17                     18
                      A                      A                      A
 Frequencies --    365.7516               369.0751               392.0509
 Red. masses --      6.9412                 4.6098                 2.6690
 Frc consts  --      0.5471                 0.3700                 0.2417
 IR Inten    --      4.9442                 1.6609                69.7211

                     19                     20                     21
                      A                      A                      A
 Frequencies --    405.0342               433.1230               440.2623
 Red. masses --      3.2330                 8.8017                 2.6494
 Frc consts  --      0.3125                 0.9728                 0.3026
 IR Inten    --     11.9753               143.6939                 6.1028

                     22                     23                     24
                      A                      A                      A
 Frequencies --    462.2259               477.6176               524.7635
 Red. masses --      3.7554                 4.8795                 6.3427
 Frc consts  --      0.4727                 0.6558                 1.0291
 IR Inten    --    154.7811               219.5161               145.8676

                     25                     26                     27
                      A                      A                      A
 Frequencies --    554.5023               637.5356               669.2170
 Red. masses --      5.5793                 6.1117                 5.6715
 Frc consts  --      1.0107                 1.4636                 1.4965
 IR Inten    --     16.7590                 8.9763                10.7546

                     28                     29                     30
                      A                      A                      A
 Frequencies --    689.1943               690.9402               698.7763
 Red. masses --      2.0659                 3.4476                 3.7772
 Frc consts  --      0.5782                 0.9697                 1.0867
 IR Inten    --     47.9587                 9.4201                16.1174

                     31                     32                     33
                      A                      A                      A
 Frequencies --    735.5074               757.6081               764.5946
 Red. masses --      3.2968                 1.9028                 2.4108
 Frc consts  --      1.0508                 0.6435                 0.8304
 IR Inten    --     15.5274                 5.1923                 6.0330

                     34                     35                     36
                      A                      A                      A
 Frequencies --    784.9644               800.1677               821.5472
 Red. masses --      1.1966                 1.4758                 2.8287
 Frc consts  --      0.4344                 0.5567                 1.1249
 IR Inten    --     47.2742                 1.5366                13.3910

                     37                     38                     39
                      A                      A                      A
 Frequencies --    869.8218               922.2088               933.7298
 Red. masses --      2.8771                 1.2734                 1.9568
 Frc consts  --      1.2825                 0.6381                 1.0052
 IR Inten    --     28.5078                 5.0569                51.3572

                     40                     41                     42
                      A                      A                      A
 Frequencies --    937.3807               942.9946               952.2951
 Red. masses --      1.2530                 4.5236                 1.4580
 Frc consts  --      0.6487                 2.3700                 0.7790
 IR Inten    --      1.3447                58.2808                96.3175

                     43                     44                     45
                      A                      A                      A
 Frequencies --    954.8660               977.6185              1015.3041
 Red. masses --      1.3177                 2.0652                 2.5419
 Frc consts  --      0.7079                 1.1629                 1.5438
 IR Inten    --      4.4703                 4.3832               226.0724

                     46                     47                     48
                      A                      A                      A
 Frequencies --   1021.1736              1050.7074              1094.2394
 Red. masses --      2.6693                 3.1052                 2.0984
 Frc consts  --      1.6400                 2.0197                 1.4803
 IR Inten    --     84.8221               137.3605                54.5149

                     49                     50                     51
                      A                      A                      A
 Frequencies --   1123.3803              1130.6239              1134.6679
 Red. masses --      2.1728                 1.3782                 2.0590
 Frc consts  --      1.6155                 1.0380                 1.5619
 IR Inten    --     86.4110               113.7824                13.1538

                     52                     53                     54
                      A                      A                      A
 Frequencies --   1176.3109              1182.2585              1187.3480
 Red. masses --      3.3116                 1.7649                 2.0202
 Frc consts  --      2.6998                 1.4535                 1.6780
 IR Inten    --     55.1287                 9.0360               284.0598

                     55                     56                     57
                      A                      A                      A
 Frequencies --   1228.5256              1246.3861              1279.4979
 Red. masses --      1.9195                 1.9987                 1.4550
 Frc consts  --      1.7069                 1.8294                 1.4034
 IR Inten    --     38.1503               102.1025                22.5250

                     58                     59                     60
                      A                      A                      A
 Frequencies --   1286.3193              1323.1713              1332.7425
 Red. masses --      1.9552                 1.5721                 2.7376
 Frc consts  --      1.9060                 1.6217                 2.8649
 IR Inten    --     47.7570               667.9435               449.3101

                     61                     62                     63
                      A                      A                      A
 Frequencies --   1342.9984              1356.0625              1361.0326
 Red. masses --      1.4340                 1.4115                 1.9183
 Frc consts  --      1.5238                 1.5293                 2.0937
 IR Inten    --    115.4473                64.8621               600.8178

                     64                     65                     66
                      A                      A                      A
 Frequencies --   1369.1390              1380.7927              1403.1224
 Red. masses --      1.4312                 1.2760                 1.2657
 Frc consts  --      1.5807                 1.4334                 1.4681
 IR Inten    --      8.1775               383.1671               262.3544

                     67                     68                     69
                      A                      A                      A
 Frequencies --   1422.5740              1428.6679              1441.6069
 Red. masses --      4.2137                 2.9365                 2.6508
 Frc consts  --      5.0242                 3.5314                 3.2458
 IR Inten    --   2178.6688               677.9366                50.5750

                     70                     71                     72
                      A                      A                      A
 Frequencies --   1465.1964              1476.9867              1481.6159
 Red. masses --      1.3801                 1.0774                 1.1604
 Frc consts  --      1.7456                 1.3847                 1.5009
 IR Inten    --    284.9254                17.0019                60.8129

                     73                     74                     75
                      A                      A                      A
 Frequencies --   1482.6993              1489.3931              1492.4850
 Red. masses --      2.3658                 1.0582                 1.0875
 Frc consts  --      3.0643                 1.3831                 1.4273
 IR Inten    --    539.7984               124.6999                46.5224

                     76                     77                     78
                      A                      A                      A
 Frequencies --   1505.2218              1510.9596              1542.2625
 Red. masses --      1.0537                 4.5177                 4.0513
 Frc consts  --      1.4065                 6.0767                 5.6776
 IR Inten    --      8.2786               571.4584              1311.0848

                     79                     80                     81
                      A                      A                      A
 Frequencies --   1586.6818              1599.6403              2973.6330
 Red. masses --      4.6357                 4.7930                 1.0781
 Frc consts  --      6.8761                 7.2261                 5.6165
 IR Inten    --     33.5017              2289.5354                18.2908

                     82                     83                     84
                      A                      A                      A
 Frequencies --   2978.6365              2988.1872              2993.5986
 Red. masses --      1.0411                 1.0421                 1.0587
 Frc consts  --      5.4424                 5.4826                 5.5900
 IR Inten    --      6.2633                 4.0241                67.5895

                     85                     86                     87
                      A                      A                      A
 Frequencies --   3003.7833              3032.8019              3036.8223
 Red. masses --      1.0629                 1.0981                 1.0967
 Frc consts  --      5.6503                 5.9508                 5.9589
 IR Inten    --     50.3881                17.6477                11.2338

                     88                     89                     90
                      A                      A                      A
 Frequencies --   3041.6898              3055.0213              3061.6896
 Red. masses --      1.0982                 1.1017                 1.1006
 Frc consts  --      5.9861                 6.0582                 6.0784
 IR Inten    --     69.9911                 7.4344                36.8679

                     91                     92                     93
                      A                      A                      A
 Frequencies --   3077.9331              3093.8909              3118.9445
 Red. masses --      1.0967                 1.0829                 1.0900
 Frc consts  --      6.1217                 6.1071                 6.2472
 IR Inten    --     24.9009                69.0116               255.0874

                     94                     95                     96
                      A                      A                      A
 Frequencies --   3155.7481              3158.3998              3341.4519
 Red. masses --      1.0903                 1.0917                 1.0637
 Frc consts  --      6.3975                 6.4165                 6.9973
 IR Inten    --     28.8397               224.0975                64.4534

 - Thermochemistry -
 -------------------
 Temperature   298.150 Kelvin.  Pressure   1.00000 Atm.
 Atom     1 has atomic number  6 and mass  12.00000

 Molecular mass:   244.10994 amu.
 Principal axes and moments of inertia in atomic units:
                           1         2         3
     Eigenvalues --  2239.812967879.471049585.15841
           X            0.97258  -0.14969   0.17802
           Y           -0.23177  -0.68770   0.68800
           Z           -0.01944   0.71040   0.70353
 This molecule is an asymmetric top.
 Rotational symmetry number  1.
 Warning -- assumption of classical behavior for rotation
           may cause significant error
 Rotational temperatures (Kelvin)      0.03867     0.01099     0.00904
 Rotational constants (GHZ):           0.80576     0.22904     0.18828
 Zero-point vibrational energy     715792.4 (Joules/Mol)
                                  171.07848 (Kcal/Mol)
 Warning -- explicit consideration of  25 degrees of freedom as
           vibrations may cause significant error
 Vibrational temperatures:     30.43    51.93    61.09   143.09   156.58
          (Kelvin)            185.89   235.75   263.30   283.97   314.27
                              358.08   364.91   412.01   448.42   491.15
                              526.24   531.02   564.07   582.75   623.17
                              633.44   665.04   687.19   755.02   797.81
                              917.27   962.85   991.60   994.11  1005.38
                             1058.23  1090.03  1100.08  1129.39  1151.26
                             1182.02  1251.48  1326.85  1343.43  1348.68
                             1356.76  1370.14  1373.84  1406.57  1460.80
                             1469.24  1511.73  1574.37  1616.29  1626.72
                             1632.53  1692.45  1701.01  1708.33  1767.57
                             1793.27  1840.91  1850.73  1903.75  1917.52
                             1932.28  1951.07  1958.22  1969.89  1986.65
                             2018.78  2046.77  2055.53  2074.15  2108.09
                             2125.05  2131.71  2133.27  2142.90  2147.35
                             2165.68  2173.93  2218.97  2282.88  2301.53
                             4278.39  4285.59  4299.33  4307.12  4321.77
                             4363.53  4369.31  4376.31  4395.49  4405.09
                             4428.46  4451.42  4487.47  4540.42  4544.23
                             4807.60

 Zero-point correction=                           0.272631 (Hartree/Particle)
 Thermal correction to Energy=                    0.289388
 Thermal correction to Enthalpy=                  0.290332
 Thermal correction to Gibbs Free Energy=         0.227308
 Sum of electronic and zero-point Energies=           -806.860012
 Sum of electronic and thermal Energies=              -806.843254
 Sum of electronic and thermal Enthalpies=            -806.842310
 Sum of electronic and thermal Free Energies=         -806.905335

                     E (Thermal)             CV                S
                      KCal/Mol        Cal/Mol-Kelvin    Cal/Mol-Kelvin
 Total                  181.594             64.980            132.647
 Electronic               0.000              0.000              0.000
 Translational            0.889              2.981             42.378
 Rotational               0.889              2.981             33.492
 Vibrational            179.816             59.019             56.777
 Vibration     1          0.593              1.985              6.523
 Vibration     2          0.594              1.982              5.463
 Vibration     3          0.595              1.980              5.141
 Vibration     4          0.604              1.949              3.465
 Vibration     5          0.606              1.942              3.290
 Vibration     6          0.612              1.924              2.958
 Vibration     7          0.623              1.887              2.505
 Vibration     8          0.630              1.863              2.298
 Vibration     9          0.637              1.844              2.158
 Vibration    10          0.646              1.813              1.972
 Vibration    11          0.662              1.765              1.739
 Vibration    12          0.665              1.757              1.705
 Vibration    13          0.684              1.699              1.495
 Vibration    14          0.700              1.651              1.353
 Vibration    15          0.721              1.593              1.206
 Vibration    16          0.739              1.543              1.098
 Vibration    17          0.741              1.536              1.084
 Vibration    18          0.759              1.487              0.992
 Vibration    19          0.770              1.459              0.944
 Vibration    20          0.794              1.398              0.849
 Vibration    21          0.800              1.382              0.826
 Vibration    22          0.820              1.334              0.760
 Vibration    23          0.834              1.300              0.717
 Vibration    24          0.880              1.195              0.599
 Vibration    25          0.910              1.130              0.535

                           ! Non-Optimized Parameters !
 Normal termination of Gaussian 16 at Mon Jan  8 03:45:57 2024.
