 Gaussian 16, Revision A.03,
 Gaussian 16:  ES64L-G16RevA.03 25-Dec-2016

 --------------------------------------
 #P UB3LYP/6-311++G(d,p) nosym opt freq
 --------------------------------------

 -------
 Radical
 -------
 Symbolic Z-matrix:
 Charge = -1 Multiplicity = 2

 SCF Done:  E(UB3LYP) =  -649.672483588     A.U. after   21 cycles
 SCF Done:  E(UB3LYP) =  -649.686540675     A.U. after   17 cycles
 SCF Done:  E(UB3LYP) =  -649.687927791     A.U. after   16 cycles
 SCF Done:  E(UB3LYP) =  -649.688003307     A.U. after   14 cycles
 SCF Done:  E(UB3LYP) =  -649.688024672     A.U. after   14 cycles
 SCF Done:  E(UB3LYP) =  -649.688091943     A.U. after   14 cycles
 SCF Done:  E(UB3LYP) =  -649.688097612     A.U. after   13 cycles
 SCF Done:  E(UB3LYP) =  -649.688105196     A.U. after   13 cycles
 SCF Done:  E(UB3LYP) =  -649.688107179     A.U. after   12 cycles
 SCF Done:  E(UB3LYP) =  -649.688107558     A.U. after   11 cycles
 SCF Done:  E(UB3LYP) =  -649.688107653     A.U. after   11 cycles
 SCF Done:  E(UB3LYP) =  -649.688107714     A.U. after   10 cycles
 SCF Done:  E(UB3LYP) =  -649.688107751     A.U. after   10 cycles
 Optimization completed.
    -- Stationary point found.
 Normal termination of Gaussian 16 at Wed Dec 20 02:12:35 2023.

 ----------------------------------------------------------------------
 #P Geom=AllCheck Guess=TCheck SCRF=Check GenChk UB3LYP/6-311++G(d,p) F
 req
 ----------------------------------------------------------------------

 Structure from the checkpoint file:  "100-rad.chk"
 -------
 Radical
 -------
 Charge = -1 Multiplicity = 2

                          Input orientation:
 ---------------------------------------------------------------------
 Center     Atomic      Atomic             Coordinates (Angstroms)
 Number     Number       Type             X           Y           Z
 ---------------------------------------------------------------------
      1          6           0        2.389573    3.448013    2.829262
      2          6           0        3.464729    3.440914    1.885271
      3          6           0        3.386965    2.758969    0.686129
      4          6           0        2.202780    1.963833    0.332740
      5          6           0        1.127599    1.970978    1.276704
      6          6           0        1.205364    2.652926    2.475843
      7          8           0        2.402480    4.101737    3.920305
      8          8           0        2.189912    1.310008   -0.758244
      9          7           0        0.216953    2.651108    3.454314
     10          6           0       -1.174075    2.427605    3.131282
     11          6           0       -2.050929    2.563675    4.374435
     12          7           0        4.375351    2.760868   -0.292388
     13          6           0        5.766409    2.984173    0.030683
     14          6           0        6.643211    2.848497   -1.212550
     15          1           0        4.339390    4.026887    2.148379
     16          1           0        0.252920    1.385040    1.013578
     17          1           0        0.420830    3.380244    4.134416
     18          1           0       -1.289756    1.418619    2.718322
     19          1           0       -1.528733    3.120919    2.346883
     20          1           0       -1.745996    1.847837    5.143155
     21          1           0       -3.102325    2.384167    4.129531
     22          1           0       -1.973025    3.569296    4.801106
     23          1           0        4.171438    2.031743   -0.972498
     24          1           0        6.121062    2.290563    0.814824
     25          1           0        5.882154    3.993005    0.443991
     26          1           0        6.565199    1.843045   -1.639603
     27          1           0        7.694633    3.027809   -0.967610
     28          1           0        6.338318    3.564653   -1.980988
 ---------------------------------------------------------------------

 SCF Done:  E(UB3LYP) =  -649.688107751     A.U. after    1 cycles

 Alpha  occ. eigenvalues --  -18.92426 -18.92426 -14.18472 -14.18471 -10.09212
 Alpha  occ. eigenvalues --  -10.09212 -10.07126 -10.07124 -10.07071 -10.07071
 Alpha  occ. eigenvalues --  -10.05929 -10.05928 -10.00828 -10.00827  -0.85106
 Alpha  occ. eigenvalues --   -0.84685  -0.79522  -0.79421  -0.67558  -0.65515
 Alpha  occ. eigenvalues --   -0.63216  -0.57640  -0.54193  -0.52649  -0.49851
 Alpha  occ. eigenvalues --   -0.44184  -0.44036  -0.38356  -0.36847  -0.36280
 Alpha  occ. eigenvalues --   -0.35517  -0.35472  -0.33092  -0.29951  -0.29743
 Alpha  occ. eigenvalues --   -0.29398  -0.28325  -0.27555  -0.27023  -0.26308
 Alpha  occ. eigenvalues --   -0.25523  -0.25243  -0.24865  -0.24494  -0.22389
 Alpha  occ. eigenvalues --   -0.20990  -0.17534  -0.15925  -0.09992  -0.09750
 Alpha  occ. eigenvalues --   -0.09196  -0.06440   0.00034
 Alpha virt. eigenvalues --    0.07409   0.07418   0.10154   0.10237   0.10692
 Alpha virt. eigenvalues --    0.10874   0.11197   0.11673   0.13664   0.13934
 Alpha virt. eigenvalues --    0.14102   0.14618   0.14719   0.15376   0.16140

  Beta  occ. eigenvalues --  -18.91834 -18.91834 -14.18371 -14.18371 -10.09211
  Beta  occ. eigenvalues --  -10.09211 -10.07071 -10.07071 -10.06937 -10.06936
  Beta  occ. eigenvalues --  -10.05703 -10.05702 -10.00872 -10.00871  -0.84183
  Beta  occ. eigenvalues --   -0.83712  -0.79209  -0.79053  -0.67150  -0.65413
  Beta  occ. eigenvalues --   -0.63050  -0.57497  -0.53649  -0.52580  -0.49361
  Beta  occ. eigenvalues --   -0.43917  -0.43696  -0.38204  -0.36685  -0.36203
  Beta  occ. eigenvalues --   -0.35378  -0.35301  -0.32857  -0.29870  -0.29667
  Beta  occ. eigenvalues --   -0.29222  -0.27752  -0.27401  -0.26893  -0.26189
  Beta  occ. eigenvalues --   -0.25294  -0.24543  -0.24157  -0.23971  -0.20751
  Beta  occ. eigenvalues --   -0.20007  -0.16595  -0.14124  -0.09274  -0.08624
  Beta  occ. eigenvalues --   -0.07966  -0.05696
  Beta virt. eigenvalues --    0.06808   0.07414   0.07439   0.10154   0.10238
  Beta virt. eigenvalues --    0.10703   0.10875   0.11202   0.11682   0.13684
  Beta virt. eigenvalues --    0.13967   0.14131   0.14622   0.15396   0.15547

 Mulliken charges and spin densities:
               1          2
     1  C   -0.826253   0.105805
     2  C    0.673016  -0.063650
     3  C   -0.199556   0.202357
     4  C   -0.825726   0.105823
     5  C    0.673023  -0.063652
     6  C   -0.199622   0.202342
     7  O   -0.453531   0.216519
     8  O   -0.453537   0.216520
     9  N   -0.000276   0.040583
    10  C   -0.116603  -0.011215
    11  C   -0.638868   0.003111
    12  N   -0.000254   0.040582
    13  C   -0.116710  -0.011222
    14  C   -0.638703   0.003113
    15  H    0.144824  -0.001437
    16  H    0.144834  -0.001436
    17  H    0.263480  -0.003547
    18  H    0.129530  -0.001151
    19  H    0.131577   0.010650
    20  H    0.138225   0.003793
    21  H    0.118245  -0.000082
    22  H    0.135940  -0.001737
    23  H    0.263460  -0.003547
    24  H    0.131566   0.010653
    25  H    0.129521  -0.001152
    26  H    0.135936  -0.001738
    27  H    0.118237  -0.000082
    28  H    0.138224   0.003794
 Sum of Mulliken charges =  -1.00000   1.00000

 Dipole moment (field-independent basis, Debye):
    X=            -11.0294    Y=            -12.9970    Z=             -7.5937  Tot=             18.6610
 Quadrupole moment (field-independent basis, Debye-Ang):
   XX=           -115.3743   YY=           -135.1492   ZZ=           -130.6998
   XY=            -32.5151   XZ=            -19.1353   YZ=            -32.9698

  Exact polarizability: 211.412  10.718 126.192 -48.239  29.593 197.465
 Approx polarizability: 249.578  13.408 202.964 -38.120  67.519 321.327

                      1                      2                      3
                      A                      A                      A
 Frequencies --     34.5257                62.0653                68.1570
 Red. masses --      3.7420                 2.3322                 1.7054
 Frc consts  --      0.0026                 0.0053                 0.0047
 IR Inten    --      5.5740                 0.0000                 7.2402

                      4                      5                      6
                      A                      A                      A
 Frequencies --     89.6838                92.9766               133.2139
 Red. masses --      3.4882                 2.4028                 6.9895
 Frc consts  --      0.0165                 0.0122                 0.0731
 IR Inten    --      4.2812                 0.0000                10.2716

                      7                      8                      9
                      A                      A                      A
 Frequencies --    136.0930               201.2785               247.2552
 Red. masses --      4.3067                 4.2381                 1.7327
 Frc consts  --      0.0470                 0.1012                 0.0624
 IR Inten    --      0.0000                 1.7953                 0.0000

                     10                     11                     12
                      A                      A                      A
 Frequencies --    258.1237               258.7925               266.3701
 Red. masses --      1.2271                 3.3307                 2.4717
 Frc consts  --      0.0482                 0.1314                 0.1033
 IR Inten    --      6.5497                 0.0000                 0.0000

                     13                     14                     15
                      A                      A                      A
 Frequencies --    321.2754               351.6683               358.6510
 Red. masses --      4.2333                 4.0483                 4.1418
 Frc consts  --      0.2574                 0.2950                 0.3139
 IR Inten    --      6.8313                 0.0000                20.7233

                     16                     17                     18
                      A                      A                      A
 Frequencies --    439.4650               445.9520               479.8508
 Red. masses --      2.9481                 6.6902                10.9700
 Frc consts  --      0.3355                 0.7839                 1.4882
 IR Inten    --      5.7383                 0.0000                 0.0000

                     19                     20                     21
                      A                      A                      A
 Frequencies --    485.1765               560.4798               655.3511
 Red. masses --      5.0296                 4.8451                 3.8027
 Frc consts  --      0.6976                 0.8968                 0.9623
 IR Inten    --      2.6849                 0.0000                 0.0010

                     22                     23                     24
                      A                      A                      A
 Frequencies --    661.6675               685.3120               730.9006
 Red. masses --      1.7191                 1.7391                 2.2595
 Frc consts  --      0.4434                 0.4812                 0.7112
 IR Inten    --    201.0052                 0.0008                 0.0000

                     25                     26                     27
                      A                      A                      A
 Frequencies --    731.1794               755.5447               781.5078
 Red. masses --      7.3706                 2.4300                 2.7466
 Frc consts  --      2.3217                 0.8173                 0.9884
 IR Inten    --      4.7646               106.0523                 0.0001

                     28                     29                     30
                      A                      A                      A
 Frequencies --    806.8726               813.8035               820.2191
 Red. masses --      1.5755                 1.1572                 1.3129
 Frc consts  --      0.6043                 0.4515                 0.5204
 IR Inten    --      0.0000                 8.8244                 0.0000

                     31                     32                     33
                      A                      A                      A
 Frequencies --    831.4254               903.4278               922.3072
 Red. masses --      1.4864                 1.8629                 1.7053
 Frc consts  --      0.6054                 0.8958                 0.8547
 IR Inten    --     52.4737                 6.1558                 0.0000

                     34                     35                     36
                      A                      A                      A
 Frequencies --    936.3797              1060.3767              1069.3188
 Red. masses --      2.3276                 2.8150                 2.4097
 Frc consts  --      1.2024                 1.8649                 1.6234
 IR Inten    --      4.5349                 0.0000                17.9629

                     37                     38                     39
                      A                      A                      A
 Frequencies --   1144.1962              1146.5506              1155.5238
 Red. masses --      2.1596                 1.7523                 1.8667
 Frc consts  --      1.6658                 1.3572                 1.4685
 IR Inten    --     54.0090                 0.0009                11.6452

                     40                     41                     42
                      A                      A                      A
 Frequencies --   1163.3628              1212.4681              1227.9724
 Red. masses --      1.9208                 5.4868                 3.2137
 Frc consts  --      1.5316                 4.7524                 2.8552
 IR Inten    --      0.0000               107.7197               141.3570

                     43                     44                     45
                      A                      A                      A
 Frequencies --   1230.5780              1244.7123              1287.1572
 Red. masses --      2.7077                 1.5913                 1.2718
 Frc consts  --      2.4159                 1.4526                 1.2414
 IR Inten    --      0.0010                 0.0000               124.7040

                     46                     47                     48
                      A                      A                      A
 Frequencies --   1287.9870              1295.6162              1355.8588
 Red. masses --      1.1370                 1.5597                 1.6887
 Frc consts  --      1.1113                 1.5426                 1.8291
 IR Inten    --      0.0001                49.4526                 0.0000

                     49                     50                     51
                      A                      A                      A
 Frequencies --   1382.1107              1399.3601              1406.1692
 Red. masses --      1.3290                 1.3658                 1.3454
 Frc consts  --      1.4958                 1.5758                 1.5674
 IR Inten    --     19.0425                 0.0000                62.1051

                     52                     53                     54
                      A                      A                      A
 Frequencies --   1417.8953              1485.3742              1486.4649
 Red. masses --      1.9646                 1.1074                 1.1376
 Frc consts  --      2.3271                 1.4396                 1.4810
 IR Inten    --      0.0000               117.6747                 0.0003

                     55                     56                     57
                      A                      A                      A
 Frequencies --   1493.0209              1494.2724              1501.9025
 Red. masses --      3.4253                 1.2756                 1.1387
 Frc consts  --      4.4987                 1.6782                 1.5133
 IR Inten    --      0.0002               352.6120                 0.0000

                     58                     59                     60
                      A                      A                      A
 Frequencies --   1507.7015              1517.6988              1523.0100
 Red. masses --      1.3176                 2.0661                 1.1025
 Frc consts  --      1.7647                 2.8040                 1.5067
 IR Inten    --    285.2252               122.8885                 0.0002

                     61                     62                     63
                      A                      A                      A
 Frequencies --   1526.7153              1543.1716              1551.8922
 Red. masses --      1.7531                 2.1653                 3.8629
 Frc consts  --      2.4075                 3.0380                 5.4813
 IR Inten    --    114.4254                 0.0001               489.8496

                     64                     65                     66
                      A                      A                      A
 Frequencies --   1632.9752              2903.9101              2904.6892
 Red. masses --      6.9401                 1.0760                 1.0761
 Frc consts  --     10.9037                 5.3459                 5.3492
 IR Inten    --      0.0000               267.7827                 0.0185

                     67                     68                     69
                      A                      A                      A
 Frequencies --   3008.2810              3008.3719              3014.1390
 Red. masses --      1.0818                 1.0820                 1.0364
 Frc consts  --      5.7682                 5.7697                 5.5476
 IR Inten    --     52.4114                 4.9292               106.4551

                     70                     71                     72
                      A                      A                      A
 Frequencies --   3014.2882              3072.9011              3072.9150
 Red. masses --      1.0361                 1.1008                 1.1008
 Frc consts  --      5.5465                 6.1244                 6.1243
 IR Inten    --      0.0007               107.1330                 3.9025

                     73                     74                     75
                      A                      A                      A
 Frequencies --   3083.0092              3083.0261              3155.8791
 Red. masses --      1.1018                 1.1018                 1.0881
 Frc consts  --      6.1701                 6.1702                 6.3847
 IR Inten    --      0.6443                88.2521                63.9274

                     76                     77                     78
                      A                      A                      A
 Frequencies --   3158.3542              3484.0246              3484.5088
 Red. masses --      1.0885                 1.0745                 1.0747
 Frc consts  --      6.3974                 7.6848                 7.6880
 IR Inten    --      0.0001                 0.3641                83.5055

 - Thermochemistry -
 -------------------
 Temperature   298.150 Kelvin.  Pressure   1.00000 Atm.
 Atom     1 has atomic number  6 and mass  12.00000

 Molecular mass:   194.10553 amu.
 Principal axes and moments of inertia in atomic units:
                           1         2         3
     Eigenvalues --  1108.068975644.419676685.20947
           X            0.82030   0.47052  -0.32514
           Y            0.00335   0.56454   0.82540
           Z           -0.57192   0.67817  -0.46152
 This molecule is an asymmetric top.
 Rotational symmetry number  1.
 Warning -- assumption of classical behavior for rotation
           may cause significant error
 Rotational temperatures (Kelvin)      0.07817     0.01535     0.01296
 Rotational constants (GHZ):           1.62873     0.31974     0.26996
 Zero-point vibrational energy     601283.0 (Joules/Mol)
                                  143.71008 (Kcal/Mol)
 Warning -- explicit consideration of  20 degrees of freedom as
           vibrations may cause significant error
 Vibrational temperatures:     49.67    89.30    98.06   129.03   133.77
          (Kelvin)            191.67   195.81   289.59   355.75   371.38
                              372.34   383.25   462.24   505.97   516.02
                              632.29   641.63   690.40   698.06   806.41
                              942.90   951.99   986.01  1051.60  1052.00
                             1087.06  1124.42  1160.91  1170.88  1180.11
                             1196.24  1299.83  1326.99  1347.24  1525.65
                             1538.51  1646.24  1649.63  1662.54  1673.82
                             1744.47  1766.78  1770.53  1790.86  1851.93
                             1853.13  1864.10  1950.78  1988.55  2013.37
                             2023.16  2040.04  2137.12  2138.69  2148.12
                             2149.92  2160.90  2169.25  2183.63  2191.27
                             2196.60  2220.28  2232.83  2349.49  4178.08
                             4179.20  4328.25  4328.38  4336.67  4336.89
                             4421.22  4421.24  4435.76  4435.79  4540.61
                             4544.17  5012.73  5013.43

 Zero-point correction=                           0.229017 (Hartree/Particle)
 Thermal correction to Energy=                    0.243461
 Thermal correction to Enthalpy=                  0.244405
 Thermal correction to Gibbs Free Energy=         0.186272
 Sum of electronic and zero-point Energies=           -649.459091
 Sum of electronic and thermal Energies=              -649.444647
 Sum of electronic and thermal Enthalpies=            -649.443703
 Sum of electronic and thermal Free Energies=         -649.501835

                     E (Thermal)             CV                S
                      KCal/Mol        Cal/Mol-Kelvin    Cal/Mol-Kelvin
 Total                  152.774             53.383            122.350
 Electronic               0.000              0.000              1.377
 Translational            0.889              2.981             41.695
 Rotational               0.889              2.981             32.103
 Vibrational            150.996             47.421             47.174
 Vibration     1          0.594              1.983              5.551
 Vibration     2          0.597              1.972              4.390
 Vibration     3          0.598              1.969              4.206
 Vibration     4          0.602              1.956              3.667
 Vibration     5          0.602              1.954              3.596
 Vibration     6          0.613              1.920              2.899
 Vibration     7          0.614              1.917              2.858
 Vibration     8          0.638              1.838              2.121
 Vibration     9          0.661              1.767              1.750
 Vibration    10          0.667              1.749              1.674
 Vibration    11          0.668              1.748              1.670
 Vibration    12          0.672              1.735              1.620
 Vibration    13          0.707              1.633              1.304
 Vibration    14          0.728              1.572              1.159
 Vibration    15          0.733              1.557              1.128
 Vibration    16          0.799              1.384              0.828
 Vibration    17          0.805              1.370              0.808
 Vibration    18          0.836              1.295              0.710
 Vibration    19          0.841              1.283              0.696
 Vibration    20          0.916              1.117              0.523

 Optimization completed.
    -- Stationary point found.
 Normal termination of Gaussian 16 at Wed Dec 20 02:44:45 2023.
