 Gaussian 16, Revision A.03,
 Gaussian 16:  ES64L-G16RevA.03 25-Dec-2016

 ----------------------------------------------------------------
 #P UB3LYP/6-311++G(d,p) SCRF=(PCM,Solvent=n,n-DiMethylFormamide)
 ----------------------------------------------------------------

 ------------------
 Radical PCM in DMF
 ------------------
 Symbolic Z-matrix:
 Charge = -1 Multiplicity = 2

                         Standard orientation:
 ---------------------------------------------------------------------
 Center     Atomic      Atomic             Coordinates (Angstroms)
 Number     Number       Type             X           Y           Z
 ---------------------------------------------------------------------
      1          6           0       -1.982517    2.045608   -0.021194
      2          6           0       -3.317242    1.739582   -0.159849
      3          6           0       -3.684138    0.380801   -0.293657
      4          6           0       -0.992309    1.037917   -0.008349
      5          6           0       -1.384005   -0.325436   -0.147598
      6          6           0       -2.749033   -0.634867   -0.289163
      7          6           0        0.411328    1.425118    0.146509
      8          6           0        1.383999    0.325482    0.147592
      9          6           0        0.992306   -1.037869    0.008326
     10          6           0       -0.411336   -1.425072   -0.146511
     11          6           0        2.749025    0.634913    0.289169
     12          6           0        1.982516   -2.045558    0.021131
     13          6           0        3.317242   -1.739533    0.159786
     14          8           0        0.760124    2.618693    0.268050
     15          8           0       -0.760126   -2.618646   -0.268057
     16          1           0       -1.651900    3.072250    0.079852
     17          1           0       -4.076728    2.510220   -0.181743
     18         16           0       -5.401068   -0.027846   -0.438711
     19          1           0        4.076725   -2.510174    0.181638
     20          1           0       -3.034479   -1.673531   -0.398400
     21          1           0        3.034470    1.673573    0.398447
     22          1           0        1.651902   -3.072199   -0.079931
     23          6           0        3.684129   -0.380756    0.293640
     24         16           0        5.401059    0.027883    0.438720
     25          8           0        5.593025    1.344784    1.040109
     26          8           0        6.159492   -1.107130    0.964941
     27          8           0        5.767625    0.158342   -1.177029
     28          6           0        7.127849    0.525188   -1.470122
     29          1           0        7.361576    1.505210   -1.047347
     30          1           0        7.184837    0.566056   -2.556889
     31          1           0        7.821666   -0.228116   -1.088339
     32          8           0       -5.593081   -1.344824   -1.039921
     33          8           0       -6.159523    1.107103   -0.965033
     34          8           0       -5.767657   -0.158138    1.177038
     35          6           0       -7.127714   -0.525603    1.470146
     36          1           0       -7.361010   -1.505715    1.047350
     37          1           0       -7.821880    0.227400    1.088399
     38          1           0       -7.184667   -0.566526    2.556913
 ---------------------------------------------------------------------

 SCF Done:  E(UB3LYP) =  -2015.52025139     A.U. after   20 cycles

 The electronic state is 2-A.
 Alpha  occ. eigenvalues --  -89.09281 -89.09281 -19.17898 -19.17897 -19.14223
 Alpha  occ. eigenvalues --  -19.14223 -19.14113 -19.14113 -19.09401 -19.09400
 Alpha  occ. eigenvalues --  -10.24387 -10.24386 -10.23171 -10.23171 -10.22797
 Alpha  occ. eigenvalues --  -10.22797 -10.20489 -10.20489 -10.20116 -10.20116
 Alpha  occ. eigenvalues --  -10.19651 -10.19650 -10.19600 -10.19599 -10.19113
 Alpha  occ. eigenvalues --  -10.19113  -8.15392  -8.15392  -6.11760  -6.11759
 Alpha  occ. eigenvalues --   -6.11598  -6.11598  -6.11440  -6.11440  -1.15962
 Alpha  occ. eigenvalues --   -1.15962  -1.05052  -1.05052  -1.03372  -1.03371
 Alpha  occ. eigenvalues --   -1.02440  -1.02191  -0.89191  -0.88555  -0.82468
 Alpha  occ. eigenvalues --   -0.79657  -0.78169  -0.77588  -0.74687  -0.73650
 Alpha  occ. eigenvalues --   -0.69457  -0.68499  -0.65469  -0.64653  -0.61242
 Alpha  occ. eigenvalues --   -0.61042  -0.58181  -0.57418  -0.55600  -0.55153
 Alpha  occ. eigenvalues --   -0.53161  -0.52515  -0.50595  -0.50282  -0.49320
 Alpha  occ. eigenvalues --   -0.49036  -0.48492  -0.46981  -0.46258  -0.46153
 Alpha  occ. eigenvalues --   -0.45987  -0.45216  -0.44960  -0.44503  -0.44061
 Alpha  occ. eigenvalues --   -0.43328  -0.43156  -0.41871  -0.41257  -0.41058
 Alpha  occ. eigenvalues --   -0.39876  -0.39570  -0.38909  -0.38092  -0.36871
 Alpha  occ. eigenvalues --   -0.36213  -0.35900  -0.35860  -0.35624  -0.35438
 Alpha  occ. eigenvalues --   -0.34197  -0.34158  -0.33745  -0.33744  -0.30767
 Alpha  occ. eigenvalues --   -0.30766  -0.29149  -0.28298  -0.28140  -0.27529
 Alpha  occ. eigenvalues --   -0.26396  -0.25510  -0.16186
 Alpha virt. eigenvalues --   -0.08524  -0.05655  -0.03672  -0.00961  -0.00532
 Alpha virt. eigenvalues --   -0.00076   0.00936   0.01026   0.01445   0.01931
 Alpha virt. eigenvalues --    0.02320   0.02806   0.03093   0.03272   0.03512

  Beta  occ. eigenvalues --  -89.09281 -89.09281 -19.17893 -19.17892 -19.14217
  Beta  occ. eigenvalues --  -19.14217 -19.14112 -19.14112 -19.08830 -19.08830
  Beta  occ. eigenvalues --  -10.24259 -10.24258 -10.23169 -10.23169 -10.22753
  Beta  occ. eigenvalues --  -10.22753 -10.20514 -10.20513 -10.20027 -10.20027
  Beta  occ. eigenvalues --  -10.19575 -10.19574 -10.19479 -10.19479 -10.19131
  Beta  occ. eigenvalues --  -10.19131  -8.15391  -8.15391  -6.11756  -6.11756
  Beta  occ. eigenvalues --   -6.11597  -6.11597  -6.11441  -6.11441  -1.15952
  Beta  occ. eigenvalues --   -1.15952  -1.05042  -1.05042  -1.03366  -1.03365
  Beta  occ. eigenvalues --   -1.01468  -1.01193  -0.88960  -0.88438  -0.82091
  Beta  occ. eigenvalues --   -0.79502  -0.78026  -0.77367  -0.74613  -0.73517
  Beta  occ. eigenvalues --   -0.68851  -0.68389  -0.65269  -0.64494  -0.61187
  Beta  occ. eigenvalues --   -0.60943  -0.57996  -0.57347  -0.55422  -0.55044
  Beta  occ. eigenvalues --   -0.53120  -0.52463  -0.50492  -0.50218  -0.49261
  Beta  occ. eigenvalues --   -0.48800  -0.48415  -0.46940  -0.46226  -0.46134
  Beta  occ. eigenvalues --   -0.45953  -0.45192  -0.44932  -0.44328  -0.43055
  Beta  occ. eigenvalues --   -0.42956  -0.42723  -0.41581  -0.41232  -0.41007
  Beta  occ. eigenvalues --   -0.39324  -0.38696  -0.38028  -0.37565  -0.36077
  Beta  occ. eigenvalues --   -0.35936  -0.35852  -0.35817  -0.35610  -0.35392
  Beta  occ. eigenvalues --   -0.34191  -0.34150  -0.33684  -0.33518  -0.30756
  Beta  occ. eigenvalues --   -0.30755  -0.28054  -0.27364  -0.26822  -0.26775
  Beta  occ. eigenvalues --   -0.25867  -0.24979
  Beta virt. eigenvalues --   -0.10394  -0.07723  -0.04573  -0.03426  -0.00939
  Beta virt. eigenvalues --   -0.00522   0.00320   0.01042   0.01057   0.01486
  Beta virt. eigenvalues --    0.01967   0.02377   0.02837   0.03123   0.03322

 Mulliken charges and spin densities:
               1          2
     1  C   -0.003680   0.006749
     2  C   -0.344794   0.073748
     3  C   -0.939067   0.019316
     4  C    0.645541   0.073119
     5  C    0.228432   0.045055
     6  C    0.132147  -0.001242
     7  C   -0.642775   0.071245
     8  C    0.228421   0.045052
     9  C    0.645612   0.073113
    10  C   -0.642799   0.071242
    11  C    0.132165  -0.001237
    12  C   -0.003615   0.006748
    13  C   -0.344796   0.073745
    14  O   -0.395721   0.211858
    15  O   -0.395716   0.211854
    16  H    0.177474  -0.000591
    17  H    0.240325  -0.004779
    18  S    0.298771   0.003786
    19  H    0.240323  -0.004779
    20  H    0.225554  -0.000273
    21  H    0.225558  -0.000273
    22  H    0.177474  -0.000591
    23  C   -0.939207   0.019313
    24  S    0.298766   0.003785
    25  O   -0.225379   0.002294
    26  O   -0.223120  -0.001450
    27  O   -0.070197   0.000167
    28  C   -0.137371   0.000752
    29  H    0.173486   0.000034
    30  H    0.188011   0.000197
    31  H    0.172404   0.000025
    32  O   -0.225475   0.002294
    33  O   -0.223052  -0.001450
    34  O   -0.070222   0.000167
    35  C   -0.137380   0.000751
    36  H    0.173486   0.000035
    37  H    0.172408   0.000025
    38  H    0.188007   0.000197
 Sum of Mulliken charges =  -1.00000   1.00000

 Dipole moment (field-independent basis, Debye):
    X=              0.0008    Y=             -0.0010    Z=             -0.0002  Tot=              0.0013
 Quadrupole moment (field-independent basis, Debye-Ang):
   XX=           -216.2284   YY=           -196.8022   ZZ=           -172.0648
   XY=             -6.5432   XZ=            -46.3209   YZ=             -6.0376

 Normal termination of Gaussian 16 at Tue Jan 16 06:10:44 2024.
