 Q-Chem 5.4, Q-Chem, Inc., Pleasanton, CA (2021)
 Q-Chem 5.4.0 for Intel X86 EM64T Linux

User input:
--------------------------------------------------------------
$molecule
-1 2
C                  5.1121880000     -2.7872560000      0.1556630000
C                  5.9134520000     -2.1633190000     -0.7733400000
C                  5.3085930000     -1.2790240000     -1.6958210000
C                  3.7188190000     -2.5578580000      0.2005830000
C                  3.1291960000     -1.6646110000     -0.7406930000
C                  3.9509410000     -1.0285090000     -1.6889540000
C                  2.9190280000     -3.2477360000      1.2147360000
C                  1.4788490000     -2.9632590000      1.1990350000
C                  0.8892230000     -2.0700260000      0.2577490000
C                  1.6890190000     -1.3801310000     -0.7563920000
C                  0.6571080000     -3.5993520000      2.1473040000
C                 -0.5041510000     -1.8406570000      0.3026420000
C                 -1.3054160000     -2.4645940000      1.2316460000
O                  3.4307140000     -4.0323420000      2.0415520000
O                  1.1773290000     -0.5955310000     -1.5832080000
H                  5.5286170000     -3.4767170000      0.8800540000
H                  6.9791960000     -2.3461290000     -0.8175000000
S                  6.3339580000     -0.4444750000     -2.8739710000
H                 -2.3711660000     -2.2818100000      1.2757730000
H                  3.4914900000     -0.3553170000     -2.4016620000
H                  1.1165620000     -4.2725130000      2.8600390000
H                 -0.9205840000     -1.1512090000     -0.4217580000
C                 -0.7005470000     -3.3488520000      2.1541530000
S                 -1.7259140000     -4.1833780000      3.3323170000
O                 -0.9556750000     -4.6523880000      4.4810160000
O                 -2.9594160000     -3.4325310000      3.5670210000
O                 -2.1257430000     -5.5148840000      2.4216780000
C                 -2.9622460000     -6.4815890000      3.0823100000
H                 -2.4612130000     -6.8837900000      3.9660570000
H                 -3.1170590000     -7.2729930000      2.3503990000
H                 -3.9214830000     -6.0368960000      3.3592930000
O                  5.5637280000      0.0247240000     -4.0226010000
O                  7.5674230000     -1.1953440000     -3.1087880000
O                  6.7339110000      0.8869380000     -1.9632650000
C                  7.5698940000      1.8539650000     -2.6240900000
H                  7.0684730000      2.2560350000     -3.5076740000
H                  8.5292090000      1.4096200000     -2.9013680000
H                  7.7246450000      2.6453880000     -1.8921870000
$end
$rem
MAX_SCF_CYCLES=200
BASIS  =  6-311++G(d,p)
GUI  =  2
JOB_TYPE  =  SP
METHOD  =  B3LYP
SOLVENT_METHOD = PCM
$end
$pcm
theory = CPCM
$end
$solvent
dielectric 37.219
opticaldielectric 1.43
$end

--------------------------------------------------------------

             Standard Nuclear Orientation (Angstroms)
    I     Atom           X                Y                Z
 ----------------------------------------------------------------
    1      C       5.1121880000    -2.7872560000     0.1556630000
    2      C       5.9134520000    -2.1633190000    -0.7733400000
    3      C       5.3085930000    -1.2790240000    -1.6958210000
    4      C       3.7188190000    -2.5578580000     0.2005830000
    5      C       3.1291960000    -1.6646110000    -0.7406930000
    6      C       3.9509410000    -1.0285090000    -1.6889540000
    7      C       2.9190280000    -3.2477360000     1.2147360000
    8      C       1.4788490000    -2.9632590000     1.1990350000
    9      C       0.8892230000    -2.0700260000     0.2577490000
   10      C       1.6890190000    -1.3801310000    -0.7563920000
   11      C       0.6571080000    -3.5993520000     2.1473040000
   12      C      -0.5041510000    -1.8406570000     0.3026420000
   13      C      -1.3054160000    -2.4645940000     1.2316460000
   14      O       3.4307140000    -4.0323420000     2.0415520000
   15      O       1.1773290000    -0.5955310000    -1.5832080000
   16      H       5.5286170000    -3.4767170000     0.8800540000
   17      H       6.9791960000    -2.3461290000    -0.8175000000
   18      S       6.3339580000    -0.4444750000    -2.8739710000
   19      H      -2.3711660000    -2.2818100000     1.2757730000
   20      H       3.4914900000    -0.3553170000    -2.4016620000
   21      H       1.1165620000    -4.2725130000     2.8600390000
   22      H      -0.9205840000    -1.1512090000    -0.4217580000
   23      C      -0.7005470000    -3.3488520000     2.1541530000
   24      S      -1.7259140000    -4.1833780000     3.3323170000
   25      O      -0.9556750000    -4.6523880000     4.4810160000
   26      O      -2.9594160000    -3.4325310000     3.5670210000
   27      O      -2.1257430000    -5.5148840000     2.4216780000
   28      C      -2.9622460000    -6.4815890000     3.0823100000
   29      H      -2.4612130000    -6.8837900000     3.9660570000
   30      H      -3.1170590000    -7.2729930000     2.3503990000
   31      H      -3.9214830000    -6.0368960000     3.3592930000
   32      O       5.5637280000     0.0247240000    -4.0226010000
   33      O       7.5674230000    -1.1953440000    -3.1087880000
   34      O       6.7339110000     0.8869380000    -1.9632650000
   35      C       7.5698940000     1.8539650000    -2.6240900000
   36      H       7.0684730000     2.2560350000    -3.5076740000
   37      H       8.5292090000     1.4096200000    -2.9013680000
   38      H       7.7246450000     2.6453880000    -1.8921870000
 ----------------------------------------------------------------

    8   -2015.5276985549      6.30e-06  Convergence criterion met
 Total energy in the final basis set =    -2015.5276985549

                    Orbital Energies (a.u.)
 --------------------------------------------------------------

 Alpha MOs
 -- Occupied --
-89.0929 -89.0929 -19.1781 -19.1781 -19.1425 -19.1425 -19.1413 -19.1413
-19.0946 -19.0946 -10.2452 -10.2451 -10.2273 -10.2273 -10.2271 -10.2271
-10.2039 -10.2039 -10.1994 -10.1994 -10.1964 -10.1964 -10.1959 -10.1959
-10.1900 -10.1900  -8.1540  -8.1540  -6.1176  -6.1176  -6.1161  -6.1161
 -6.1144  -6.1144  -1.1596  -1.1596  -1.0497  -1.0497  -1.0342  -1.0341
 -1.0253  -1.0229  -0.8913  -0.8848  -0.8243  -0.7959  -0.7808  -0.7751
 -0.7452  -0.7346  -0.6939  -0.6833  -0.6537  -0.6454  -0.6113  -0.6095
 -0.5811  -0.5732  -0.5550  -0.5508  -0.5315  -0.5251  -0.5059  -0.5024
 -0.4928  -0.4897  -0.4836  -0.4677  -0.4608  -0.4598  -0.4577  -0.4508
 -0.4482  -0.4445  -0.4405  -0.4333  -0.4325  -0.4180  -0.4111  -0.4093
 -0.3996  -0.3952  -0.3887  -0.3797  -0.3682  -0.3616  -0.3583  -0.3579
 -0.3558  -0.3539  -0.3424  -0.3419  -0.3371  -0.3371  -0.3072  -0.3071
 -0.2914  -0.2822  -0.2810  -0.2746  -0.2651  -0.2561  -0.1620

 Beta MOs
 -- Occupied --
-89.0929 -89.0929 -19.1781 -19.1781 -19.1425 -19.1425 -19.1413 -19.1413
-19.0894 -19.0894 -10.2437 -10.2436 -10.2273 -10.2273 -10.2266 -10.2266
-10.2041 -10.2041 -10.1986 -10.1986 -10.1957 -10.1957 -10.1948 -10.1948
-10.1901 -10.1901  -8.1540  -8.1540  -6.1176  -6.1176  -6.1161  -6.1161
 -6.1144  -6.1144  -1.1595  -1.1595  -1.0496  -1.0496  -1.0341  -1.0341
 -1.0161  -1.0135  -0.8890  -0.8836  -0.8206  -0.7943  -0.7793  -0.7729
 -0.7444  -0.7332  -0.6878  -0.6822  -0.6517  -0.6438  -0.6107  -0.6085
 -0.5792  -0.5725  -0.5532  -0.5497  -0.5311  -0.5245  -0.5049  -0.5017
 -0.4921  -0.4874  -0.4828  -0.4673  -0.4606  -0.4596  -0.4573  -0.4505
 -0.4479  -0.4424  -0.4307  -0.4295  -0.4280  -0.4156  -0.4108  -0.4089
 -0.3927  -0.3865  -0.3790  -0.3769  -0.3603  -0.3588  -0.3579  -0.3575
 -0.3557  -0.3534  -0.3423  -0.3419  -0.3365  -0.3350  -0.3071  -0.3070
 -0.2797  -0.2733  -0.2692  -0.2672  -0.2603  -0.2512

          Ground-State Mulliken Net Atomic Charges

     Atom                 Charge (a.u.)    Spin (a.u.)
  --------------------------------------------------------
      1 C                     0.001116       0.010514
      2 C                    -0.328188       0.072665
      3 C                    -1.046752       0.019485
      4 C                     0.626442       0.068599
      5 C                     0.218606       0.043353
      6 C                     0.159449       0.000323
      7 C                    -0.599232       0.082155
      8 C                     0.218849       0.043311
      9 C                     0.625400       0.068623
     10 C                    -0.598955       0.082140
     11 C                     0.160366       0.000322
     12 C                     0.000269       0.010523
     13 C                    -0.329024       0.072664
     14 O                    -0.414241       0.203046
     15 O                    -0.414225       0.203042
     16 H                     0.186817      -0.000843
     17 H                     0.258579      -0.004544
     18 S                     0.311988       0.003598
     19 H                     0.258601      -0.004542
     20 H                     0.236089      -0.000355
     21 H                     0.236065      -0.000355
     22 H                     0.186828      -0.000843
     23 C                    -1.046148       0.019485
     24 S                     0.312438       0.003593
     25 O                    -0.234769       0.002318
     26 O                    -0.232724      -0.001384
     27 O                    -0.060142      -0.000005
     28 C                    -0.139709       0.000911
     29 H                     0.179820       0.000013
     30 H                     0.198542       0.000176
     31 H                     0.178279      -0.000009
     32 O                    -0.234862       0.002318
     33 O                    -0.232634      -0.001384
     34 O                    -0.060083      -0.000006
     35 C                    -0.139615       0.000911
     36 H                     0.179815       0.000013
     37 H                     0.178273      -0.000009
     38 H                     0.198532       0.000176
  --------------------------------------------------------
  Sum of atomic charges =    -1.000140

                    Cartesian Multipole Moments
 -----------------------------------------------------------------
    Charge (ESU x 10^10)
                -4.8039
    Dipole Moment (Debye)
         X     -11.0695      Y      11.1159      Z      -1.1011
       Tot      15.7260
    Quadrupole Moments (Debye-Ang)
        XX    -216.8246     XY      46.0132     YY    -186.0807
        XZ      26.1525     YZ      19.4926     ZZ    -231.5314

 Total job time:  149.91s(wall), 877.79s(cpu)
        *  Thank you very much for using Q-Chem.  Have a nice day.  *
