 Q-Chem 5.4, Q-Chem, Inc., Pleasanton, CA (2021)
 Q-Chem 5.4.0 for Intel X86 EM64T Linux

User input:
--------------------------------------------------------------
$molecule
-1 2
C                 -4.8362490000      1.1305840000     -1.5752710000
C                 -3.6031500000      0.6158390000     -0.8712580000
C                 -3.7295190000     -0.2290730000      0.2546280000
C                 -2.6363450000     -0.7324670000      0.9411860000
C                 -2.9041510000     -1.6271070000      2.1310560000
C                 -1.3161810000     -0.3891320000      0.5009260000
C                 -0.1186620000     -0.8843530000      1.1780640000
O                 -0.1676550000     -1.6393950000      2.1847650000
C                  1.1818140000     -0.4640730000      0.6352640000
C                  2.3341500000     -0.9456810000      1.2942790000
C                  3.6031650000     -0.6155610000      0.8714270000
C                  4.8362620000     -1.1298920000      1.5757840000
C                  3.7295260000      0.2291980000     -0.2545340000
C                  2.6363230000      0.7322750000     -0.9413250000
C                  2.9041330000      1.6267610000     -2.1313150000
C                  1.3162100000      0.3887700000     -0.5011770000
C                  0.1186650000      0.8837910000     -1.1784730000
O                  0.1676970000      1.6384980000     -2.1854110000
C                 -1.1817940000      0.4637770000     -0.6354610000
C                 -2.3341380000      0.9456950000     -1.2942680000
H                 -5.4544880000      0.3085910000     -1.9565770000
H                 -5.4694130000      1.7186570000     -0.8995830000
H                 -4.5678900000      1.7677400000     -2.4214820000
H                 -4.7260430000     -0.4975010000      0.5993550000
H                 -2.4509310000     -2.6120160000      2.0039950000
H                 -2.4643720000     -1.2236400000      3.0450360000
H                 -3.9849370000     -1.7414260000      2.2694420000
H                  2.1745220000     -1.5896950000      2.1516230000
H                  5.4701810000     -1.7171180000      0.9000740000
H                  4.5678620000     -1.7677270000      2.4214640000
H                  5.4537220000     -0.3076990000      1.9579260000
H                  4.7260330000      0.4977990000     -0.5991780000
H                  3.9849110000      1.7414600000     -2.2694170000
H                  2.4504530000      2.6115050000     -2.0046440000
H                  2.4647860000      1.2228800000     -3.0453280000
H                 -2.1744980000      1.5897370000     -2.1515900000
$end
$rem
MAX_SCF_CYCLES=200
BASIS  =  6-311++G(d,p)
GUI  =  2
JOB_TYPE  =  SP
METHOD  =  B3LYP
SOLVENT_METHOD = COSMO
$end
$solvent
dielectric 37.219
opticaldielectric 1.43
$end

--------------------------------------------------------------

             Standard Nuclear Orientation (Angstroms)
    I     Atom           X                Y                Z
 ----------------------------------------------------------------
    1      C       4.9916929802    -1.4940028185     0.0003566814
    2      C       3.6848520331    -0.7368392946     0.0003428150
    3      C       3.6836158343     0.6764770777     0.0003205019
    4      C       2.5180107648     1.4255842573     0.0000829343
    5      C       2.6503254846     2.9323636491    -0.0001988602
    6      C       1.2535936191     0.7504620203    -0.0000701998
    7      C      -0.0148109564     1.4777592458    -0.0002794288
    8      O      -0.0796310694     2.7354292937    -0.0004862986
    9      C      -1.2480472002     0.6767390829    -0.0001764740
   10      C      -2.4694086113     1.3855419887     0.0000158021
   11      C      -3.6848595353     0.7368038811     0.0001485643
   12      C      -4.9917053663     1.4939941293     0.0006722833
   13      C      -3.6836168528    -0.6764800531     0.0000035343
   14      C      -2.5179799850    -1.4255807226    -0.0001520463
   15      C      -2.6502967452    -2.9323640076    -0.0000654765
   16      C      -1.2536130644    -0.7504506853    -0.0002025334
   17      C       0.0148200939    -1.4777518677    -0.0002478773
   18      O       0.0796037385    -2.7354139712    -0.0004515217
   19      C       1.2480356866    -0.6767233733    -0.0000109893
   20      C       2.4694037442    -1.3855451786     0.0001695974
   21      H       5.5977461096    -1.2505609037    -0.8809615683
   22      H       5.5980424540    -1.2501372131     0.8813508128
   23      H       4.8200565032    -2.5731683381     0.0006375057
   24      H       4.6366620134     1.2015040674     0.0004574902
   25      H       2.1619596941     3.3789792820    -0.8683186305
   26      H       2.1609786067     3.3795269153     0.8670584695
   27      H       3.7105423701     3.2085119039     0.0002411168
   28      H      -2.4072408292     2.4678585006     0.0000218603
   29      H      -5.5987647670     1.2495365251    -0.8796634718
   30      H      -4.8200193438     2.5731462569    -0.0004699637
   31      H      -5.5970377355     1.2511689239     0.8826582987
   32      H      -4.6366442853    -1.2015428067     0.0000548981
   33      H      -3.7105095237    -3.2085124664    -0.0000310032
   34      H      -2.1614505850    -3.3791501398     0.8676922166
   35      H      -2.1613972217    -3.3793450873    -0.8676774768
   36      H       2.4072236442    -2.4678619868     0.0001990382
 ----------------------------------------------------------------

    9    -846.3165901096      6.38e-06  Convergence criterion met
 Total energy in the final basis set =     -846.3165901096
    4    -846.3957124300      5.35e-06  Convergence criterion met
 Total energy in the final basis set =     -846.3957124300

                    Orbital Energies (a.u.)
 --------------------------------------------------------------

 Alpha MOs
 -- Occupied --
-19.0701 -19.0700 -10.2208 -10.2208 -10.1805 -10.1804 -10.1756 -10.1756
-10.1690 -10.1690 -10.1670 -10.1670 -10.1604 -10.1604 -10.1592 -10.1592
-10.1570 -10.1570 -10.1508 -10.1508  -0.9998  -0.9974  -0.8593  -0.8521
 -0.7916  -0.7751  -0.7730  -0.7490  -0.6972  -0.6908  -0.6816  -0.6765
 -0.6382  -0.6184  -0.5867  -0.5581  -0.5359  -0.5279  -0.4982  -0.4756
 -0.4576  -0.4536  -0.4345  -0.4303  -0.4173  -0.4147  -0.4083  -0.4079
 -0.4079  -0.4058  -0.3997  -0.3977  -0.3877  -0.3866  -0.3831  -0.3723
 -0.3640  -0.3576  -0.3574  -0.3376  -0.3368  -0.3342  -0.3254  -0.3242
 -0.2576  -0.2455  -0.2420  -0.2385  -0.2356  -0.2293  -0.1360

 Beta MOs
 -- Occupied --
-19.0646 -19.0645 -10.2190 -10.2190 -10.1804 -10.1804 -10.1750 -10.1750
-10.1685 -10.1685 -10.1661 -10.1660 -10.1599 -10.1599 -10.1592 -10.1592
-10.1569 -10.1569 -10.1508 -10.1508  -0.9903  -0.9876  -0.8570  -0.8510
 -0.7881  -0.7737  -0.7718  -0.7473  -0.6961  -0.6863  -0.6810  -0.6760
 -0.6334  -0.6162  -0.5848  -0.5575  -0.5333  -0.5259  -0.4968  -0.4736
 -0.4559  -0.4528  -0.4326  -0.4239  -0.4159  -0.4109  -0.4067  -0.4066
 -0.4059  -0.4035  -0.3977  -0.3967  -0.3863  -0.3825  -0.3803  -0.3635
 -0.3567  -0.3562  -0.3518  -0.3362  -0.3338  -0.3326  -0.3242  -0.3125
 -0.2397  -0.2372  -0.2369  -0.2336  -0.2297  -0.2244

          Ground-State Mulliken Net Atomic Charges

     Atom                 Charge (a.u.)    Spin (a.u.)
  --------------------------------------------------------
      1 C                    -0.390904      -0.004382
      2 C                     0.486394       0.041264
      3 C                    -0.416985       0.044926
      4 C                     0.398466       0.017150
      5 C                    -0.561821       0.003444
      6 C                     0.232603       0.020484
      7 C                    -0.872692       0.096974
      8 O                    -0.458188       0.199043
      9 C                     0.118050       0.057362
     10 C                    -0.315728       0.023247
     11 C                     0.486739       0.041216
     12 C                    -0.391115      -0.004376
     13 C                    -0.416423       0.044949
     14 C                     0.398071       0.017116
     15 C                    -0.562014       0.003447
     16 C                     0.233110       0.020493
     17 C                    -0.872650       0.096984
     18 O                    -0.458236       0.199026
     19 C                     0.118252       0.057385
     20 C                    -0.315253       0.023192
     21 H                     0.171786       0.002851
     22 H                     0.171804       0.002849
     23 H                     0.166980       0.000148
     24 H                     0.136554      -0.003227
     25 H                     0.167409       0.000119
     26 H                     0.167704       0.000118
     27 H                     0.156400      -0.000466
     28 H                     0.141494      -0.001862
     29 H                     0.171718       0.002845
     30 H                     0.166914       0.000148
     31 H                     0.171887       0.002850
     32 H                     0.136596      -0.003228
     33 H                     0.156475      -0.000466
     34 H                     0.167720       0.000118
     35 H                     0.167393       0.000116
     36 H                     0.141486      -0.001858
  --------------------------------------------------------
  Sum of atomic charges =    -1.000004

                    Cartesian Multipole Moments
 -----------------------------------------------------------------
    Charge (ESU x 10^10)
                -4.8032
    Dipole Moment (Debye)
         X      -0.0007      Y      -0.0004      Z       0.0049
       Tot       0.0050
    Quadrupole Moments (Debye-Ang)
        XX    -111.6186     XY       1.3269     YY    -154.0368
        XZ      -0.0020     YZ      -0.0002     ZZ    -125.2380

 Total job time:  135.84s(wall), 1013.91s(cpu)
        *  Thank you very much for using Q-Chem.  Have a nice day.  *
