 Q-Chem 5.4, Q-Chem, Inc., Pleasanton, CA (2021)
 Q-Chem 5.4.0 for Intel X86 EM64T Linux

User input:
--------------------------------------------------------------
$molecule
-2 1
C                 -0.5643220000      1.2191720000     -0.2881880000
C                 -1.4454830000      0.1651040000     -0.7922810000
C                 -1.1525630000     -1.1737490000     -0.6558440000
C                  0.0353950000     -1.6962030000     -0.0119410000
C                  0.8866800000     -0.6865470000      0.4750290000
C                  0.6472700000      0.7350300000      0.3695260000
O                 -0.9032210000      2.4354360000     -0.4522660000
O                  0.2471820000     -2.9783620000      0.0808890000
C                  1.6197710000      1.6569220000      0.9219640000
C                  2.8774330000      1.0509640000      1.6036020000
O                  1.5727390000      2.9030560000      0.9188530000
H                  2.6136570000      0.4093810000      2.4527130000
H                  3.4875320000      1.8871580000      1.9543310000
H                  3.4632960000      0.4367260000      0.9095900000
H                  1.7886550000     -1.0394970000      0.9645990000
C                 -2.7094990000      0.6194220000     -1.4791890000
H                 -1.8474660000     -1.9192500000     -1.0517820000
H                 -3.3293210000      1.2345740000     -0.8117630000
H                 -3.2997200000     -0.2407260000     -1.8206080000
H                 -2.4874680000      1.2640510000     -2.3412610000
$end
$rem
MAX_SCF_CYCLES=200
BASIS  =  6-311++G(d,p)
GUI  =  2
JOB_TYPE  =  SP
METHOD  =  B3LYP
SOLVENT_METHOD = COSMO
$end
$solvent
dielectric 37.219
opticaldielectric 1.43
$end

--------------------------------------------------------------

             Standard Nuclear Orientation (Angstroms)
    I     Atom           X                Y                Z
 ----------------------------------------------------------------
    1      C      -0.2042113676    -1.1138253802     0.0001674529
    2      C      -1.6198733364    -0.7429953203    -0.0000891380
    3      C      -2.0424659886     0.5678669862    -0.0000635411
    4      C      -1.1614965121     1.7179566425     0.0001077628
    5      C       0.2016346442     1.3670939875     0.0002429776
    6      C       0.7200812261     0.0178192416     0.0002536298
    7      O       0.1087365277    -2.3479792820     0.0002063583
    8      O      -1.6331533065     2.9324288369     0.0001383282
    9      C       2.1550543446    -0.1863446824     0.0000538815
   10      C       3.0601599013     1.0763162765    -0.0005793609
   11      O       2.7680482410    -1.2723051187     0.0002707439
   12      H       2.8853883239     1.7047084327    -0.8819273105
   13      H       4.0964771227     0.7291873685    -0.0001736205
   14      H       2.8851092304     1.7059009370     0.8798505622
   15      H       0.8935927719     2.2031593424     0.0004876745
   16      C      -2.6109208455    -1.8804524215    -0.0003562564
   17      H      -3.1135339435     0.7875080782    -0.0002804989
   18      H      -2.4717851040    -2.5329043645    -0.8738529466
   19      H      -3.6410361060    -1.5014478136     0.0002774905
   20      H      -2.4710363883    -2.5338794489     0.8722707568
 ----------------------------------------------------------------

   12    -573.5693463451      4.08e-06  Convergence criterion met
 Total energy in the final basis set =     -573.5693463451
    6    -573.8697734810      4.87e-06  Convergence criterion met
 Total energy in the final basis set =     -573.8697734810

                    Orbital Energies (a.u.)
 --------------------------------------------------------------

 Alpha MOs
 -- Occupied --
-19.0725 -19.0368 -19.0246 -10.2257 -10.1929 -10.1761 -10.1452 -10.1437
-10.1433 -10.1380 -10.1376 -10.1225  -0.9975  -0.9564  -0.9338  -0.7931
 -0.7485  -0.7030  -0.6718  -0.6388  -0.5911  -0.5270  -0.4946  -0.4497
 -0.4418  -0.4271  -0.4145  -0.3975  -0.3942  -0.3876  -0.3699  -0.3677
 -0.3535  -0.3496  -0.3351  -0.3347  -0.3229  -0.3183  -0.2396  -0.2374
 -0.2213  -0.2069  -0.1932  -0.1335

          Ground-State Mulliken Net Atomic Charges

     Atom                 Charge (a.u.)
  ----------------------------------------
      1 C                    -1.390873
      2 C                     1.161490
      3 C                    -0.500478
      4 C                    -0.375686
      5 C                    -0.933159
      6 C                     1.768719
      7 O                    -0.607643
      8 O                    -0.789273
      9 C                    -0.139654
     10 C                    -0.511450
     11 O                    -0.495098
     12 H                     0.165143
     13 H                     0.173722
     14 H                     0.165254
     15 H                     0.133900
     16 C                    -0.414543
     17 H                     0.137290
     18 H                     0.155155
     19 H                     0.142184
     20 H                     0.154999
  ----------------------------------------
  Sum of atomic charges =    -2.000000

                    Cartesian Multipole Moments
 -----------------------------------------------------------------
    Charge (ESU x 10^10)
                -9.6064
    Dipole Moment (Debye)
         X       0.6467      Y      -1.0801      Z      -0.0017
       Tot       1.2589
    Quadrupole Moments (Debye-Ang)
        XX    -104.7702     XY      32.4450     YY    -138.5357
        XZ      -0.0021     YZ      -0.0011     ZZ     -78.1846

 Total job time:  24.17s(wall), 183.12s(cpu)
        *  Thank you very much for using Q-Chem.  Have a nice day.  *
