 Q-Chem 5.4, Q-Chem, Inc., Pleasanton, CA (2021)
 Q-Chem 5.4.0 for Intel X86 EM64T Linux

User input:
--------------------------------------------------------------
$molecule
-1 2
C                 -2.4328590000      0.4319480000      1.3320660000
C                 -3.6010730000      1.1657460000      1.3752950000
C                 -3.7679970000      2.3696070000      2.2741140000
C                 -4.7584530000      0.8003470000      0.5667980000
O                 -5.8496190000      1.4405520000      0.6175360000
C                 -4.6072730000     -0.3581850000     -0.3026470000
C                 -3.4351250000     -1.0756960000     -0.3590790000
O                 -3.3296620000     -2.1115670000     -1.2632690000
C                 -3.1176130000     -3.4001090000     -0.6933020000
C                 -2.2817620000     -0.7184310000      0.4529200000
O                 -1.1979990000     -1.3708250000      0.3847670000
O                 -5.6904300000     -0.7946380000     -1.0358870000
C                 -6.1513170000      0.1047990000     -2.0400680000
H                 -4.7265100000      2.8429460000      2.0586440000
H                 -2.9687410000      3.1051340000      2.1312590000
H                 -3.7613900000      2.0898380000      3.3356270000
H                 -3.9748650000     -3.6908880000     -0.0711110000
H                 -3.0354960000     -4.0959600000     -1.5318700000
H                 -2.1993030000     -3.4174580000     -0.1023900000
H                 -6.4474660000      1.0596650000     -1.6004350000
H                 -7.0148580000     -0.3747690000     -2.5074670000
H                 -5.3749960000      0.2615930000     -2.8011970000
C                 -1.2202570000      0.7859530000      2.1625340000
C                 -0.1872190000      1.6384510000      1.4001080000
C                  1.0628600000      1.9560360000      2.2279220000
C                  2.1032340000      2.7954090000      1.4772540000
C                  3.3570500000      3.1104180000      2.3015360000
C                  4.3979150000      3.9479330000      1.5495290000
C                  5.6516000000      4.2621390000      2.3740870000
C                  6.6926080000      5.0986450000      1.6216980000
C                  7.9461850000      5.4135270000      2.4459830000
C                  8.9802310000      6.2492040000      1.6851470000
H                 -0.7294850000     -0.1451250000      2.4634750000
H                 -1.5212160000      1.3140890000      3.0736460000
H                 -0.6569170000      2.5748280000      1.0727480000
H                  0.0995760000      1.0945030000      0.4946550000
H                  1.5253920000      1.0143640000      2.5518790000
H                  0.7694890000      2.4833550000      3.1466670000
H                  1.6408930000      3.7362230000      1.1498300000
H                  2.3961890000      2.2673020000      0.5606940000
H                  3.8191160000      2.1695740000      2.6286600000
H                  3.0636620000      3.6382820000      3.2189030000
H                  3.9361520000      4.8886430000      1.2216790000
H                  4.6914970000      3.4199740000      0.6328140000
H                  6.1131560000      3.3213810000      2.7020030000
H                  5.3580360000      4.7905480000      3.2908210000
H                  6.2320690000      6.0397510000      1.2929760000
H                  6.9875740000      4.5705790000      0.7052700000
H                  8.4070910000      4.4736400000      2.7740200000
H                  7.6522160000      5.9421190000      3.3612380000
H                  9.3197290000      5.7310830000      0.7823750000
H                  9.8611280000      6.4563350000      2.3002170000
H                  8.5591040000      7.2105790000      1.3734200000
$end
$rem
MAX_SCF_CYCLES=200
SCF_Guess=core
BASIS  =  6-311++G(d,p)
GUI  =  2
JOB_TYPE  =  SP
METHOD  =  B3LYP
THRESH = 14
SCF_CONVERGENCE = 8
SOLVENT_METHOD = COSMO
$end
$solvent
dielectric 37.219
opticaldielectric 1.43
$end

--------------------------------------------------------------

             Standard Nuclear Orientation (Angstroms)
    I     Atom           X                Y                Z
 ----------------------------------------------------------------
    1      C       2.2564864887     0.3227581058    -0.7866530053
    2      C       2.9612904175     1.4767370463    -0.5098205150
    3      C       2.4215476801     2.8516591097    -0.8312044302
    4      C       4.2895370356     1.4305121251     0.0904598120
    5      O       4.9655315622     2.4759637306     0.3209860939
    6      C       4.8181246775     0.1101643444     0.4039294888
    7      C       4.1052233985    -1.0374728935     0.1457859701
    8      O       4.6273966936    -2.2507678470     0.5419691789
    9      C       4.8936823226    -3.1736091889    -0.5104677393
   10      C       2.7834004740    -0.9945886019    -0.4609857824
   11      O       2.1224237196    -2.0527458481    -0.6805717002
   12      O       6.0978198785    -0.0002248692     0.9054826960
   13      C       6.2995799518     0.5677581225     2.1964015232
   14      H       3.1017984541     3.6028138728    -0.4284021124
   15      H       1.4240015082     3.0126079338    -0.4078667597
   16      H       2.3415575890     3.0153871657    -1.9137564631
   17      H       5.6614821038    -2.7740727983    -1.1867880978
   18      H       5.2770579457    -4.0791311955    -0.0338115386
   19      H       3.9822380410    -3.4019207100    -1.0671673052
   20      H       6.0662432816     1.6346644960     2.1924936701
   21      H       7.3552647865     0.4174105249     2.4353062746
   22      H       5.6868059178     0.0476904303     2.9451428583
   23      C       0.8804116271     0.3419574437    -1.4123123457
   24      C      -0.2600401429     0.2583785179    -0.3790659674
   25      C      -1.6529121968     0.2297647596    -1.0177540380
   26      C      -2.7963138749     0.1365433615    -0.0007142587
   27      C      -4.1907168387     0.1028043283    -0.6372895487
   28      C      -5.3335002691     0.0073688622     0.3801994952
   29      C      -6.7274905446    -0.0268506221    -0.2569563127
   30      C      -7.8698926722    -0.1233030910     0.7604636850
   31      C      -9.2640303001    -0.1570303712     0.1238362626
   32      C     -10.3983761641    -0.2539838009     1.1486962973
   33      H       0.7954264898    -0.5245813224    -2.0758008361
   34      H       0.7494273682     1.2427288525    -2.0214781883
   35      H      -0.1910814480     1.1095140373     0.3104234764
   36      H      -0.1107501662    -0.6463195061     0.2186044452
   37      H      -1.7126280603    -0.6234977074    -1.7062359350
   38      H      -1.7916420574     1.1291229497    -1.6343034019
   39      H      -2.7357566789     0.9877505620     0.6905713454
   40      H      -2.6572777323    -0.7624457244     0.6135246554
   41      H      -4.2509631955    -0.7484080570    -1.3283108100
   42      H      -4.3294142038     1.0020997100    -1.2523586433
   43      H      -5.2733295627     0.8580637182     1.0718234848
   44      H      -5.1950529076    -0.8918537325     0.9946330073
   45      H      -6.7874699709    -0.8774622325    -0.9486577046
   46      H      -6.8661522515     0.8727312852    -0.8712220883
   47      H      -7.8108129485     0.7268119566     1.4530305187
   48      H      -7.7326728438    -1.0231570010     1.3745748965
   49      H      -9.3238358881    -1.0065932065    -0.5676089394
   50      H      -9.4021417589     0.7423438675    -0.4890015579
   51      H     -10.3072680174    -1.1617883748     1.7539199814
   52      H     -11.3785166357    -0.2758138871     0.6628547759
   53      H     -10.3859784093     0.6000974175     1.8336452964
 ----------------------------------------------------------------

   34   -1043.3187578042      6.76e-09  Convergence criterion met
 Total energy in the final basis set =    -1043.3187578042
   13   -1043.4048246859      4.48e-09  Convergence criterion met
 Total energy in the final basis set =    -1043.4048246859

                    Orbital Energies (a.u.)
 --------------------------------------------------------------

 Alpha MOs
 -- Occupied --
-19.1352 -19.1349 -19.0770 -19.0758 -10.2200 -10.2187 -10.2133 -10.2127
-10.2023 -10.2023 -10.1665 -10.1630 -10.1576 -10.1553 -10.1551 -10.1549
-10.1547 -10.1545 -10.1544 -10.1541 -10.1539 -10.1512 -10.1504  -1.0600
 -1.0412  -0.9967  -0.9938  -0.8280  -0.8070  -0.7924  -0.7750  -0.7587
 -0.7335  -0.7090  -0.7002  -0.6903  -0.6629  -0.6427  -0.6327  -0.6006
 -0.5750  -0.5710  -0.5667  -0.5607  -0.5536  -0.5158  -0.4955  -0.4845
 -0.4796  -0.4663  -0.4646  -0.4454  -0.4434  -0.4380  -0.4335  -0.4311
 -0.4239  -0.4204  -0.4120  -0.4107  -0.4088  -0.4021  -0.3893  -0.3849
 -0.3825  -0.3798  -0.3692  -0.3676  -0.3626  -0.3549  -0.3505  -0.3455
 -0.3442  -0.3353  -0.3329  -0.3299  -0.3222  -0.3186  -0.3176  -0.3150
 -0.3141  -0.2970  -0.2895  -0.2857  -0.2643  -0.2393  -0.2361  -0.2227
 -0.1588

 Beta MOs
 -- Occupied --
-19.1350 -19.1348 -19.0705 -19.0694 -10.2181 -10.2169 -10.2124 -10.2117
-10.2023 -10.2022 -10.1655 -10.1620 -10.1576 -10.1553 -10.1551 -10.1549
-10.1547 -10.1546 -10.1544 -10.1540 -10.1538 -10.1512 -10.1505  -1.0589
 -1.0400  -0.9856  -0.9827  -0.8234  -0.8067  -0.7918  -0.7739  -0.7579
 -0.7324  -0.7059  -0.6992  -0.6892  -0.6610  -0.6368  -0.6317  -0.5999
 -0.5747  -0.5708  -0.5667  -0.5576  -0.5509  -0.5145  -0.4936  -0.4828
 -0.4795  -0.4644  -0.4627  -0.4443  -0.4417  -0.4368  -0.4317  -0.4303
 -0.4231  -0.4179  -0.4111  -0.4075  -0.4037  -0.3995  -0.3874  -0.3839
 -0.3808  -0.3707  -0.3664  -0.3616  -0.3571  -0.3505  -0.3446  -0.3413
 -0.3401  -0.3337  -0.3318  -0.3293  -0.3219  -0.3183  -0.3176  -0.3150
 -0.3139  -0.2965  -0.2866  -0.2816  -0.2389  -0.2341  -0.2303  -0.2167

          Ground-State Mulliken Net Atomic Charges

     Atom                 Charge (a.u.)    Spin (a.u.)
  --------------------------------------------------------
      1 C                     1.063408       0.076917
      2 C                     0.876675       0.080122
      3 C                    -0.608832      -0.000069
      4 C                    -0.501479       0.098664
      5 O                    -0.522440       0.235036
      6 C                    -0.142354       0.074132
      7 C                    -0.304087       0.080326
      8 O                    -0.214871       0.000233
      9 C                    -0.285834       0.002023
     10 C                    -0.660705       0.100835
     11 O                    -0.490859       0.236234
     12 O                    -0.205664       0.000501
     13 C                    -0.283882       0.002860
     14 H                     0.180003      -0.001635
     15 H                     0.168628       0.003149
     16 H                     0.185071       0.004712
     17 H                     0.146889       0.000785
     18 H                     0.166298       0.000426
     19 H                     0.175678      -0.000432
     20 H                     0.173511      -0.000573
     21 H                     0.172901       0.000697
     22 H                     0.146623       0.000490
     23 C                    -0.391127       0.005002
     24 C                    -0.926722      -0.002393
     25 C                    -0.276654       0.006385
     26 C                     0.015566      -0.004346
     27 C                     0.061084      -0.000088
     28 C                    -0.019021      -0.000143
     29 C                    -0.248967       0.000109
     30 C                    -0.458654       0.000016
     31 C                    -0.290747       0.000010
     32 C                    -0.711802      -0.000004
     33 H                     0.214434       0.002870
     34 H                     0.165026      -0.000023
     35 H                     0.140555      -0.000467
     36 H                     0.203456      -0.002281
     37 H                     0.130518       0.000068
     38 H                     0.118871      -0.000252
     39 H                     0.134092       0.000048
     40 H                     0.128541       0.000072
     41 H                     0.133855      -0.000009
     42 H                     0.136126      -0.000004
     43 H                     0.134036      -0.000003
     44 H                     0.135203       0.000004
     45 H                     0.131527       0.000003
     46 H                     0.131253      -0.000004
     47 H                     0.128756       0.000000
     48 H                     0.128756       0.000000
     49 H                     0.136204      -0.000000
     50 H                     0.136096       0.000000
     51 H                     0.145660      -0.000001
     52 H                     0.153913      -0.000000
     53 H                     0.145490       0.000000
  --------------------------------------------------------
  Sum of atomic charges =    -1.000000

                    Cartesian Multipole Moments
 -----------------------------------------------------------------
    Charge (ESU x 10^10)
                -4.8032
    Dipole Moment (Debye)
         X     -18.7138      Y       0.0601      Z       0.0271
       Tot      18.7139
    Quadrupole Moments (Debye-Ang)
        XX    -235.1976     XY     -17.0685     YY    -170.1769
        XZ      -0.4459     YZ      -0.2795     ZZ    -146.8147

 Total job time:  1505.95s(wall), 10357.55s(cpu)
        *  Thank you very much for using Q-Chem.  Have a nice day.  *
