 Q-Chem 5.4, Q-Chem, Inc., Pleasanton, CA (2021)
 Q-Chem 5.4.0 for Intel X86 EM64T Linux

User input:
--------------------------------------------------------------
$molecule
0 1
C                  5.7698950000     -5.2881140000      1.2474400000
C                  6.7434180000     -5.1503550000      0.2665560000
C                  6.6272840000     -4.1455210000     -0.6882900000
C                  4.6831330000     -4.4162820000      1.2658370000
C                  4.5592030000     -3.3922000000      0.2971990000
C                  5.5499990000     -3.2498890000     -0.7031830000
C                  3.6605350000     -4.6039800000      2.3419720000
C                  2.5083380000     -3.6784880000      2.3585640000
C                  2.3836170000     -2.7077280000      1.4468510000
C                  3.3752020000     -2.4861230000      0.3622040000
O                  3.7595570000     -5.4839480000      3.1823640000
O                  3.1814120000     -1.5747190000     -0.4294800000
H                  5.8300500000     -6.0590830000      2.0051970000
C                  5.5147300000     -2.1948080000     -1.7804600000
H                  7.5931080000     -5.8233030000      0.2429380000
H                  7.3926820000     -4.0456920000     -1.4503240000
H                  1.7821460000     -3.8370550000      3.1483530000
H                  1.5460570000     -2.0185220000      1.4423820000
H                  5.5012710000     -1.1882280000     -1.3579470000
H                  4.6133350000     -2.2730720000     -2.3913380000
H                  6.3893270000     -2.2953020000     -2.4261480000
$end
$rem
MAX_SCF_CYCLES=200
BASIS  =  6-311++G(d,p)
GUI  =  2
JOB_TYPE  =  SP
METHOD  =  B3LYP
SOLVENT_METHOD = PCM
$end
$pcm
theory = CPCM
$end
$solvent
dielectric 37.219
opticaldielectric 1.43
$end

--------------------------------------------------------------

             Standard Nuclear Orientation (Angstroms)
    I     Atom           X                Y                Z
 ----------------------------------------------------------------
    1      C       5.7698950000    -5.2881140000     1.2474400000
    2      C       6.7434180000    -5.1503550000     0.2665560000
    3      C       6.6272840000    -4.1455210000    -0.6882900000
    4      C       4.6831330000    -4.4162820000     1.2658370000
    5      C       4.5592030000    -3.3922000000     0.2971990000
    6      C       5.5499990000    -3.2498890000    -0.7031830000
    7      C       3.6605350000    -4.6039800000     2.3419720000
    8      C       2.5083380000    -3.6784880000     2.3585640000
    9      C       2.3836170000    -2.7077280000     1.4468510000
   10      C       3.3752020000    -2.4861230000     0.3622040000
   11      O       3.7595570000    -5.4839480000     3.1823640000
   12      O       3.1814120000    -1.5747190000    -0.4294800000
   13      H       5.8300500000    -6.0590830000     2.0051970000
   14      C       5.5147300000    -2.1948080000    -1.7804600000
   15      H       7.5931080000    -5.8233030000     0.2429380000
   16      H       7.3926820000    -4.0456920000    -1.4503240000
   17      H       1.7821460000    -3.8370550000     3.1483530000
   18      H       1.5460570000    -2.0185220000     1.4423820000
   19      H       5.5012710000    -1.1882280000    -1.3579470000
   20      H       4.6133350000    -2.2730720000    -2.3913380000
   21      H       6.3893270000    -2.2953020000    -2.4261480000
 ----------------------------------------------------------------

    9    -574.5948396057      1.72e-06  Convergence criterion met
 Total energy in the final basis set =     -574.5948396057

                    Orbital Energies (a.u.)
 --------------------------------------------------------------

 Alpha MOs
 -- Occupied --
-19.1366 -19.1345 -10.2845 -10.2841 -10.2114 -10.2096 -10.2087 -10.2080
-10.2074 -10.1949 -10.1935 -10.1917 -10.1670  -1.0697  -1.0672  -0.8899
 -0.8399  -0.7951  -0.7744  -0.7139  -0.6886  -0.6427  -0.6379  -0.5721
 -0.5379  -0.5326  -0.5065  -0.4859  -0.4651  -0.4580  -0.4558  -0.4341
 -0.4278  -0.4265  -0.4246  -0.4099  -0.3892  -0.3769  -0.3706  -0.3661
 -0.3088  -0.2876  -0.2799  -0.2750  -0.2684

          Ground-State Mulliken Net Atomic Charges

     Atom                 Charge (a.u.)
  ----------------------------------------
      1 C                     0.521102
      2 C                    -0.537503
      3 C                    -0.571976
      4 C                     0.218009
      5 C                     0.177177
      6 C                     0.787196
      7 C                    -0.390606
      8 C                     0.042290
      9 C                    -0.203618
     10 C                    -0.611609
     11 O                    -0.304204
     12 O                    -0.279932
     13 H                     0.193090
     14 C                    -0.474815
     15 H                     0.234810
     16 H                     0.172308
     17 H                     0.248874
     18 H                     0.251155
     19 H                     0.177265
     20 H                     0.177060
     21 H                     0.173924
  ----------------------------------------
  Sum of atomic charges =     0.000000

                    Cartesian Multipole Moments
 -----------------------------------------------------------------
    Charge (ESU x 10^10)
                 0.0000
    Dipole Moment (Debye)
         X       1.8895      Y      -0.0550      Z      -1.5657
       Tot       2.4545
    Quadrupole Moments (Debye-Ang)
        XX     -47.0450     XY     -10.1504     YY     -82.8810
        XZ     -13.4274     YZ      15.3729     ZZ     -82.1742

 Total job time:  34.28s(wall), 172.86s(cpu)
        *  Thank you very much for using Q-Chem.  Have a nice day.  *
