 Q-Chem 5.4, Q-Chem, Inc., Pleasanton, CA (2021)
 Q-Chem 5.4.0 for Intel X86 EM64T Linux

User input:
--------------------------------------------------------------
$molecule
0 1
C                  3.4507230000      5.4901110000     -0.2766330000
C                  2.2402640000      4.6117650000     -0.2056050000
C                  2.2562720000      3.5179100000      0.5874160000
C                  3.4601330000      3.2248750000      1.4266970000
C                  4.6807400000      4.0831090000      1.3300930000
C                  4.6700050000      5.1626560000      0.5185360000
O                  3.4408990000      6.4792340000     -0.9949960000
O                  3.4347780000      2.2757310000      2.1997990000
C                  5.8245630000      6.1051600000      0.3425820000
C                  5.8594900000      3.6765810000      2.1756220000
C                  1.0925900000      5.0522200000     -1.0682600000
C                  1.1195020000      2.5349570000      0.7242630000
C                  0.2963700000      2.7545210000      2.0040070000
C                 -0.9348940000      1.8613330000      2.0617800000
O                 -1.3851240000      1.2513060000      1.1334150000
O                 -1.5550880000      1.8076920000      3.2735500000
H                  6.6847400000      5.8152000000      0.9428130000
H                  5.5305640000      7.1233180000      0.6127870000
H                  6.1240220000      6.1478840000     -0.7084000000
H                  5.6212330000      2.7807110000      2.7457350000
H                  6.1355250000      4.4691920000      2.8768740000
H                  6.7357720000      3.4691300000      1.5549450000
H                  0.8529130000      6.0991270000     -0.8672670000
H                  0.1996540000      4.4498000000     -0.9173070000
H                  1.3721770000      5.0064280000     -2.1251270000
H                  1.5310360000      1.5241610000      0.7534820000
H                  0.4568990000      2.5826460000     -0.1374790000
H                 -0.0540820000      3.7928110000      2.0627400000
H                  0.9222880000      2.5788920000      2.8841110000
H                 -1.0626030000      2.3152690000      3.9301470000
$end

$rem
BASIS  =  6-311++G(d,p)
GUI  =  2
JOB_TYPE  =  SP
METHOD  =  B3LYP
SCF_CONVERGENCE  = 8
SOLVENT_METHOD = sm12
$end

$smx
solvent dimethylformamide
charges CM5
$end

--------------------------------------------------------------

             Standard Nuclear Orientation (Angstroms)
    I     Atom           X                Y                Z
 ----------------------------------------------------------------
    1      C       3.4507230000     5.4901110000    -0.2766330000
    2      C       2.2402640000     4.6117650000    -0.2056050000
    3      C       2.2562720000     3.5179100000     0.5874160000
    4      C       3.4601330000     3.2248750000     1.4266970000
    5      C       4.6807400000     4.0831090000     1.3300930000
    6      C       4.6700050000     5.1626560000     0.5185360000
    7      O       3.4408990000     6.4792340000    -0.9949960000
    8      O       3.4347780000     2.2757310000     2.1997990000
    9      C       5.8245630000     6.1051600000     0.3425820000
   10      C       5.8594900000     3.6765810000     2.1756220000
   11      C       1.0925900000     5.0522200000    -1.0682600000
   12      C       1.1195020000     2.5349570000     0.7242630000
   13      C       0.2963700000     2.7545210000     2.0040070000
   14      C      -0.9348940000     1.8613330000     2.0617800000
   15      O      -1.3851240000     1.2513060000     1.1334150000
   16      O      -1.5550880000     1.8076920000     3.2735500000
   17      H       6.6847400000     5.8152000000     0.9428130000
   18      H       5.5305640000     7.1233180000     0.6127870000
   19      H       6.1240220000     6.1478840000    -0.7084000000
   20      H       5.6212330000     2.7807110000     2.7457350000
   21      H       6.1355250000     4.4691920000     2.8768740000
   22      H       6.7357720000     3.4691300000     1.5549450000
   23      H       0.8529130000     6.0991270000    -0.8672670000
   24      H       0.1996540000     4.4498000000    -0.9173070000
   25      H       1.3721770000     5.0064280000    -2.1251270000
   26      H       1.5310360000     1.5241610000     0.7534820000
   27      H       0.4568990000     2.5826460000    -0.1374790000
   28      H      -0.0540820000     3.7928110000     2.0627400000
   29      H       0.9222880000     2.5788920000     2.8841110000
   30      H      -1.0626030000     2.3152690000     3.9301470000
 ----------------------------------------------------------------

   15    -766.8275822294      3.47e-09  Convergence criterion met
 Total energy in the final basis set =     -766.8526790074

                    Orbital Energies (a.u.)
 --------------------------------------------------------------

 Alpha MOs
 -- Occupied --
-19.1762 -19.1317 -19.1299 -19.1196 -10.3142 -10.2766 -10.2741 -10.2104
-10.2078 -10.2074 -10.2063 -10.1977 -10.1843 -10.1708 -10.1696 -10.1683
 -1.1133  -1.0642  -1.0618  -1.0357  -0.8659  -0.8327  -0.7909  -0.7458
 -0.7321  -0.7030  -0.6597  -0.6491  -0.6214  -0.5758  -0.5724  -0.5420
 -0.5257  -0.4888  -0.4778  -0.4694  -0.4605  -0.4595  -0.4435  -0.4308
 -0.4289  -0.4225  -0.4189  -0.4168  -0.4058  -0.4039  -0.3951  -0.3889
 -0.3879  -0.3825  -0.3792  -0.3655  -0.3559  -0.3357  -0.2949  -0.2892
 -0.2852  -0.2670  -0.2658

          Ground-State Mulliken Net Atomic Charges

     Atom                 Charge (a.u.)
  ----------------------------------------
      1 C                    -1.476494
      2 C                     0.731044
      3 C                     1.055360
      4 C                    -1.717004
      5 C                     0.289793
      6 C                     0.456800
      7 O                    -0.286195
      8 O                    -0.275471
      9 C                    -0.055791
     10 C                    -0.284639
     11 C                    -0.215353
     12 C                    -0.301465
     13 C                     0.053616
     14 C                    -0.333687
     15 O                    -0.408473
     16 O                    -0.170069
     17 H                     0.241607
     18 H                     0.175151
     19 H                     0.173857
     20 H                     0.165828
     21 H                     0.219192
     22 H                     0.213797
     23 H                     0.174131
     24 H                     0.201484
     25 H                     0.180965
     26 H                     0.156318
     27 H                     0.193519
     28 H                     0.299968
     29 H                     0.239143
     30 H                     0.303069
  ----------------------------------------
  Sum of atomic charges =     0.000000

                    Cartesian Multipole Moments
 -----------------------------------------------------------------
    Charge (ESU x 10^10)
                 0.0000
    Dipole Moment (Debye)
         X       3.4628      Y       3.0461      Z       2.0583
       Tot       5.0504
    Quadrupole Moments (Debye-Ang)
        XX     -86.0724     XY       7.0090     YY     -90.6400
        XZ       6.6679     YZ      17.9407     ZZ     -87.3517

 Total job time:  722.85s(wall), 5520.97s(cpu)
        *  Thank you very much for using Q-Chem.  Have a nice day.  *
