 Gaussian 16, Revision A.03,
 Gaussian 16:  ES64L-G16RevA.03 25-Dec-2016

 ----------------------------------------------------------------------
 #P UB3LYP/6-311++G(d,p) nosym opt freq SCRF=(PCM,Solvent=n,n-DiMethylF
 ormamide)
 ----------------------------------------------------------------------

 --------
 Oxidized
 --------
 Symbolic Z-matrix:
 Charge =  0 Multiplicity = 1

 SCF Done:  E(UB3LYP) =  -1352.16702093     A.U. after   16 cycles
 SCF Done:  E(UB3LYP) =  -1352.16731374     A.U. after   13 cycles
 SCF Done:  E(UB3LYP) =  -1352.16736716     A.U. after   13 cycles
 SCF Done:  E(UB3LYP) =  -1352.16728091     A.U. after   13 cycles
 SCF Done:  E(UB3LYP) =  -1352.16738455     A.U. after   13 cycles
 SCF Done:  E(UB3LYP) =  -1352.16739174     A.U. after   12 cycles
 SCF Done:  E(UB3LYP) =  -1352.16739358     A.U. after   11 cycles
 SCF Done:  E(UB3LYP) =  -1352.16739464     A.U. after   12 cycles
 SCF Done:  E(UB3LYP) =  -1352.16739602     A.U. after   12 cycles
 SCF Done:  E(UB3LYP) =  -1352.16739759     A.U. after   12 cycles
 SCF Done:  E(UB3LYP) =  -1352.16739989     A.U. after   12 cycles
 SCF Done:  E(UB3LYP) =  -1352.16740078     A.U. after   11 cycles
 SCF Done:  E(UB3LYP) =  -1352.16739985     A.U. after   12 cycles
 SCF Done:  E(UB3LYP) =  -1352.16740160     A.U. after   11 cycles
 SCF Done:  E(UB3LYP) =  -1352.16740175     A.U. after   11 cycles
 SCF Done:  E(UB3LYP) =  -1352.16740165     A.U. after   11 cycles
 SCF Done:  E(UB3LYP) =  -1352.16740181     A.U. after   11 cycles
 SCF Done:  E(UB3LYP) =  -1352.16740182     A.U. after   10 cycles
 Optimization completed.
    -- Stationary point found.
 Normal termination of Gaussian 16 at Sat Feb 10 23:29:29 2024.

 ----------------------------------------------------------------------
 #P Geom=AllCheck Guess=TCheck SCRF=Check GenChk UB3LYP/6-311++G(d,p) F
 req
 ----------------------------------------------------------------------

 Structure from the checkpoint file:  "215.chk"
 --------
 Oxidized
 --------
 Charge =  0 Multiplicity = 1

                          Input orientation:
 ---------------------------------------------------------------------
 Center     Atomic      Atomic             Coordinates (Angstroms)
 Number     Number       Type             X           Y           Z
 ---------------------------------------------------------------------
      1          6           0        5.033251   -2.388114    0.563155
      2          6           0        5.837034   -1.686145   -0.328406
      3          6           0        5.255684   -0.881266   -1.311625
      4          6           0        3.640665   -2.293266    0.481698
      5          6           0        3.054243   -1.481674   -0.509722
      6          6           0        3.871779   -0.779960   -1.401209
      7          6           0        2.805953   -3.053973    1.448536
      8          6           0        1.321971   -2.925614    1.329778
      9          6           0        0.733645   -2.116769    0.343791
     10          6           0        1.577984   -1.355082   -0.630135
     11          6           0        0.513075   -3.627781    2.225827
     12          6           0       -0.657932   -2.012572    0.261189
     13          6           0       -1.468430   -2.707641    1.148628
     14          8           0        3.303685   -3.760764    2.312615
     15          8           0        1.059603   -0.657278   -1.488853
     16          1           0        5.470753   -3.015177    1.329378
     17          1           0        6.915480   -1.764337   -0.259461
     18          1           0        5.882953   -0.334791   -2.005766
     19          1           0       -2.546154   -2.625338    1.095507
     20          1           0        3.408839   -0.159967   -2.158177
     21          1           0        0.969510   -4.245245    2.987788
     22          1           0       -1.094178   -1.381831   -0.502060
     23          6           0       -0.864413   -3.508314    2.119224
     24         16           0       -1.900375   -4.412007    3.267236
     25          8           0       -1.139982   -4.747926    4.468252
     26          8           0       -3.184918   -3.732513    3.418954
     27          8           0       -2.106934   -5.752284    2.367722
     28          6           0       -2.959172   -6.799661    2.923024
     29          1           0       -2.535178   -7.173008    3.854942
     30          1           0       -2.956839   -7.580072    2.167139
     31          1           0       -3.969355   -6.419671    3.073390
 ---------------------------------------------------------------------

 SCF Done:  E(UB3LYP) =  -1352.16740182     A.U. after    1 cycles

 Alpha  occ. eigenvalues --  -89.10400 -19.19297 -19.14942 -19.14928 -19.14153
 Alpha  occ. eigenvalues --  -19.14063 -10.29369 -10.29334 -10.24905 -10.24144
 Alpha  occ. eigenvalues --  -10.22847 -10.22710 -10.22539 -10.22531 -10.21652
 Alpha  occ. eigenvalues --  -10.21603 -10.21563 -10.20406 -10.20381 -10.20344
 Alpha  occ. eigenvalues --  -10.20317  -8.16479  -6.12848  -6.12672  -6.12552
 Alpha  occ. eigenvalues --   -1.17199  -1.07540  -1.07342  -1.06320  -1.04147
 Alpha  occ. eigenvalues --   -0.91568  -0.89402  -0.83682  -0.80525  -0.79056
 Alpha  occ. eigenvalues --   -0.78501  -0.75737  -0.70643  -0.69122  -0.66644
 Alpha  occ. eigenvalues --   -0.63815  -0.62847  -0.59913  -0.58236  -0.57383
 Alpha  occ. eigenvalues --   -0.54632  -0.53319  -0.52038  -0.50889  -0.49996
 Alpha  occ. eigenvalues --   -0.49725  -0.47529  -0.47273  -0.46945  -0.46743
 Alpha  occ. eigenvalues --   -0.46561  -0.45744  -0.45646  -0.45354  -0.43198
 Alpha  occ. eigenvalues --   -0.42832  -0.41874  -0.40952  -0.39935  -0.38856
 Alpha  occ. eigenvalues --   -0.38141  -0.37473  -0.37026  -0.36565  -0.35097
 Alpha  occ. eigenvalues --   -0.35029  -0.31746  -0.30685  -0.29865  -0.29791
 Alpha  occ. eigenvalues --   -0.28734  -0.28593  -0.28426
 Alpha virt. eigenvalues --   -0.13097  -0.09034  -0.05901  -0.03974  -0.01261
 Alpha virt. eigenvalues --   -0.00336   0.00276   0.00846   0.01240   0.01646
 Alpha virt. eigenvalues --    0.02008   0.02482   0.02752   0.03297   0.03504

  Beta  occ. eigenvalues --  -89.10400 -19.19297 -19.14942 -19.14928 -19.14153
  Beta  occ. eigenvalues --  -19.14063 -10.29369 -10.29334 -10.24905 -10.24144
  Beta  occ. eigenvalues --  -10.22847 -10.22710 -10.22539 -10.22531 -10.21652
  Beta  occ. eigenvalues --  -10.21603 -10.21563 -10.20406 -10.20381 -10.20344
  Beta  occ. eigenvalues --  -10.20317  -8.16479  -6.12848  -6.12672  -6.12552
  Beta  occ. eigenvalues --   -1.17199  -1.07540  -1.07342  -1.06320  -1.04147
  Beta  occ. eigenvalues --   -0.91568  -0.89402  -0.83682  -0.80525  -0.79056
  Beta  occ. eigenvalues --   -0.78501  -0.75737  -0.70643  -0.69122  -0.66644
  Beta  occ. eigenvalues --   -0.63815  -0.62847  -0.59913  -0.58236  -0.57383
  Beta  occ. eigenvalues --   -0.54632  -0.53319  -0.52038  -0.50889  -0.49996
  Beta  occ. eigenvalues --   -0.49725  -0.47529  -0.47273  -0.46945  -0.46743
  Beta  occ. eigenvalues --   -0.46561  -0.45744  -0.45646  -0.45354  -0.43198
  Beta  occ. eigenvalues --   -0.42832  -0.41874  -0.40952  -0.39935  -0.38856
  Beta  occ. eigenvalues --   -0.38141  -0.37473  -0.37026  -0.36565  -0.35097
  Beta  occ. eigenvalues --   -0.35029  -0.31746  -0.30685  -0.29865  -0.29791
  Beta  occ. eigenvalues --   -0.28734  -0.28593  -0.28426
  Beta virt. eigenvalues --   -0.13097  -0.09034  -0.05901  -0.03974  -0.01261
  Beta virt. eigenvalues --   -0.00336   0.00276   0.00846   0.01240   0.01646
  Beta virt. eigenvalues --    0.02008   0.02482   0.02752   0.03297   0.03504

 Mulliken charges and spin densities:
               1          2
     1  C    0.112947  -0.000000
     2  C   -0.393920   0.000000
     3  C   -0.452595  -0.000000
     4  C    0.335568  -0.000000
     5  C    0.334969  -0.000000
     6  C    0.153735   0.000000
     7  C   -0.783481  -0.000000
     8  C    0.508112  -0.000000
     9  C    0.715950   0.000000
    10  C   -0.471675   0.000000
    11  C    0.172441   0.000000
    12  C    0.049567   0.000000
    13  C   -0.392891  -0.000000
    14  O   -0.248648   0.000000
    15  O   -0.249123   0.000000
    16  H    0.187653  -0.000000
    17  H    0.213228  -0.000000
    18  H    0.211390   0.000000
    19  H    0.262296  -0.000000
    20  H    0.189669  -0.000000
    21  H    0.234480  -0.000000
    22  H    0.197839   0.000000
    23  C   -1.172090   0.000000
    24  S    0.310821   0.000000
    25  O   -0.197331  -0.000000
    26  O   -0.211484   0.000000
    27  O   -0.040206  -0.000000
    28  C   -0.133833  -0.000000
    29  H    0.181291  -0.000000
    30  H    0.194581   0.000000
    31  H    0.180743   0.000000
 Sum of Mulliken charges =   0.00000  -0.00000

 Dipole moment (field-independent basis, Debye):
    X=              2.6765    Y=             -0.4907    Z=             -4.7072  Tot=              5.4371
 Quadrupole moment (field-independent basis, Debye-Ang):
   XX=           -100.6981   YY=           -113.5496   ZZ=           -156.5475
   XY=             12.4781   XZ=             -5.0955   YZ=             14.0724

  Exact polarizability: 384.418  26.255 236.750 -32.680 -96.404 270.485
 Approx polarizability: 425.040  -2.854 278.260  -3.490-117.528 329.494

                      1                      2                      3
                      A                      A                      A
 Frequencies --     13.6152                27.5806                42.6545
 Red. masses --      5.4437                 6.8361                 3.1983
 Frc consts  --      0.0006                 0.0031                 0.0034
 IR Inten    --      4.0190                 4.0168                 4.4314

                      4                      5                      6
                      A                      A                      A
 Frequencies --     56.4605               104.6281               108.7512
 Red. masses --      6.4509                 8.3331                 4.2858
 Frc consts  --      0.0121                 0.0537                 0.0299
 IR Inten    --      6.3114                 3.0727                 1.1187

                      7                      8                      9
                      A                      A                      A
 Frequencies --    115.9570               138.1298               150.9601
 Red. masses --      5.3851                 1.1309                 7.2535
 Frc consts  --      0.0427                 0.0127                 0.0974
 IR Inten    --      1.6814                 0.8595                 7.6494

                     10                     11                     12
                      A                      A                      A
 Frequencies --    196.1049               212.4021               225.1242
 Red. masses --      5.9739                 7.7822                 8.9339
 Frc consts  --      0.1354                 0.2069                 0.2668
 IR Inten    --      4.9242                 2.8980                 2.4400

                     13                     14                     15
                      A                      A                      A
 Frequencies --    251.1220               287.2961               332.2803
 Red. masses --      5.0814                 7.7486                 5.6455
 Frc consts  --      0.1888                 0.3768                 0.3673
 IR Inten    --     20.1339                 0.9371                 5.5151

                     16                     17                     18
                      A                      A                      A
 Frequencies --    365.4662               382.2525               404.4299
 Red. masses --      7.3671                 8.9859                 9.0529
 Frc consts  --      0.5798                 0.7736                 0.8724
 IR Inten    --      9.7652                16.1217                43.3227

                     19                     20                     21
                      A                      A                      A
 Frequencies --    413.0246               442.3893               444.1895
 Red. masses --      3.3538                 3.6746                 7.8618
 Frc consts  --      0.3371                 0.4237                 0.9139
 IR Inten    --      0.7658                 1.8367                28.7822

                     22                     23                     24
                      A                      A                      A
 Frequencies --    450.9292               473.5032               479.3359
 Red. masses --      5.0512                10.1320                 9.0060
 Frc consts  --      0.6051                 1.3384                 1.2192
 IR Inten    --      3.0918                12.6106                22.1504

                     25                     26                     27
                      A                      A                      A
 Frequencies --    489.9708               550.6920               604.3691
 Red. masses --      9.6943                 5.5111                 9.4172
 Frc consts  --      1.3712                 0.9847                 2.0266
 IR Inten    --      7.9393                14.9048               153.8454

                     28                     29                     30
                      A                      A                      A
 Frequencies --    642.4569               657.9973               668.7917
 Red. masses --      7.0872                 7.0662                 4.7022
 Frc consts  --      1.7235                 1.8025                 1.2392
 IR Inten    --     16.1334                34.8835                29.4815

                     31                     32                     33
                      A                      A                      A
 Frequencies --    690.4461               695.4913               725.0096
 Red. masses --      7.1145                 6.7267                 5.0817
 Frc consts  --      1.9983                 1.9171                 1.5738
 IR Inten    --    315.4706                 0.7059               172.4296

                     34                     35                     36
                      A                      A                      A
 Frequencies --    727.1320               736.3521               808.8532
 Red. masses --      3.3629                 3.1409                 1.7870
 Frc consts  --      1.0476                 1.0034                 0.6888
 IR Inten    --     41.0386                13.7562                12.3177

                     37                     38                     39
                      A                      A                      A
 Frequencies --    815.9131               829.1021               873.0796
 Red. masses --      3.8829                 6.9345                 1.5817
 Frc consts  --      1.5230                 2.8086                 0.7104
 IR Inten    --      0.7374                14.0101                15.1220

                     40                     41                     42
                      A                      A                      A
 Frequencies --    916.7738               938.8114               951.2927
 Red. masses --      1.4322                 6.9150                 1.9448
 Frc consts  --      0.7092                 3.5909                 1.0369
 IR Inten    --      0.3975               201.2721                59.2891

                     43                     44                     45
                      A                      A                      A
 Frequencies --    959.1208               967.7926              1004.5137
 Red. masses --      4.3164                 5.9216                 1.3811
 Frc consts  --      2.3395                 3.2678                 0.8211
 IR Inten    --    396.9459                66.3962                 1.6723

                     46                     47                     48
                      A                      A                      A
 Frequencies --   1010.6640              1026.4698              1057.2081
 Red. masses --      1.3762                 1.3388                 2.0394
 Frc consts  --      0.8282                 0.8311                 1.3430
 IR Inten    --      1.2298                 0.0049                 0.4080

                     49                     50                     51
                      A                      A                      A
 Frequencies --   1080.2138              1105.7573              1114.5297
 Red. masses --      2.7201                 4.4680                 2.1631
 Frc consts  --      1.8700                 3.2187                 1.5831
 IR Inten    --     53.5965               298.0641                39.4429

                     52                     53                     54
                      A                      A                      A
 Frequencies --   1136.5503              1161.4705              1176.3844
 Red. masses --      2.3856                 1.2558                 1.4282
 Frc consts  --      1.8156                 0.9981                 1.1645
 IR Inten    --    148.2365                 3.5748                21.6620

                     55                     56                     57
                      A                      A                      A
 Frequencies --   1181.4457              1183.6225              1191.3697
 Red. masses --      1.3889                 1.8159                 2.0521
 Frc consts  --      1.1422                 1.4989                 1.7161
 IR Inten    --     10.0380                57.3321                 5.6066

                     58                     59                     60
                      A                      A                      A
 Frequencies --   1230.9926              1263.4923              1276.6389
 Red. masses --      1.7358                10.6895                 1.5945
 Frc consts  --      1.5498                10.0544                 1.5311
 IR Inten    --      2.8022               466.9643                 7.9045

                     61                     62                     63
                      A                      A                      A
 Frequencies --   1295.1872              1313.2563              1350.4277
 Red. masses --      5.0794                 2.2992                 8.1291
 Frc consts  --      5.0203                 2.3363                 8.7344
 IR Inten    --   1066.6255                40.8939                57.0781

                     64                     65                     66
                      A                      A                      A
 Frequencies --   1362.9775              1432.3844              1458.3087
 Red. masses --      8.2819                 4.1331                 1.1316
 Frc consts  --      9.0647                 4.9963                 1.4179
 IR Inten    --     11.1995                 4.4501                 2.2085

                     67                     68                     69
                      A                      A                      A
 Frequencies --   1475.3101              1481.1512              1488.7825
 Red. masses --      1.0444                 2.3970                 1.0477
 Frc consts  --      1.3394                 3.0983                 1.3681
 IR Inten    --     13.7306                 5.8119                21.1891

                     70                     71                     72
                      A                      A                      A
 Frequencies --   1495.5723              1506.4414              1601.5605
 Red. masses --      2.6017                 2.5879                 7.0952
 Frc consts  --      3.4287                 3.4602                10.7226
 IR Inten    --     22.6741                 4.4345                 5.1956

                     73                     74                     75
                      A                      A                      A
 Frequencies --   1613.6744              1616.6831              1627.4379
 Red. masses --      7.5517                 6.0499                 6.1561
 Frc consts  --     11.5859                 9.3165                 9.6064
 IR Inten    --      1.4674               365.3129                 3.4666

                     76                     77                     78
                      A                      A                      A
 Frequencies --   1703.2240              1710.0534              3057.6931
 Red. masses --     12.4996                11.9185                 1.0285
 Frc consts  --     21.3644                20.5349                 5.6658
 IR Inten    --     18.6593               763.0078                42.1729

                     79                     80                     81
                      A                      A                      A
 Frequencies --   3144.3885              3172.9362              3181.6703
 Red. masses --      1.1098                 1.1065                 1.0876
 Frc consts  --      6.4652                 6.5630                 6.4871
 IR Inten    --     15.5306                 5.0425                 2.8051

                     82                     83                     84
                      A                      A                      A
 Frequencies --   3193.5867              3205.4800              3205.9456
 Red. masses --      1.0914                 1.0926                 1.0891
 Frc consts  --      6.5585                 6.6144                 6.5954
 IR Inten    --      8.8655                 2.0037                 4.1561

                     85                     86                     87
                      A                      A                      A
 Frequencies --   3208.4188              3216.6238              3217.6452
 Red. masses --      1.0956                 1.0941                 1.0926
 Frc consts  --      6.6451                 6.6696                 6.6648
 IR Inten    --     18.0965                 2.3653                 6.7484

 - Thermochemistry -
 -------------------
 Temperature   298.150 Kelvin.  Pressure   1.00000 Atm.
 Atom     1 has atomic number  6 and mass  12.00000

 Molecular mass:   302.02490 amu.
 Principal axes and moments of inertia in atomic units:
                           1         2         3
     Eigenvalues --  2358.80874********************
           X            0.78615   0.61802  -0.00486
           Y            0.42136  -0.53020   0.73576
           Z           -0.45213   0.58047   0.67722
 This molecule is an asymmetric top.
 Rotational symmetry number  1.
 Warning -- assumption of classical behavior for rotation
           may cause significant error
 Rotational temperatures (Kelvin)      0.03672     0.00691     0.00612
 Rotational constants (GHZ):           0.76511     0.14399     0.12749
 Zero-point vibrational energy     579627.7 (Joules/Mol)
                                  138.53434 (Kcal/Mol)
 Warning -- explicit consideration of  27 degrees of freedom as
           vibrations may cause significant error
 Vibrational temperatures:     19.59    39.68    61.37    81.23   150.54
          (Kelvin)            156.47   166.84   198.74   217.20   282.15
                              305.60   323.90   361.31   413.36   478.08
                              525.82   549.98   581.88   594.25   636.50
                              639.09   648.79   681.27   689.66   704.96
                              792.32   869.55   924.35   946.71   962.24
                              993.40  1000.66  1043.13  1046.18  1059.45
                             1163.76  1173.92  1192.89  1256.17  1319.03
                             1350.74  1368.70  1379.96  1392.44  1445.27
                             1454.12  1476.86  1521.09  1554.19  1590.94
                             1603.56  1635.24  1671.10  1692.55  1699.84
                             1702.97  1714.12  1771.12  1817.88  1836.80
                             1863.49  1889.48  1942.96  1961.02  2060.88
                             2098.18  2122.64  2131.05  2142.03  2151.79
                             2167.43  2304.29  2321.72  2326.05  2341.52
                             2450.56  2460.39  4399.34  4524.07  4565.15
                             4577.71  4594.86  4611.97  4612.64  4616.20
                             4628.00  4629.47

 Zero-point correction=                           0.220769 (Hartree/Particle)
 Thermal correction to Energy=                    0.238487
 Thermal correction to Enthalpy=                  0.239432
 Thermal correction to Gibbs Free Energy=         0.172485
 Sum of electronic and zero-point Energies=          -1351.946633
 Sum of electronic and thermal Energies=             -1351.928914
 Sum of electronic and thermal Enthalpies=           -1351.927970
 Sum of electronic and thermal Free Energies=        -1351.994917

                     E (Thermal)             CV                S
                      KCal/Mol        Cal/Mol-Kelvin    Cal/Mol-Kelvin
 Total                  149.653             67.007            140.901
 Electronic               0.000              0.000              0.000
 Translational            0.889              2.981             43.013
 Rotational               0.889              2.981             34.392
 Vibrational            147.876             61.045             63.497
 Vibration     1          0.593              1.986              7.398
 Vibration     2          0.593              1.984              5.996
 Vibration     3          0.595              1.980              5.132
 Vibration     4          0.596              1.975              4.577
 Vibration     5          0.605              1.946              3.366
 Vibration     6          0.606              1.942              3.291
 Vibration     7          0.608              1.936              3.167
 Vibration     8          0.614              1.915              2.830
 Vibration     9          0.618              1.902              2.660
 Vibration    10          0.636              1.845              2.169
 Vibration    11          0.643              1.822              2.023
 Vibration    12          0.650              1.803              1.917
 Vibration    13          0.663              1.761              1.723
 Vibration    14          0.684              1.697              1.490
 Vibration    15          0.714              1.611              1.249
 Vibration    16          0.739              1.543              1.099
 Vibration    17          0.752              1.508              1.030
 Vibration    18          0.770              1.461              0.947
 Vibration    19          0.777              1.442              0.916
 Vibration    20          0.802              1.378              0.819
 Vibration    21          0.804              1.374              0.814
 Vibration    22          0.810              1.359              0.793
 Vibration    23          0.830              1.309              0.728
 Vibration    24          0.836              1.296              0.712
 Vibration    25          0.846              1.272              0.684
 Vibration    26          0.906              1.138              0.543
 Vibration    27          0.963              1.023              0.442

                           ! Non-Optimized Parameters !
 Normal termination of Gaussian 16 at Sun Feb 11 00:25:41 2024.
