 Q-Chem 5.4, Q-Chem, Inc., Pleasanton, CA (2021)
 Q-Chem 5.4.0 for Intel X86 EM64T Linux

User input:
--------------------------------------------------------------
$molecule
-2 1
C                  4.8792300000     -2.8690370000     -0.3502620000
C                  5.6030330000     -1.9804810000     -1.1144070000
C                  4.9994740000     -0.7586480000     -1.5411480000
C                  3.5349210000     -2.6147490000      0.0364930000
C                  2.9207680000     -1.3714430000     -0.3977320000
C                  3.6986090000     -0.4789280000     -1.1850300000
C                  2.8218730000     -3.5639400000      0.8292780000
C                  1.4713040000     -3.2307260000      1.1765360000
C                  0.8609100000     -1.9950210000      0.7449150000
C                  1.5757950000     -1.0412020000     -0.0517600000
C                  0.6984860000     -4.1488040000      1.9766550000
C                 -0.6014200000     -3.8442120000      2.3197190000
C                 -0.5019610000     -1.7184880000      1.1277740000
C                 -1.2038960000     -2.6245400000      1.8937030000
O                  3.3709750000     -4.6952820000      1.2288150000
O                  1.0097020000      0.0856710000     -0.4404660000
O                  1.2750710000     -5.3162890000      2.3843390000
H                  5.3133360000     -3.8048540000     -0.0124250000
H                  6.6309070000     -2.2063340000     -1.3931460000
H                  5.5672030000     -0.0529310000     -2.1452040000
H                  3.2155000000      0.4421830000     -1.4956550000
H                  2.2313580000     -5.2596320000      1.9794850000
O                 -1.0783780000     -0.5511130000      0.7199340000
H                 -2.2295510000     -2.3908880000      2.1680260000
H                 -1.1610020000     -4.5541910000      2.9235500000
H                 -0.3199570000     -0.0931110000      0.1745750000
$end

$rem
BASIS  =  6-311++G(d,p)
GUI  =  2
JOB_TYPE  =  SP
METHOD  =  B3LYP
SCF_CONVERGENCE  = 8
SOLVENT_METHOD = sm12
$end

$smx
solvent dimethylformamide
charges CM5
$end

--------------------------------------------------------------

             Standard Nuclear Orientation (Angstroms)
    I     Atom           X                Y                Z
 ----------------------------------------------------------------
    1      C       4.8792300000    -2.8690370000    -0.3502620000
    2      C       5.6030330000    -1.9804810000    -1.1144070000
    3      C       4.9994740000    -0.7586480000    -1.5411480000
    4      C       3.5349210000    -2.6147490000     0.0364930000
    5      C       2.9207680000    -1.3714430000    -0.3977320000
    6      C       3.6986090000    -0.4789280000    -1.1850300000
    7      C       2.8218730000    -3.5639400000     0.8292780000
    8      C       1.4713040000    -3.2307260000     1.1765360000
    9      C       0.8609100000    -1.9950210000     0.7449150000
   10      C       1.5757950000    -1.0412020000    -0.0517600000
   11      C       0.6984860000    -4.1488040000     1.9766550000
   12      C      -0.6014200000    -3.8442120000     2.3197190000
   13      C      -0.5019610000    -1.7184880000     1.1277740000
   14      C      -1.2038960000    -2.6245400000     1.8937030000
   15      O       3.3709750000    -4.6952820000     1.2288150000
   16      O       1.0097020000     0.0856710000    -0.4404660000
   17      O       1.2750710000    -5.3162890000     2.3843390000
   18      H       5.3133360000    -3.8048540000    -0.0124250000
   19      H       6.6309070000    -2.2063340000    -1.3931460000
   20      H       5.5672030000    -0.0529310000    -2.1452040000
   21      H       3.2155000000     0.4421830000    -1.4956550000
   22      H       2.2313580000    -5.2596320000     1.9794850000
   23      O      -1.0783780000    -0.5511130000     0.7199340000
   24      H      -2.2295510000    -2.3908880000     2.1680260000
   25      H      -1.1610020000    -4.5541910000     2.9235500000
   26      H      -0.3199570000    -0.0931110000     0.1745750000
 ----------------------------------------------------------------

   17    -839.4689551967      4.95e-09  Convergence criterion met
 Total energy in the final basis set =     -839.7417688449

                    Orbital Energies (a.u.)
 --------------------------------------------------------------

 Alpha MOs
 -- Occupied --
-19.1025 -19.1024 -19.0514 -19.0514 -10.2123 -10.2123 -10.1999 -10.1998
-10.1747 -10.1743 -10.1716 -10.1716 -10.1618 -10.1614 -10.1610 -10.1606
-10.1564 -10.1559  -1.0205  -1.0192  -0.9570  -0.9546  -0.8492  -0.8275
 -0.7750  -0.7483  -0.7283  -0.7145  -0.6620  -0.6278  -0.6207  -0.5735
 -0.5602  -0.5320  -0.5122  -0.4963  -0.4852  -0.4589  -0.4562  -0.4469
 -0.4225  -0.4148  -0.4077  -0.3971  -0.3969  -0.3857  -0.3831  -0.3768
 -0.3729  -0.3561  -0.3417  -0.3392  -0.3312  -0.3294  -0.3194  -0.2818
 -0.2523  -0.2453  -0.2380  -0.2324  -0.2221  -0.1945  -0.1281

          Ground-State Mulliken Net Atomic Charges

     Atom                 Charge (a.u.)
  ----------------------------------------
      1 C                     0.427123
      2 C                     1.593294
      3 C                     1.591484
      4 C                    -1.288608
      5 C                    -1.287304
      6 C                     0.427371
      7 C                    -1.541817
      8 C                    -1.086739
      9 C                    -1.086098
     10 C                    -1.541024
     11 C                    -0.596357
     12 C                     0.936840
     13 C                    -0.596414
     14 C                     0.937953
     15 O                    -0.374921
     16 O                    -0.375349
     17 O                    -0.296458
     18 H                     0.176243
     19 H                     0.400336
     20 H                     0.400126
     21 H                     0.176316
     22 H                     0.386299
     23 O                    -0.296533
     24 H                     0.263791
     25 H                     0.263774
     26 H                     0.386673
  ----------------------------------------
  Sum of atomic charges =    -2.000000

                    Cartesian Multipole Moments
 -----------------------------------------------------------------
    Charge (ESU x 10^10)
                -9.6064
    Dipole Moment (Debye)
         X     -15.5425      Y      23.7914      Z      -6.8293
       Tot      29.2274
    Quadrupole Moments (Debye-Ang)
        XX    -178.7560     XY      49.2971     YY    -216.8518
        XZ      -2.6234     YZ      34.8424     ZZ    -134.9630

 Total job time:  717.11s(wall), 5228.18s(cpu)
        *  Thank you very much for using Q-Chem.  Have a nice day.  *
