 Q-Chem 5.4, Q-Chem, Inc., Pleasanton, CA (2021)
 Q-Chem 5.4.0 for Intel X86 EM64T Linux

User input:
--------------------------------------------------------------
$molecule
-1 2
Cl                 5.1971430000     -1.4849390000     -0.0050030000
C                  3.6333810000     -0.6451270000     -0.1494900000
C                  3.6413290000      0.7243520000     -0.4808660000
C                  2.4323880000      1.3794340000     -0.5939690000
C                  1.2054190000      0.7133150000     -0.3869860000
C                 -0.0449090000      1.4611820000     -0.5209530000
O                 -0.0610270000      2.6814790000     -0.8152970000
C                 -1.2757530000      0.6999470000     -0.2909360000
C                 -2.5210520000      1.3561920000     -0.4029930000
C                 -3.7070710000      0.6808410000     -0.1955250000
C                 -3.6864720000     -0.6919460000      0.1354920000
C                 -2.4812550000     -1.3548160000      0.2507120000
C                 -1.2547590000     -0.6853170000      0.0430740000
C                 -0.0030590000     -1.4338560000      0.1772270000
O                  0.0173020000     -2.6547480000      0.4715870000
C                  1.2247430000     -0.6724170000     -0.0527560000
C                  2.4674010000     -1.3374650000      0.0614880000
H                  4.5800270000      1.2404260000     -0.6408030000
H                  2.3920190000      2.4325920000     -0.8471410000
H                 -2.5062840000      2.4095890000     -0.6581030000
H                 -4.6550500000      1.2027890000     -0.2862590000
H                 -4.6188710000     -1.2242320000      0.2989800000
H                 -2.4358570000     -2.4078240000      0.5036130000
H                  2.4602660000     -2.3894510000      0.3160450000
$end
$rem
MAX_SCF_CYCLES=200
BASIS  =  6-311++G(d,p)
GUI  =  2
JOB_TYPE  =  SP
METHOD  =  B3LYP
SOLVENT_METHOD = COSMO
$end
$solvent
dielectric 37.219
opticaldielectric 1.43
$end

--------------------------------------------------------------

             Standard Nuclear Orientation (Angstroms)
    I     Atom           X                Y                Z
 ----------------------------------------------------------------
    1      Cl      4.6853425681    -0.6424357530    -0.0000231468
    2      C       3.0158024363    -0.0226389886    -0.0000085182
    3      C       2.8239022823     1.3732550914    -0.0000717897
    4      C       1.5323347200     1.8583491940    -0.0000531236
    5      C       0.4156528899     0.9951973565     0.0000309093
    6      C      -0.9303934529     1.5685485198     0.0000640624
    7      O      -1.1243414632     2.8088739278     0.0000721488
    8      C      -2.0370342878     0.6079707977     0.0000497943
    9      C      -3.3647406102     1.0887823947     0.0000366622
   10      C      -4.4395633725     0.2224458396    -0.0000880094
   11      C      -4.2189388333    -1.1724970025    -0.0001130061
   12      C      -2.9299195809    -1.6661058192    -0.0000391032
   13      C      -1.8141989637    -0.7996172795     0.0000170138
   14      C      -0.4666973938    -1.3734640092     0.0000566038
   15      O      -0.2684650195    -2.6137638040     0.0000785115
   16      C       0.6369042669    -0.4131293506     0.0000412774
   17      C       1.9632819752    -0.9032942341     0.0000160114
   18      H       3.6772828057     2.0401942397    -0.0001585235
   19      H       1.3387755258     2.9248398476    -0.0001750090
   20      H      -3.5037876289     2.1637755896     0.0000915379
   21      H      -5.4535397101     0.6112626908    -0.0001180628
   22      H      -5.0637226909    -1.8549666643    -0.0001544669
   23      H      -2.7314069727    -2.7316753762     0.0000374660
   24      H       2.1096744219    -1.9757185764     0.0000325650
 ----------------------------------------------------------------

    9   -1148.6486046574      8.34e-06  Convergence criterion met
 Total energy in the final basis set =    -1148.6486046574
    4   -1148.7258172554      9.93e-06  Convergence criterion met
 Total energy in the final basis set =    -1148.7258172554

                    Orbital Energies (a.u.)
 --------------------------------------------------------------

 Alpha MOs
 -- Occupied --
******** -19.0839 -19.0837 -10.2385 -10.2315 -10.2308 -10.1850 -10.1833
-10.1826 -10.1806 -10.1795 -10.1773 -10.1767 -10.1748 -10.1743 -10.1721
-10.1720  -9.4708  -7.2350  -7.2259  -7.2254  -1.0118  -1.0094  -0.8917
 -0.8610  -0.8403  -0.7842  -0.7604  -0.7532  -0.7363  -0.6724  -0.6432
 -0.6181  -0.5953  -0.5625  -0.5383  -0.5278  -0.4820  -0.4725  -0.4643
 -0.4587  -0.4360  -0.4305  -0.4261  -0.4225  -0.4169  -0.4121  -0.3921
 -0.3882  -0.3880  -0.3586  -0.3570  -0.3537  -0.3391  -0.3283  -0.3212
 -0.2730  -0.2647  -0.2601  -0.2551  -0.2498  -0.2453  -0.1485

 Beta MOs
 -- Occupied --
******** -19.0785 -19.0781 -10.2379 -10.2298 -10.2290 -10.1844 -10.1828
-10.1821 -10.1807 -10.1787 -10.1766 -10.1760 -10.1744 -10.1738 -10.1721
-10.1719  -9.4708  -7.2351  -7.2258  -7.2254  -1.0023  -0.9996  -0.8906
 -0.8587  -0.8390  -0.7807  -0.7581  -0.7514  -0.7345  -0.6649  -0.6415
 -0.6155  -0.5946  -0.5600  -0.5361  -0.5261  -0.4791  -0.4714  -0.4626
 -0.4579  -0.4356  -0.4253  -0.4183  -0.4171  -0.4153  -0.4096  -0.3872
 -0.3866  -0.3651  -0.3579  -0.3523  -0.3509  -0.3378  -0.3210  -0.3197
 -0.2618  -0.2526  -0.2511  -0.2500  -0.2444  -0.2403

          Ground-State Mulliken Net Atomic Charges

     Atom                 Charge (a.u.)    Spin (a.u.)
  --------------------------------------------------------
      1 Cl                    0.439568       0.002457
      2 C                     0.611800       0.032230
      3 C                    -0.526470       0.048132
      4 C                     0.001142       0.019943
      5 C                     0.046576       0.041593
      6 C                    -0.583962       0.098984
      7 O                    -0.482924       0.196278
      8 C                     0.121005       0.024698
      9 C                     0.126774       0.026160
     10 C                    -0.472116       0.038081
     11 C                    -0.469796       0.030681
     12 C                     0.110897       0.032455
     13 C                     0.208478       0.025118
     14 C                    -0.616029       0.109029
     15 O                    -0.485526       0.204644
     16 C                    -0.128399       0.059126
     17 C                    -0.290835       0.025119
     18 H                     0.226012      -0.003641
     19 H                     0.190540      -0.000803
     20 H                     0.181420      -0.001241
     21 H                     0.204428      -0.003087
     22 H                     0.204933      -0.002611
     23 H                     0.179721      -0.001732
     24 H                     0.202763      -0.001614
  --------------------------------------------------------
  Sum of atomic charges =    -1.000000

                    Cartesian Multipole Moments
 -----------------------------------------------------------------
    Charge (ESU x 10^10)
                -4.8032
    Dipole Moment (Debye)
         X       0.2749      Y       0.4496      Z      -0.0008
       Tot       0.5270
    Quadrupole Moments (Debye-Ang)
        XX    -115.7820     XY      10.5545     YY    -138.3615
        XZ       0.0018     YZ      -0.0019     ZZ    -111.3295

 Total job time:  84.59s(wall), 534.94s(cpu)
        *  Thank you very much for using Q-Chem.  Have a nice day.  *
