 Gaussian 16, Revision A.03,
 Gaussian 16:  ES64L-G16RevA.03 25-Dec-2016

 ----------------------------------------------------------------------
 #P UB3LYP/6-311++G(d,p) nosym opt freq SCRF=(PCM,Solvent=n,n-DiMethylF
 ormamide)
 ----------------------------------------------------------------------

 -------
 Radical
 -------
 Symbolic Z-matrix:
 Charge = -1 Multiplicity = 2

 SCF Done:  E(UB3LYP) =  -728.422379975     A.U. after   18 cycles
 SCF Done:  E(UB3LYP) =  -728.422616406     A.U. after   13 cycles
 SCF Done:  E(UB3LYP) =  -728.422645782     A.U. after   12 cycles
 Optimization completed.
    -- Stationary point found.
 Normal termination of Gaussian 16 at Sat Feb 10 16:02:24 2024.

 ----------------------------------------------------------------------
 #P Geom=AllCheck Guess=TCheck SCRF=Check GenChk UB3LYP/6-311++G(d,p) F
 req
 ----------------------------------------------------------------------

 Structure from the checkpoint file:  "124-rad.chk"
 -------
 Radical
 -------
 Charge = -1 Multiplicity = 2

                          Input orientation:
 ---------------------------------------------------------------------
 Center     Atomic      Atomic             Coordinates (Angstroms)
 Number     Number       Type             X           Y           Z
 ---------------------------------------------------------------------
      1          6           0       -4.573600    0.228948    0.019177
      2          6           0       -3.123933   -0.189162    0.020499
      3          6           0       -2.780617   -1.565190   -0.014669
      4          6           0       -1.461937   -1.965170   -0.014233
      5          6           0       -0.405671   -1.025332    0.020911
      6          6           0        0.978134   -1.490161    0.019416
      7          8           0        1.267787   -2.719845   -0.012774
      8          6           0        2.012657   -0.458359    0.056845
      9          6           0        3.375134   -0.836661    0.058047
     10          6           0        4.382334    0.106796    0.093421
     11          6           0        4.057643    1.480599    0.128399
     12          6           0        2.735041    1.875640    0.127634
     13          6           0        1.684171    0.929405    0.092446
     14          6           0        0.298092    1.391413    0.093876
     15          8           0        0.008771    2.622313    0.125929
     16          6           0       -0.734938    0.359547    0.056532
     17          6           0       -2.098718    0.738440    0.055565
     18          1           0       -5.088519   -0.133953   -0.876358
     19          1           0       -4.674716    1.315374    0.050366
     20          1           0       -5.105206   -0.186058    0.881714
     21          1           0       -3.570313   -2.309908   -0.042308
     22          1           0       -1.206133   -3.017702   -0.040965
     23          1           0        3.608154   -1.894441    0.030848
     24          1           0        5.421372   -0.204169    0.094076
     25          1           0        4.847915    2.222980    0.155939
     26          1           0        2.471703    2.926160    0.154073
     27          1           0       -2.324606    1.798497    0.083078
 ---------------------------------------------------------------------

 SCF Done:  E(UB3LYP) =  -728.422645782     A.U. after    1 cycles

 Alpha  occ. eigenvalues --  -19.07428 -19.07377 -10.22304 -10.22184 -10.18082
 Alpha  occ. eigenvalues --  -10.17255 -10.17219 -10.17209 -10.17169 -10.17164
 Alpha  occ. eigenvalues --  -10.17013 -10.16969 -10.16951 -10.16944 -10.16875
 Alpha  occ. eigenvalues --  -10.16506 -10.16327  -0.99835  -0.99554  -0.86125
 Alpha  occ. eigenvalues --   -0.85134  -0.79171  -0.75868  -0.74975  -0.74271
 Alpha  occ. eigenvalues --   -0.69505  -0.66080  -0.63127  -0.60552  -0.58571
 Alpha  occ. eigenvalues --   -0.55523  -0.52988  -0.51663  -0.47159  -0.46486
 Alpha  occ. eigenvalues --   -0.45659  -0.44432  -0.42490  -0.42320  -0.42256
 Alpha  occ. eigenvalues --   -0.41319  -0.41285  -0.40964  -0.39872  -0.37879
 Alpha  occ. eigenvalues --   -0.37766  -0.37021  -0.36064  -0.34329  -0.34238
 Alpha  occ. eigenvalues --   -0.33219  -0.32969  -0.26492  -0.25731  -0.25339
 Alpha  occ. eigenvalues --   -0.24482  -0.24252  -0.23628  -0.14156
 Alpha virt. eigenvalues --   -0.05275  -0.02092  -0.00378  -0.00267   0.00334
 Alpha virt. eigenvalues --    0.01248   0.01920   0.02322   0.03270   0.03973
 Alpha virt. eigenvalues --    0.04174   0.04473   0.04679   0.05780   0.06065

  Beta  occ. eigenvalues --  -19.06884 -19.06810 -10.22129 -10.21996 -10.18035
  Beta  occ. eigenvalues --  -10.17178 -10.17173 -10.17130 -10.17118 -10.17087
  Beta  occ. eigenvalues --  -10.16969 -10.16965 -10.16944 -10.16920 -10.16841
  Beta  occ. eigenvalues --  -10.16494 -10.16331  -0.98870  -0.98548  -0.85867
  Beta  occ. eigenvalues --   -0.85015  -0.78825  -0.75679  -0.74759  -0.74091
  Beta  occ. eigenvalues --   -0.69296  -0.65413  -0.62960  -0.60313  -0.58512
  Beta  occ. eigenvalues --   -0.55274  -0.52777  -0.51488  -0.46879  -0.46366
  Beta  occ. eigenvalues --   -0.45516  -0.44344  -0.42276  -0.42194  -0.42004
  Beta  occ. eigenvalues --   -0.41124  -0.40398  -0.40383  -0.39636  -0.37813
  Beta  occ. eigenvalues --   -0.36912  -0.35737  -0.35382  -0.34265  -0.34130
  Beta  occ. eigenvalues --   -0.32820  -0.32051  -0.25339  -0.24477  -0.24419
  Beta  occ. eigenvalues --   -0.23971  -0.23640  -0.23114
  Beta virt. eigenvalues --   -0.08249  -0.04334  -0.01105  -0.00366  -0.00035
  Beta virt. eigenvalues --    0.00333   0.01254   0.01931   0.02319   0.03434
  Beta virt. eigenvalues --    0.03977   0.04183   0.04482   0.04946   0.06069

 Mulliken charges and spin densities:
               1          2
     1  C   -0.373776  -0.002037
     2  C    0.365954   0.033640
     3  C   -0.427351   0.036323
     4  C    0.095308   0.024804
     5  C    0.195539   0.025503
     6  C   -0.665757   0.099021
     7  O   -0.468296   0.201538
     8  C    0.128563   0.035035
     9  C    0.094353   0.024621
    10  C   -0.454242   0.041097
    11  C   -0.453873   0.033603
    12  C    0.025127   0.030790
    13  C    0.355337   0.034193
    14  C   -0.527170   0.109473
    15  O   -0.468661   0.211063
    16  C    0.126610   0.046084
    17  C   -0.198329   0.026398
    18  H    0.161364   0.002280
    19  H    0.166672   0.000111
    20  H    0.161125   0.002275
    21  H    0.179233  -0.002883
    22  H    0.164318  -0.001423
    23  H    0.165807  -0.001279
    24  H    0.180182  -0.003349
    25  H    0.181416  -0.002877
    26  H    0.162016  -0.001765
    27  H    0.128531  -0.002239
 Sum of Mulliken charges =  -1.00000   1.00000

 Dipole moment (field-independent basis, Debye):
    X=             -3.8119    Y=              0.1964    Z=             -0.2798  Tot=              3.8272
 Quadrupole moment (field-independent basis, Debye-Ang):
   XX=            -97.1963   YY=           -134.2371   ZZ=           -106.2071
   XY=              9.1880   XZ=              0.1393   YZ=             -0.7004

  Exact polarizability: 475.868  21.114 356.810   3.498   6.240 138.599
 Approx polarizability: 482.763   9.958 423.701   3.063   7.470 158.955

                      1                      2                      3
                      A                      A                      A
 Frequencies --     52.5407                80.4310               101.4937
 Red. masses --      4.9830                 1.0777                 3.9515
 Frc consts  --      0.0081                 0.0041                 0.0240
 IR Inten    --     13.4482                 0.1791                 1.6122

                      4                      5                      6
                      A                      A                      A
 Frequencies --    135.0803               159.3453               186.0876
 Red. masses --      4.6193                 6.4527                 4.0565
 Frc consts  --      0.0497                 0.0965                 0.0828
 IR Inten    --      0.7936                 3.1636                 8.6760

                      7                      8                      9
                      A                      A                      A
 Frequencies --    204.1213               276.9795               292.0075
 Red. masses --      4.7534                 5.4254                 4.4306
 Frc consts  --      0.1167                 0.2452                 0.2226
 IR Inten    --      1.4368                 3.8934                 2.8974

                     10                     11                     12
                      A                      A                      A
 Frequencies --    337.2143               370.4037               379.0130
 Red. masses --      6.0575                 4.2163                10.9176
 Frc consts  --      0.4058                 0.3408                 0.9240
 IR Inten    --      4.4033                 1.3662                21.3366

                     13                     14                     15
                      A                      A                      A
 Frequencies --    419.6417               434.2060               438.2020
 Red. masses --      3.5945                 5.7324                 4.8879
 Frc consts  --      0.3729                 0.6368                 0.5530
 IR Inten    --      2.2363                 1.4928                 4.2088

                     16                     17                     18
                      A                      A                      A
 Frequencies --    466.8586               489.6548               527.6861
 Red. masses --      3.0704                12.0789                 3.7750
 Frc consts  --      0.3943                 1.7063                 0.6193
 IR Inten    --      0.0167                 0.4352                10.5934

                     19                     20                     21
                      A                      A                      A
 Frequencies --    573.6739               638.7451               646.4529
 Red. masses --      5.6473                 6.7491                 3.9523
 Frc consts  --      1.0950                 1.6224                 0.9731
 IR Inten    --     23.8233                16.8083                 8.3555

                     22                     23                     24
                      A                      A                      A
 Frequencies --    667.3336               698.4271               705.7374
 Red. masses --      6.5193                 6.3443                 2.4528
 Frc consts  --      1.7106                 1.8234                 0.7198
 IR Inten    --      5.3302                 1.5822               120.2001

                     25                     26                     27
                      A                      A                      A
 Frequencies --    734.3636               747.0295               786.2119
 Red. masses --      4.3946                 6.1276                 1.6421
 Frc consts  --      1.3963                 2.0147                 0.5980
 IR Inten    --      0.0274                 5.8550                22.6056

                     28                     29                     30
                      A                      A                      A
 Frequencies --    801.3004               838.3834               854.0635
 Red. masses --      3.6305                 1.6144                 5.9693
 Frc consts  --      1.3734                 0.6686                 2.5654
 IR Inten    --      2.6256                43.5364                15.5228

                     31                     32                     33
                      A                      A                      A
 Frequencies --    884.5711               918.3643               932.9240
 Red. masses --      1.4783                 1.3856                 6.6314
 Frc consts  --      0.6815                 0.6885                 3.4005
 IR Inten    --      0.0769                 8.4592                39.7021

                     34                     35                     36
                      A                      A                      A
 Frequencies --    971.8872               988.5593               993.8450
 Red. masses --      2.3955                 1.3565                 1.3315
 Frc consts  --      1.3332                 0.7810                 0.7749
 IR Inten    --      3.3095                 1.7888                 2.3569

                     37                     38                     39
                      A                      A                      A
 Frequencies --   1001.0634              1025.2720              1037.9444
 Red. masses --      1.2892                 1.8358                 1.8985
 Frc consts  --      0.7612                 1.1370                 1.2050
 IR Inten    --      0.0516                 0.7852                35.2319

                     40                     41                     42
                      A                      A                      A
 Frequencies --   1059.2525              1109.3629              1120.5708
 Red. masses --      1.5350                 2.5131                 2.0342
 Frc consts  --      1.0148                 1.8223                 1.5050
 IR Inten    --      7.4242                43.6059                 3.1947

                     43                     44                     45
                      A                      A                      A
 Frequencies --   1149.2290              1153.0763              1195.2004
 Red. masses --      1.5057                 1.4523                 2.2097
 Frc consts  --      1.1717                 1.1377                 1.8598
 IR Inten    --     17.6648                 7.8510                 2.3968

                     46                     47                     48
                      A                      A                      A
 Frequencies --   1215.8141              1221.6694              1235.0578
 Red. masses --      1.8516                 2.0543                 4.2183
 Frc consts  --      1.6127                 1.8064                 3.7911
 IR Inten    --     23.6510                75.3204                30.9944

                     49                     50                     51
                      A                      A                      A
 Frequencies --   1265.1711              1338.5401              1358.1378
 Red. masses --      2.0922                 2.2559                10.6206
 Frc consts  --      1.9731                 2.3814                11.5421
 IR Inten    --    266.8785                63.6604                11.7240

                     52                     53                     54
                      A                      A                      A
 Frequencies --   1365.5101              1403.5035              1409.2447
 Red. masses --      7.0627                 1.7367                 1.8115
 Frc consts  --      7.7591                 2.0156                 2.1196
 IR Inten    --      4.3636               614.6731               524.9543

                     55                     56                     57
                      A                      A                      A
 Frequencies --   1455.5594              1468.1768              1473.3365
 Red. masses --      2.7623                 2.2631                 1.0432
 Frc consts  --      3.4482                 2.8741                 1.3342
 IR Inten    --    420.5749               144.7795                10.5077

                     58                     59                     60
                      A                      A                      A
 Frequencies --   1484.1389              1495.3140              1505.2108
 Red. masses --      1.6966                 3.3844                 3.2325
 Frc consts  --      2.2019                 4.4586                 4.3150
 IR Inten    --     38.5150               222.2482               729.4819

                     61                     62                     63
                      A                      A                      A
 Frequencies --   1523.5212              1554.9818              1605.9435
 Red. masses --      4.7462                 5.1832                 8.4241
 Frc consts  --      6.4907                 7.3841                12.8008
 IR Inten    --     23.9258                92.7895                 3.1185

                     64                     65                     66
                      A                      A                      A
 Frequencies --   1623.8869              1638.9766              3017.2135
 Red. masses --      5.6500                 6.2221                 1.0376
 Frc consts  --      8.7784                 9.8476                 5.5656
 IR Inten    --     11.6911                29.1918                92.3815

                     67                     68                     69
                      A                      A                      A
 Frequencies --   3062.1396              3101.1328              3153.3334
 Red. masses --      1.1001                 1.1001                 1.0884
 Frc consts  --      6.0778                 6.2334                 6.3766
 IR Inten    --     30.8245                33.6647                29.9288

                     70                     71                     72
                      A                      A                      A
 Frequencies --   3159.2945              3172.7644              3173.5114
 Red. masses --      1.0858                 1.0896                 1.0895
 Frc consts  --      6.3851                 6.4621                 6.4649
 IR Inten    --     12.0844                15.3998                21.0901

                     73                     74                     75
                      A                      A                      A
 Frequencies --   3186.5153              3186.9504              3191.1467
 Red. masses --      1.0923                 1.0922                 1.0948
 Frc consts  --      6.5348                 6.5357                 6.5686
 IR Inten    --     22.9304                30.2253                44.2623

 - Thermochemistry -
 -------------------
 Temperature   298.150 Kelvin.  Pressure   1.00000 Atm.
 Atom     1 has atomic number  6 and mass  12.00000

 Molecular mass:   222.06808 amu.
 Principal axes and moments of inertia in atomic units:
                           1         2         3
     Eigenvalues --  1743.623205312.392687044.88102
           X            0.99187  -0.12694  -0.00855
           Y            0.12666   0.99156  -0.02782
           Z            0.01201   0.02651   0.99958
 This molecule is an asymmetric top.
 Rotational symmetry number  1.
 Warning -- assumption of classical behavior for rotation
           may cause significant error
 Rotational temperatures (Kelvin)      0.04967     0.01630     0.01229
 Rotational constants (GHZ):           1.03505     0.33972     0.25618
 Zero-point vibrational energy     536103.5 (Joules/Mol)
                                  128.13182 (Kcal/Mol)
 Warning -- explicit consideration of  19 degrees of freedom as
           vibrations may cause significant error
 Vibrational temperatures:     75.59   115.72   146.03   194.35   229.26
          (Kelvin)            267.74   293.68   398.51   420.13   485.18
                              532.93   545.32   603.77   624.73   630.47
                              671.71   704.50   759.22   825.39   919.01
                              930.10   960.14  1004.88  1015.40  1056.59
                             1074.81  1131.18  1152.89  1206.25  1228.81
                             1272.70  1321.32  1342.27  1398.33  1422.32
                             1429.92  1440.31  1475.14  1493.37  1524.03
                             1596.13  1612.25  1653.48  1659.02  1719.63
                             1749.29  1757.71  1776.97  1820.30  1925.86
                             1954.06  1964.66  2019.33  2027.59  2094.23
                             2112.38  2119.80  2135.34  2151.42  2165.66
                             2192.01  2237.27  2310.59  2336.41  2358.12
                             4341.10  4405.74  4461.84  4536.94  4545.52
                             4564.90  4565.98  4584.68  4585.31  4591.35

 Zero-point correction=                           0.204191 (Hartree/Particle)
 Thermal correction to Energy=                    0.217192
 Thermal correction to Enthalpy=                  0.218136
 Thermal correction to Gibbs Free Energy=         0.163993
 Sum of electronic and zero-point Energies=           -728.218455
 Sum of electronic and thermal Energies=              -728.205454
 Sum of electronic and thermal Enthalpies=            -728.204510
 Sum of electronic and thermal Free Energies=         -728.258653

                     E (Thermal)             CV                S
                      KCal/Mol        Cal/Mol-Kelvin    Cal/Mol-Kelvin
 Total                  136.290             52.214            113.954
 Electronic               0.000              0.000              1.377
 Translational            0.889              2.981             42.096
 Rotational               0.889              2.981             32.545
 Vibrational            134.512             46.252             37.935
 Vibration     1          0.596              1.977              4.719
 Vibration     2          0.600              1.962              3.880
 Vibration     3          0.604              1.948              3.425
 Vibration     4          0.613              1.918              2.872
 Vibration     5          0.621              1.892              2.558
 Vibration     6          0.632              1.859              2.266
 Vibration     7          0.640              1.834              2.096
 Vibration     8          0.678              1.716              1.552
 Vibration     9          0.687              1.689              1.462
 Vibration    10          0.718              1.601              1.225
 Vibration    11          0.742              1.533              1.078
 Vibration    12          0.749              1.515              1.043
 Vibration    13          0.782              1.428              0.893
 Vibration    14          0.795              1.396              0.845
 Vibration    15          0.798              1.387              0.832
 Vibration    16          0.824              1.324              0.746
 Vibration    17          0.845              1.273              0.684
 Vibration    18          0.883              1.189              0.592
 Vibration    19          0.930              1.088              0.497

                           ! Non-Optimized Parameters !
 Normal termination of Gaussian 16 at Sat Feb 10 16:49:02 2024.
