 Gaussian 16, Revision A.03,
 Gaussian 16:  ES64L-G16RevA.03 25-Dec-2016

 ----------------------------------------------------------------
 #P UB3LYP/6-311++G(d,p) SCRF=(PCM,Solvent=n,n-DiMethylFormamide)
 ----------------------------------------------------------------

 ------------------
 Quinone PCM in DMF
 ------------------
 Symbolic Z-matrix:
 Charge =  0 Multiplicity = 1

                         Standard orientation:
 ---------------------------------------------------------------------
 Center     Atomic      Atomic             Coordinates (Angstroms)
 Number     Number       Type             X           Y           Z
 ---------------------------------------------------------------------
      1         17           0       -1.616182   -1.724130   -0.000015
      2          6           0       -0.675565   -0.280834   -0.000009
      3          6           0        0.675572   -0.280196   -0.000000
      4         17           0        1.617339   -1.723069    0.000030
      5          6           0        1.450730    1.007183   -0.000010
      6          8           0        2.663316    1.022070   -0.000064
      7          6           0        0.666986    2.266164    0.000025
      8          6           0       -0.668320    2.265791    0.000032
      9          6           0       -1.451412    1.006600    0.000003
     10          8           0       -2.663973    1.020690   -0.000011
     11          1           0        1.255139    3.176533    0.000043
     12          1           0       -1.257495    3.175519    0.000050
 ---------------------------------------------------------------------

 SCF Done:  E(UB3LYP) =  -1300.80673977     A.U. after   16 cycles

 The electronic state is 1-A.
 Alpha  occ. eigenvalues -- -101.58770-101.58765 -19.16055 -19.16053 -10.31079
 Alpha  occ. eigenvalues --  -10.31078 -10.28642 -10.28569 -10.22706 -10.22622
 Alpha  occ. eigenvalues --   -9.50218  -9.50212  -7.26704  -7.26698  -7.25728
 Alpha  occ. eigenvalues --   -7.25722  -7.25607  -7.25602  -1.09607  -1.09408
 Alpha  occ. eigenvalues --   -0.94121  -0.88774  -0.86201  -0.77808  -0.72326
 Alpha  occ. eigenvalues --   -0.64443  -0.62825  -0.55499  -0.52715  -0.50369
 Alpha  occ. eigenvalues --   -0.48271  -0.48041  -0.47144  -0.45812  -0.44341
 Alpha  occ. eigenvalues --   -0.43423  -0.40394  -0.36615  -0.35709  -0.33621
 Alpha  occ. eigenvalues --   -0.32625  -0.31211  -0.30356  -0.28819
 Alpha virt. eigenvalues --   -0.15195  -0.04866  -0.02641  -0.01867  -0.00087
 Alpha virt. eigenvalues --    0.01701   0.02001   0.02215   0.04785   0.04827
 Alpha virt. eigenvalues --    0.05633   0.05946   0.07409   0.07765   0.07961

  Beta  occ. eigenvalues -- -101.58770-101.58765 -19.16055 -19.16053 -10.31079
  Beta  occ. eigenvalues --  -10.31078 -10.28642 -10.28569 -10.22706 -10.22622
  Beta  occ. eigenvalues --   -9.50218  -9.50212  -7.26704  -7.26698  -7.25728
  Beta  occ. eigenvalues --   -7.25722  -7.25607  -7.25602  -1.09607  -1.09408
  Beta  occ. eigenvalues --   -0.94121  -0.88774  -0.86201  -0.77808  -0.72326
  Beta  occ. eigenvalues --   -0.64443  -0.62825  -0.55499  -0.52715  -0.50369
  Beta  occ. eigenvalues --   -0.48271  -0.48041  -0.47144  -0.45812  -0.44341
  Beta  occ. eigenvalues --   -0.43423  -0.40394  -0.36615  -0.35709  -0.33621
  Beta  occ. eigenvalues --   -0.32625  -0.31211  -0.30356  -0.28819
  Beta virt. eigenvalues --   -0.15195  -0.04866  -0.02641  -0.01867  -0.00087
  Beta virt. eigenvalues --    0.01701   0.02001   0.02215   0.04785   0.04827
  Beta virt. eigenvalues --    0.05633   0.05946   0.07409   0.07765   0.07961

 Mulliken charges and spin densities:
               1          2
     1  Cl   0.401235   0.000000
     2  C    0.450857   0.000000
     3  C    0.450622   0.000000
     4  Cl   0.400967  -0.000000
     5  C   -0.978298  -0.000000
     6  O   -0.228906   0.000000
     7  C    0.097376   0.000000
     8  C    0.097602   0.000000
     9  C   -0.976505   0.000000
    10  O   -0.228938  -0.000000
    11  H    0.257015   0.000000
    12  H    0.256974   0.000000
 Sum of Mulliken charges =  -0.00000   0.00000

 Dipole moment (field-independent basis, Debye):
    X=             -0.0036    Y=              2.3280    Z=              0.0002  Tot=              2.3280
 Quadrupole moment (field-independent basis, Debye-Ang):
   XX=            -89.4084   YY=            -59.7299   ZZ=            -69.0241
   XY=             -0.0052   XZ=              0.0003   YZ=              0.0003

 Normal termination of Gaussian 16 at Sun Jan 21 06:46:25 2024.
