 Q-Chem 5.4, Q-Chem, Inc., Pleasanton, CA (2021)
 Q-Chem 5.4.0 for Intel X86 EM64T Linux

User input:
--------------------------------------------------------------
$molecule
-1 2
C                 -1.1308510000      2.9739070000     -0.5394750000
C                 -2.4469130000      2.5514870000     -0.3956550000
C                 -2.7348750000      1.2470080000      0.0177990000
C                 -0.0732070000      2.0827680000     -0.2607130000
C                 -0.3650120000      0.7557140000      0.1421650000
C                 -1.7100600000      0.3478060000      0.2679410000
C                  1.3238420000      2.5646460000     -0.4074890000
C                  2.3691290000      1.6036170000     -0.1071500000
C                  2.0571140000      0.3040090000      0.2789200000
C                  0.7279290000     -0.1825710000      0.4582690000
O                  1.5176570000      3.7364220000     -0.7835180000
O                  0.4813240000     -1.3435600000      0.8809660000
H                 -3.7666320000      0.9307200000      0.1270240000
H                  2.8531130000     -0.3950650000      0.5010530000
C                 -2.0886470000     -1.0486910000      0.6720980000
O                 -2.5569700000     -1.3521830000      1.7448140000
O                 -1.9985460000     -1.9034040000     -0.3715980000
C                 -2.1578260000     -3.2888290000     -0.0446240000
H                 -3.2569120000      3.2362180000     -0.6218140000
H                 -2.0650240000     -3.8253910000     -0.9878930000
H                 -3.1335900000     -3.4760200000      0.4087460000
H                 -1.3678690000     -3.5908130000      0.6455920000
C                  3.7837780000      2.0278180000     -0.1663870000
O                  4.2282290000      3.1434260000     -0.0177570000
O                  4.6228360000      0.9579950000     -0.3924420000
C                 -0.9502940000      4.3777730000     -1.0783310000
O                 -1.1533680000      4.6367040000     -2.2382830000
O                 -0.8184880000      5.4006320000     -0.1939380000
C                 -0.3609710000      5.1582940000      1.1427770000
C                  6.0160280000      1.2683090000     -0.3953910000
H                 -0.5317740000      6.0904810000      1.6814470000
H                  0.7023670000      4.9187700000      1.1282670000
H                 -0.9232770000      4.3531020000      1.6217080000
H                  6.5271490000      0.3250210000     -0.5874940000
H                  6.3295440000      1.6798200000      0.5675050000
H                  6.2537960000      1.9946700000     -1.1760690000
$end
$rem
MAX_SCF_CYCLES=200
BASIS  =  6-311++G(d,p)
GUI  =  2
JOB_TYPE  =  SP
METHOD  =  B3LYP
SOLVENT_METHOD = COSMO
$end
$solvent
dielectric 37.219
opticaldielectric 1.43
$end

--------------------------------------------------------------

             Standard Nuclear Orientation (Angstroms)
    I     Atom           X                Y                Z
 ----------------------------------------------------------------
    1      C      -0.2668279008    -2.1017298146     0.2917858704
    2      C      -1.5909648528    -2.5197193345     0.2362149225
    3      C      -2.6200356094    -1.5981077462     0.0190116923
    4      C       0.0459905533    -0.7365540736     0.1218223102
    5      C      -0.9981949372     0.1998338834    -0.0816166620
    6      C      -2.3355994318    -0.2486914752    -0.1208197405
    7      C       1.4703818050    -0.3191044623     0.1702050906
    8      C       1.7306093584     1.0971906405    -0.0108887211
    9      C       0.6876198645     1.9979330925    -0.2012050620
   10      C      -0.6878066734     1.6274611261    -0.2825148724
   11      O       2.3427287774    -1.1854943156     0.3712036950
   12      O      -1.6013095028     2.4590625001    -0.5301718398
   13      H      -3.6491639198    -1.9381147941    -0.0231882451
   14      H       0.9053964800     3.0494654331    -0.3372749613
   15      C      -3.4903394540     0.6926809651    -0.3138696773
   16      O      -4.1521765994     0.7730690557    -1.3226624166
   17      O      -3.8076238069     1.3235393741     0.8390839862
   18      C      -4.7707133958     2.3766759557     0.7164205046
   19      H      -1.8279704829    -3.5683653526     0.3785970688
   20      H      -4.9117861600     2.7640468812     1.7245423419
   21      H      -5.7142008787     2.0015948988     0.3141198938
   22      H      -4.3748557035     3.1543881605     0.0606118902
   23      C       3.1271382562     1.5803802844    -0.0412549737
   24      O       4.1174882404     0.9606560499    -0.3564653161
   25      O       3.2100519294     2.9083641668     0.3182232213
   26      C       0.7453165792    -3.1792028839     0.6210603782
   27      O       0.8465690367    -3.6267947541     1.7360412804
   28      O       1.3554277850    -3.8314473104    -0.4027100348
   29      C       1.4521002619    -3.2295297126    -1.7000943804
   30      C       4.5177034039     3.4762734086     0.2488392301
   31      H       1.7993138267    -4.0224196944    -2.3627253891
   32      H       2.1757886844    -2.4147856301    -1.6729441306
   33      H       0.4832446199    -2.8630556055    -2.0478192302
   34      H       4.4049526025     4.5137547278     0.5632597435
   35      H       4.9133999104     3.4297675145    -0.7690329470
   36      H       5.2083671807     2.9513462099     0.9129379030
 ----------------------------------------------------------------

    9   -1219.1509554248      5.97e-06  Convergence criterion met
 Total energy in the final basis set =    -1219.1509554248
    4   -1219.2442557616      9.40e-06  Convergence criterion met
 Total energy in the final basis set =    -1219.2442557616

                    Orbital Energies (a.u.)
 --------------------------------------------------------------

 Alpha MOs
 -- Occupied --
-19.1720 -19.1718 -19.1653 -19.1247 -19.1232 -19.1177 -19.1000 -19.0976
-10.3222 -10.3181 -10.3074 -10.2517 -10.2402 -10.2180 -10.2165 -10.2148
-10.2104 -10.2075 -10.2023 -10.2016 -10.1964 -10.1957 -10.1927 -10.1838
 -1.1161  -1.1123  -1.1071  -1.0354  -1.0332  -1.0323  -1.0225  -1.0214
 -0.8882  -0.8337  -0.8014  -0.7762  -0.7355  -0.7262  -0.7229  -0.6998
 -0.6663  -0.6484  -0.6181  -0.5894  -0.5719  -0.5581  -0.5416  -0.5311
 -0.5257  -0.5086  -0.4992  -0.4914  -0.4881  -0.4848  -0.4839  -0.4816
 -0.4702  -0.4613  -0.4495  -0.4394  -0.4366  -0.4293  -0.4258  -0.4200
 -0.4119  -0.4084  -0.4013  -0.3967  -0.3943  -0.3877  -0.3754  -0.3719
 -0.3640  -0.3606  -0.3571  -0.3143  -0.3113  -0.3096  -0.3047  -0.3019
 -0.2978  -0.2944  -0.2726  -0.2693  -0.2648  -0.2540  -0.1771

 Beta MOs
 -- Occupied --
-19.1720 -19.1718 -19.1652 -19.1247 -19.1232 -19.1171 -19.0949 -19.0903
-10.3222 -10.3181 -10.3073 -10.2508 -10.2390 -10.2180 -10.2164 -10.2148
-10.2104 -10.2073 -10.2018 -10.2013 -10.1963 -10.1954 -10.1913 -10.1810
 -1.1161  -1.1123  -1.1066  -1.0354  -1.0323  -1.0266  -1.0191  -1.0094
 -0.8867  -0.8280  -0.8005  -0.7745  -0.7350  -0.7252  -0.7216  -0.6915
 -0.6658  -0.6456  -0.6158  -0.5889  -0.5710  -0.5574  -0.5405  -0.5293
 -0.5247  -0.5065  -0.4976  -0.4912  -0.4878  -0.4837  -0.4826  -0.4811
 -0.4696  -0.4603  -0.4491  -0.4337  -0.4318  -0.4261  -0.4210  -0.4168
 -0.4105  -0.4050  -0.3982  -0.3941  -0.3907  -0.3732  -0.3707  -0.3654
 -0.3636  -0.3600  -0.3557  -0.3134  -0.3096  -0.3093  -0.3031  -0.3000
 -0.2964  -0.2686  -0.2660  -0.2647  -0.2587  -0.2492

          Ground-State Mulliken Net Atomic Charges

     Atom                 Charge (a.u.)    Spin (a.u.)
  --------------------------------------------------------
      1 C                     0.107232      -0.011934
      2 C                     0.265802       0.029554
      3 C                    -0.054587       0.004936
      4 C                     0.275279       0.020106
      5 C                     0.504073       0.017477
      6 C                     0.611196       0.020753
      7 C                    -0.808095       0.045112
      8 C                     0.234908       0.082866
      9 C                    -0.254695       0.203548
     10 C                    -0.654435       0.089696
     11 O                    -0.372349       0.193114
     12 O                    -0.407913       0.264743
     13 H                     0.235627      -0.000457
     14 H                     0.222895      -0.015723
     15 C                    -0.818684      -0.000125
     16 O                    -0.260120       0.001005
     17 O                     0.018907      -0.001459
     18 C                    -0.268872       0.001373
     19 H                     0.252183      -0.001903
     20 H                     0.182915       0.000114
     21 H                     0.174415      -0.000105
     22 H                     0.191528      -0.000428
     23 C                     0.293037       0.033468
     24 O                    -0.320939       0.021645
     25 O                    -0.117154       0.000413
     26 C                    -0.340919       0.001341
     27 O                    -0.316150       0.000228
     28 O                    -0.056568       0.000112
     29 C                    -0.381912       0.000232
     30 C                    -0.264864      -0.000252
     31 H                     0.184416      -0.000734
     32 H                     0.222101      -0.000005
     33 H                     0.167626       0.000959
     34 H                     0.173871       0.000037
     35 H                     0.194885       0.000011
     36 H                     0.185363       0.000282
  --------------------------------------------------------
  Sum of atomic charges =    -1.000000

                    Cartesian Multipole Moments
 -----------------------------------------------------------------
    Charge (ESU x 10^10)
                -4.8032
    Dipole Moment (Debye)
         X      -3.9445      Y       2.4987      Z      -1.8775
       Tot       5.0326
    Quadrupole Moments (Debye-Ang)
        XX    -166.9617     XY      27.6671     YY    -159.7127
        XZ     -17.9125     YZ      23.7700     ZZ    -149.4388

 Total job time:  148.86s(wall), 1104.36s(cpu)
        *  Thank you very much for using Q-Chem.  Have a nice day.  *
