 Q-Chem 5.4, Q-Chem, Inc., Pleasanton, CA (2021)
 Q-Chem 5.4.0 for Intel X86 EM64T Linux

User input:
--------------------------------------------------------------
$molecule
0 1
C                  4.1593240000     -1.3195150000      3.8517880000
C                  3.3650120000     -0.9824240000      4.9492070000
C                  2.4725130000      0.0986620000      4.8570630000
C                  4.0515270000     -0.5723860000      2.6758220000
C                  3.1643330000      0.5063550000      2.5765620000
C                  2.3763410000      0.8308830000      3.6858500000
C                  4.8879100000     -0.9243030000      1.5114420000
C                  4.7440090000     -0.1139800000      0.2698790000
C                  3.8992760000      0.9392570000      0.1574950000
C                  3.0519090000      1.3038080000      1.3175630000
O                  5.6957120000     -1.8473480000      1.5040120000
O                  2.2729530000      2.2457400000      1.2486020000
O                  5.5374740000     -0.5149220000     -0.7395180000
O                  3.3827850000     -1.6334080000      6.1384510000
C                  4.2652760000     -2.7417280000      6.3017470000
C                  3.7620670000      1.7331110000     -1.1106840000
C                  2.6348250000      1.2052350000     -2.0252300000
C                  2.4990470000      2.0301550000     -3.3105260000
C                  1.3402410000      1.6125310000     -4.2325550000
C                  1.5234690000      0.2030580000     -4.8268880000
C                  1.1400450000      2.6389490000     -5.3636380000
C                 -0.0076360000      2.2574160000     -6.3089960000
C                  0.1830110000      0.8490140000     -6.8876650000
C                  0.3771640000     -0.1863560000     -5.7721390000
H                  4.8605280000     -2.1419300000      3.8747420000
H                  1.8667300000      0.3408280000      5.7219580000
H                  1.6906020000      1.6654590000      3.6082530000
H                  6.0493640000     -1.2712900000     -0.3966120000
H                  4.1061190000     -3.0967310000      7.3179390000
H                  5.3095280000     -2.4375370000      6.1804240000
H                  4.0301150000     -3.5426330000      5.5939480000
H                  4.7098980000      1.7068230000     -1.6544850000
H                  3.5475120000      2.7719110000     -0.8479090000
H                  1.6890580000      1.2311360000     -1.4733210000
H                  2.8380400000      0.1570310000     -2.2639230000
H                  3.4401790000      1.9834750000     -3.8752820000
H                  2.3613320000      3.0834100000     -3.0350130000
H                  0.4197600000      1.6033930000     -3.6289920000
H                  1.6077980000     -0.5403590000     -4.0284840000
H                  2.4736870000      0.1755350000     -5.3789350000
H                  2.0725010000      2.7171870000     -5.9401150000
H                  0.9585950000      3.6302940000     -4.9334570000
H                 -0.0892060000      2.9925050000     -7.1167470000
H                 -0.9565150000      2.2953010000     -5.7579130000
H                  1.0644870000      0.8439930000     -7.5424480000
H                 -0.6722190000      0.5763920000     -7.5150740000
H                  0.5664420000     -1.1760560000     -6.2012780000
H                 -0.5525500000     -0.2718150000     -5.1942660000
$end

$rem
BASIS  =  6-311++G(d,p)
GUI  =  2
JOB_TYPE  =  SP
METHOD  =  B3LYP
SCF_CONVERGENCE  = 8
SOLVENT_METHOD = sm12
$end

$smx
solvent dimethylformamide
charges CM5
$end

--------------------------------------------------------------

             Standard Nuclear Orientation (Angstroms)
    I     Atom           X                Y                Z
 ----------------------------------------------------------------
    1      C       4.1593240000    -1.3195150000     3.8517880000
    2      C       3.3650120000    -0.9824240000     4.9492070000
    3      C       2.4725130000     0.0986620000     4.8570630000
    4      C       4.0515270000    -0.5723860000     2.6758220000
    5      C       3.1643330000     0.5063550000     2.5765620000
    6      C       2.3763410000     0.8308830000     3.6858500000
    7      C       4.8879100000    -0.9243030000     1.5114420000
    8      C       4.7440090000    -0.1139800000     0.2698790000
    9      C       3.8992760000     0.9392570000     0.1574950000
   10      C       3.0519090000     1.3038080000     1.3175630000
   11      O       5.6957120000    -1.8473480000     1.5040120000
   12      O       2.2729530000     2.2457400000     1.2486020000
   13      O       5.5374740000    -0.5149220000    -0.7395180000
   14      O       3.3827850000    -1.6334080000     6.1384510000
   15      C       4.2652760000    -2.7417280000     6.3017470000
   16      C       3.7620670000     1.7331110000    -1.1106840000
   17      C       2.6348250000     1.2052350000    -2.0252300000
   18      C       2.4990470000     2.0301550000    -3.3105260000
   19      C       1.3402410000     1.6125310000    -4.2325550000
   20      C       1.5234690000     0.2030580000    -4.8268880000
   21      C       1.1400450000     2.6389490000    -5.3636380000
   22      C      -0.0076360000     2.2574160000    -6.3089960000
   23      C       0.1830110000     0.8490140000    -6.8876650000
   24      C       0.3771640000    -0.1863560000    -5.7721390000
   25      H       4.8605280000    -2.1419300000     3.8747420000
   26      H       1.8667300000     0.3408280000     5.7219580000
   27      H       1.6906020000     1.6654590000     3.6082530000
   28      H       6.0493640000    -1.2712900000    -0.3966120000
   29      H       4.1061190000    -3.0967310000     7.3179390000
   30      H       5.3095280000    -2.4375370000     6.1804240000
   31      H       4.0301150000    -3.5426330000     5.5939480000
   32      H       4.7098980000     1.7068230000    -1.6544850000
   33      H       3.5475120000     2.7719110000    -0.8479090000
   34      H       1.6890580000     1.2311360000    -1.4733210000
   35      H       2.8380400000     0.1570310000    -2.2639230000
   36      H       3.4401790000     1.9834750000    -3.8752820000
   37      H       2.3613320000     3.0834100000    -3.0350130000
   38      H       0.4197600000     1.6033930000    -3.6289920000
   39      H       1.6077980000    -0.5403590000    -4.0284840000
   40      H       2.4736870000     0.1755350000    -5.3789350000
   41      H       2.0725010000     2.7171870000    -5.9401150000
   42      H       0.9585950000     3.6302940000    -4.9334570000
   43      H      -0.0892060000     2.9925050000    -7.1167470000
   44      H      -0.9565150000     2.2953010000    -5.7579130000
   45      H       1.0644870000     0.8439930000    -7.5424480000
   46      H      -0.6722190000     0.5763920000    -7.5150740000
   47      H       0.5664420000    -1.1760560000    -6.2012780000
   48      H      -0.5525500000    -0.2718150000    -5.1942660000
 ----------------------------------------------------------------

   15   -1077.7923459572      7.34e-09  Convergence criterion met
 Total energy in the final basis set =    -1077.8174651716

                    Orbital Energies (a.u.)
 --------------------------------------------------------------

 Alpha MOs
 -- Occupied --
-19.1769 -19.1677 -19.1486 -19.1226 -10.2921 -10.2753 -10.2648 -10.2596
-10.2203 -10.2128 -10.2027 -10.2019 -10.1984 -10.1978 -10.1948 -10.1761
-10.1705 -10.1684 -10.1638 -10.1633 -10.1631 -10.1631 -10.1627 -10.1622
 -1.1070  -1.0838  -1.0659  -1.0557  -0.8905  -0.8440  -0.8363  -0.8008
 -0.7814  -0.7770  -0.7470  -0.7412  -0.7153  -0.7032  -0.6716  -0.6494
 -0.6290  -0.6118  -0.6068  -0.5984  -0.5755  -0.5731  -0.5538  -0.5448
 -0.5212  -0.5106  -0.5081  -0.4782  -0.4775  -0.4724  -0.4686  -0.4644
 -0.4566  -0.4504  -0.4457  -0.4418  -0.4358  -0.4264  -0.4236  -0.4230
 -0.4161  -0.4126  -0.3989  -0.3952  -0.3846  -0.3821  -0.3800  -0.3781
 -0.3676  -0.3541  -0.3474  -0.3463  -0.3440  -0.3381  -0.3357  -0.3282
 -0.3175  -0.3037  -0.2986  -0.2955  -0.2846  -0.2741  -0.2644  -0.2433

          Ground-State Mulliken Net Atomic Charges

     Atom                 Charge (a.u.)
  ----------------------------------------
      1 C                     1.404738
      2 C                    -0.367431
      3 C                    -0.047775
      4 C                     1.071838
      5 C                    -1.251878
      6 C                     0.170710
      7 C                    -0.804338
      8 C                    -0.673859
      9 C                     1.169567
     10 C                    -1.943906
     11 O                    -0.269374
     12 O                    -0.294396
     13 O                    -0.189230
     14 O                    -0.178041
     15 C                    -0.138618
     16 C                     0.312994
     17 C                    -0.535837
     18 C                    -0.322274
     19 C                     0.775795
     20 C                    -0.482569
     21 C                    -0.403955
     22 C                    -0.347011
     23 C                    -0.382961
     24 C                    -0.353915
     25 H                     0.236483
     26 H                     0.281390
     27 H                     0.202834
     28 H                     0.298766
     29 H                     0.252406
     30 H                     0.209466
     31 H                     0.209139
     32 H                     0.230235
     33 H                     0.176422
     34 H                     0.113427
     35 H                     0.107727
     36 H                     0.098667
     37 H                     0.130765
     38 H                     0.060001
     39 H                     0.145900
     40 H                     0.118198
     41 H                     0.126826
     42 H                     0.161018
     43 H                     0.204701
     44 H                     0.108939
     45 H                     0.100995
     46 H                     0.199687
     47 H                     0.189673
     48 H                     0.118064
  ----------------------------------------
  Sum of atomic charges =     0.000000

                    Cartesian Multipole Moments
 -----------------------------------------------------------------
    Charge (ESU x 10^10)
                -0.0000
    Dipole Moment (Debye)
         X       0.9359      Y      -2.9989      Z       3.0319
       Tot       4.3660
    Quadrupole Moments (Debye-Ang)
        XX    -140.7144     XY      -9.7208     YY    -144.8467
        XZ      15.3229     YZ     -13.7976     ZZ    -120.8573

 Total job time:  2241.32s(wall), 16846.91s(cpu)
        *  Thank you very much for using Q-Chem.  Have a nice day.  *
