 Gaussian 16, Revision A.03,
 Gaussian 16:  ES64L-G16RevA.03 25-Dec-2016

 --------------------------------------
 #P UB3LYP/6-311++G(d,p) nosym opt freq
 --------------------------------------

 --------
 Oxidized
 --------
 Symbolic Z-matrix:
 Charge =  0 Multiplicity = 1

 SCF Done:  E(UB3LYP) =  -1077.79345616     A.U. after   16 cycles
 Optimization completed.
    -- Stationary point found.
 Normal termination of Gaussian 16 at Mon Jan  8 21:41:45 2024.

 ----------------------------------------------------------------------
 #P Geom=AllCheck Guess=TCheck SCRF=Check GenChk UB3LYP/6-311++G(d,p) F
 req
 ----------------------------------------------------------------------

 Structure from the checkpoint file:  "305.chk"
 --------
 Oxidized
 --------
 Charge =  0 Multiplicity = 1

                          Input orientation:
 ---------------------------------------------------------------------
 Center     Atomic      Atomic             Coordinates (Angstroms)
 Number     Number       Type             X           Y           Z
 ---------------------------------------------------------------------
      1          6           0        4.159324   -1.319515    3.851788
      2          6           0        3.365012   -0.982424    4.949207
      3          6           0        2.472513    0.098662    4.857063
      4          6           0        4.051527   -0.572386    2.675822
      5          6           0        3.164333    0.506355    2.576562
      6          6           0        2.376341    0.830883    3.685850
      7          6           0        4.887910   -0.924303    1.511442
      8          6           0        4.744009   -0.113980    0.269879
      9          6           0        3.899276    0.939257    0.157495
     10          6           0        3.051909    1.303808    1.317563
     11          8           0        5.695712   -1.847348    1.504012
     12          8           0        2.272953    2.245740    1.248602
     13          8           0        5.537474   -0.514922   -0.739518
     14          8           0        3.382785   -1.633408    6.138451
     15          6           0        4.265276   -2.741728    6.301747
     16          6           0        3.762067    1.733111   -1.110684
     17          6           0        2.634825    1.205235   -2.025230
     18          6           0        2.499047    2.030155   -3.310526
     19          6           0        1.340241    1.612531   -4.232555
     20          6           0        1.523469    0.203058   -4.826888
     21          6           0        1.140045    2.638949   -5.363638
     22          6           0       -0.007636    2.257416   -6.308996
     23          6           0        0.183011    0.849014   -6.887665
     24          6           0        0.377164   -0.186356   -5.772139
     25          1           0        4.860528   -2.141930    3.874742
     26          1           0        1.866730    0.340828    5.721958
     27          1           0        1.690602    1.665459    3.608253
     28          1           0        6.049364   -1.271290   -0.396612
     29          1           0        4.106119   -3.096731    7.317939
     30          1           0        5.309528   -2.437537    6.180424
     31          1           0        4.030115   -3.542633    5.593948
     32          1           0        4.709898    1.706823   -1.654485
     33          1           0        3.547512    2.771911   -0.847909
     34          1           0        1.689058    1.231136   -1.473321
     35          1           0        2.838040    0.157031   -2.263923
     36          1           0        3.440179    1.983475   -3.875282
     37          1           0        2.361332    3.083410   -3.035013
     38          1           0        0.419760    1.603393   -3.628992
     39          1           0        1.607798   -0.540359   -4.028484
     40          1           0        2.473687    0.175535   -5.378935
     41          1           0        2.072501    2.717187   -5.940115
     42          1           0        0.958595    3.630294   -4.933457
     43          1           0       -0.089206    2.992505   -7.116747
     44          1           0       -0.956515    2.295301   -5.757913
     45          1           0        1.064487    0.843993   -7.542448
     46          1           0       -0.672219    0.576392   -7.515074
     47          1           0        0.566442   -1.176056   -6.201278
     48          1           0       -0.552550   -0.271815   -5.194266
 ---------------------------------------------------------------------

 SCF Done:  E(UB3LYP) =  -1077.79345616     A.U. after    1 cycles

 Alpha  occ. eigenvalues --  -19.18013 -19.17545 -19.14857 -19.12102 -10.29218
 Alpha  occ. eigenvalues --  -10.27346 -10.26603 -10.26350 -10.24415 -10.21571
 Alpha  occ. eigenvalues --  -10.20464 -10.20367 -10.20182 -10.20148 -10.20037
 Alpha  occ. eigenvalues --  -10.17368 -10.16606 -10.16533 -10.16012 -10.15948
 Alpha  occ. eigenvalues --  -10.15922 -10.15894 -10.15799 -10.15794  -1.10608
 Alpha  occ. eigenvalues --   -1.09634  -1.06535  -1.05355  -0.89422  -0.84362
 Alpha  occ. eigenvalues --   -0.83278  -0.80226  -0.78446  -0.77891  -0.74737
 Alpha  occ. eigenvalues --   -0.73703  -0.72590  -0.70302  -0.67154  -0.65290
 Alpha  occ. eigenvalues --   -0.62939  -0.61045  -0.60842  -0.59618  -0.57850
 Alpha  occ. eigenvalues --   -0.57167  -0.55021  -0.54804  -0.52276  -0.51557
 Alpha  occ. eigenvalues --   -0.51465  -0.49452  -0.47439  -0.47318  -0.46974
 Alpha  occ. eigenvalues --   -0.46506  -0.46059  -0.45214  -0.44587  -0.43909
 Alpha  occ. eigenvalues --   -0.43639  -0.42998  -0.42287  -0.42069  -0.41808
 Alpha  occ. eigenvalues --   -0.41388  -0.39886  -0.39501  -0.39092  -0.38490
 Alpha  occ. eigenvalues --   -0.37983  -0.37484  -0.36494  -0.35995  -0.35105
 Alpha  occ. eigenvalues --   -0.34514  -0.34216  -0.33895  -0.33306  -0.32424
 Alpha  occ. eigenvalues --   -0.31252  -0.30285  -0.29545  -0.29183  -0.28814
 Alpha  occ. eigenvalues --   -0.27138  -0.26558  -0.24717
 Alpha virt. eigenvalues --   -0.12349  -0.05233  -0.02269  -0.01540  -0.00576
 Alpha virt. eigenvalues --   -0.00087   0.00354   0.00626   0.00972   0.01668
 Alpha virt. eigenvalues --    0.01996   0.02051   0.02384   0.02549   0.02914

  Beta  occ. eigenvalues --  -19.18013 -19.17545 -19.14857 -19.12102 -10.29218
  Beta  occ. eigenvalues --  -10.27346 -10.26603 -10.26350 -10.24415 -10.21571
  Beta  occ. eigenvalues --  -10.20464 -10.20367 -10.20182 -10.20148 -10.20037
  Beta  occ. eigenvalues --  -10.17368 -10.16606 -10.16533 -10.16012 -10.15948
  Beta  occ. eigenvalues --  -10.15922 -10.15894 -10.15799 -10.15794  -1.10608
  Beta  occ. eigenvalues --   -1.09634  -1.06535  -1.05355  -0.89422  -0.84362
  Beta  occ. eigenvalues --   -0.83278  -0.80226  -0.78446  -0.77891  -0.74737
  Beta  occ. eigenvalues --   -0.73703  -0.72590  -0.70302  -0.67154  -0.65290
  Beta  occ. eigenvalues --   -0.62939  -0.61045  -0.60842  -0.59618  -0.57850
  Beta  occ. eigenvalues --   -0.57167  -0.55021  -0.54804  -0.52276  -0.51557
  Beta  occ. eigenvalues --   -0.51465  -0.49452  -0.47439  -0.47318  -0.46974
  Beta  occ. eigenvalues --   -0.46506  -0.46059  -0.45214  -0.44587  -0.43909
  Beta  occ. eigenvalues --   -0.43639  -0.42998  -0.42287  -0.42069  -0.41808
  Beta  occ. eigenvalues --   -0.41388  -0.39886  -0.39501  -0.39092  -0.38490
  Beta  occ. eigenvalues --   -0.37983  -0.37484  -0.36494  -0.35995  -0.35105
  Beta  occ. eigenvalues --   -0.34514  -0.34216  -0.33895  -0.33306  -0.32424
  Beta  occ. eigenvalues --   -0.31252  -0.30285  -0.29545  -0.29183  -0.28814
  Beta  occ. eigenvalues --   -0.27138  -0.26558  -0.24717
  Beta virt. eigenvalues --   -0.12349  -0.05233  -0.02269  -0.01540  -0.00576
  Beta virt. eigenvalues --   -0.00087   0.00354   0.00626   0.00972   0.01668
  Beta virt. eigenvalues --    0.01996   0.02051   0.02384   0.02549   0.02914

 Mulliken charges and spin densities:
               1          2
     1  C    0.915126  -0.000000
     2  C   -0.948565   0.000000
     3  C   -0.318790   0.000000
     4  C    0.876871   0.000000
     5  C   -0.462489   0.000000
     6  C    0.253710   0.000000
     7  C   -0.699822  -0.000000
     8  C   -0.779301   0.000000
     9  C    1.659600   0.000000
    10  C   -1.180197  -0.000000
    11  O   -0.274191  -0.000000
    12  O   -0.209645   0.000000
    13  O   -0.188935  -0.000000
    14  O   -0.148266  -0.000000
    15  C   -0.338423   0.000000
    16  C    0.068160  -0.000000
    17  C   -0.551476   0.000000
    18  C   -0.714879  -0.000000
    19  C    0.944135   0.000000
    20  C   -0.469104  -0.000000
    21  C   -0.443971  -0.000000
    22  C   -0.306666   0.000000
    23  C   -0.386705  -0.000000
    24  C   -0.334953   0.000000
    25  H    0.171487   0.000000
    26  H    0.206479  -0.000000
    27  H    0.202989   0.000000
    28  H    0.290402   0.000000
    29  H    0.190714   0.000000
    30  H    0.164414   0.000000
    31  H    0.163572   0.000000
    32  H    0.233480   0.000000
    33  H    0.227850   0.000000
    34  H    0.185549   0.000000
    35  H    0.155548  -0.000000
    36  H    0.108415   0.000000
    37  H    0.133435   0.000000
    38  H    0.143902  -0.000000
    39  H    0.133552  -0.000000
    40  H    0.156639  -0.000000
    41  H    0.150215  -0.000000
    42  H    0.137626   0.000000
    43  H    0.175442   0.000000
    44  H    0.124573  -0.000000
    45  H    0.117284  -0.000000
    46  H    0.168256  -0.000000
    47  H    0.162880  -0.000000
    48  H    0.134076   0.000000
 Sum of Mulliken charges =  -0.00000   0.00000

 Dipole moment (field-independent basis, Debye):
    X=              0.6720    Y=             -2.3300    Z=              2.2425  Tot=              3.3030
 Quadrupole moment (field-independent basis, Debye-Ang):
   XX=           -142.5229   YY=           -145.6199   ZZ=           -126.6101
   XY=             -7.2145   XZ=             11.6569   YZ=            -10.9305

  Exact polarizability: 217.483 -46.453 237.718   8.515 -46.135 324.576
 Approx polarizability: 372.400-113.526 409.678 -28.551 -44.107 409.447

                      1                      2                      3
                      A                      A                      A
 Frequencies --     14.6012                19.8328                23.0570
 Red. masses --      4.9094                 4.3350                 3.7105
 Frc consts  --      0.0006                 0.0010                 0.0012
 IR Inten    --      0.0758                 0.4551                 0.5625

                      4                      5                      6
                      A                      A                      A
 Frequencies --     55.3282                64.9373                73.1324
 Red. masses --      4.6597                 3.4808                 5.2910
 Frc consts  --      0.0084                 0.0086                 0.0167
 IR Inten    --      1.6114                 0.1607                 0.2108

                      7                      8                      9
                      A                      A                      A
 Frequencies --     94.6070               110.0750               129.4657
 Red. masses --      5.2831                 2.3276                 4.1284
 Frc consts  --      0.0279                 0.0166                 0.0408
 IR Inten    --      0.3082                 0.0615                 3.8470

                     10                     11                     12
                      A                      A                      A
 Frequencies --    130.8074               150.3839               158.0141
 Red. masses --      3.8152                 4.6239                 4.2638
 Frc consts  --      0.0385                 0.0616                 0.0627
 IR Inten    --      3.0174                 1.0592                 0.5642

                     13                     14                     15
                      A                      A                      A
 Frequencies --    175.1471               210.4315               228.6132
 Red. masses --      2.8037                 2.0447                 1.7229
 Frc consts  --      0.0507                 0.0533                 0.0531
 IR Inten    --      0.0609                 0.0845                 0.0032

                     16                     17                     18
                      A                      A                      A
 Frequencies --    230.9402               266.0854               286.3189
 Red. masses --      1.8675                 3.7027                 3.5145
 Frc consts  --      0.0587                 0.1545                 0.1698
 IR Inten    --      0.0574                 2.6661                 0.5395

                     19                     20                     21
                      A                      A                      A
 Frequencies --    305.9256               322.2074               337.9100
 Red. masses --      3.0443                 2.0231                 3.3156
 Frc consts  --      0.1679                 0.1237                 0.2231
 IR Inten    --      4.7182                 0.2829                 0.9603

                     22                     23                     24
                      A                      A                      A
 Frequencies --    343.0625               362.2543               388.0757
 Red. masses --      5.7822                 6.5269                 4.5404
 Frc consts  --      0.4010                 0.5046                 0.4029
 IR Inten    --      3.7600                 1.0325                14.9380

                     25                     26                     27
                      A                      A                      A
 Frequencies --    421.4423               425.1805               438.7541
 Red. masses --      6.4524                 4.6430                 2.3519
 Frc consts  --      0.6752                 0.4945                 0.2668
 IR Inten    --     12.6697                11.3436                 0.3935

                     28                     29                     30
                      A                      A                      A
 Frequencies --    446.1356               464.6030               471.2678
 Red. masses --      2.8834                 3.4377                 3.2950
 Frc consts  --      0.3381                 0.4372                 0.4312
 IR Inten    --      0.0869                 1.7400                11.9983

                     31                     32                     33
                      A                      A                      A
 Frequencies --    477.4174               514.3108               528.8617
 Red. masses --      5.2690                 6.3743                 6.0822
 Frc consts  --      0.7076                 0.9934                 1.0023
 IR Inten    --      0.7408                 3.6040                 5.6817

                     34                     35                     36
                      A                      A                      A
 Frequencies --    556.3292               599.7096               633.8843
 Red. masses --      2.0117                 4.3302                 1.3664
 Frc consts  --      0.3668                 0.9176                 0.3235
 IR Inten    --      3.3140                 2.8252                58.3712

                     37                     38                     39
                      A                      A                      A
 Frequencies --    644.4557               690.1077               695.4834
 Red. masses --      2.6911                 4.7252                 6.9219
 Frc consts  --      0.6585                 1.3259                 1.9727
 IR Inten    --     25.1364                 7.4292                11.9149

                     40                     41                     42
                      A                      A                      A
 Frequencies --    702.7442               735.3078               755.5050
 Red. masses --      3.7457                 1.2894                 7.7836
 Frc consts  --      1.0899                 0.4107                 2.6176
 IR Inten    --      8.7443                 4.9701                 3.0767

                     43                     44                     45
                      A                      A                      A
 Frequencies --    761.3356               770.5936               791.0107
 Red. masses --      5.7931                 2.6824                 1.9646
 Frc consts  --      1.9784                 0.9385                 0.7243
 IR Inten    --     25.2597                 3.8683                 2.2171

                     46                     47                     48
                      A                      A                      A
 Frequencies --    794.7361               837.4165               848.2781
 Red. masses --      1.8587                 1.9668                 2.1461
 Frc consts  --      0.6917                 0.8126                 0.9099
 IR Inten    --      1.1272                 8.1702                 1.9379

                     49                     50                     51
                      A                      A                      A
 Frequencies --    864.5327               889.3266               894.5574
 Red. masses --      1.4696                 2.0431                 1.4910
 Frc consts  --      0.6472                 0.9521                 0.7030
 IR Inten    --     19.4865                17.2742                17.0391

                     52                     53                     54
                      A                      A                      A
 Frequencies --    896.9476               923.4467               928.8088
 Red. masses --      1.9952                 1.8228                 2.0791
 Frc consts  --      0.9458                 0.9158                 1.0568
 IR Inten    --      3.1365                28.8058                27.1233

                     55                     56                     57
                      A                      A                      A
 Frequencies --    954.5671               978.0114               999.8577
 Red. masses --      3.7816                 2.6713                 1.3217
 Frc consts  --      2.0302                 1.5054                 0.7785
 IR Inten    --      1.3034                11.6634                 0.4999

                     58                     59                     60
                      A                      A                      A
 Frequencies --   1013.4840              1017.7463              1041.3237
 Red. masses --      3.7962                 1.8732                 1.9881
 Frc consts  --      2.2974                 1.1432                 1.2702
 IR Inten    --     17.8049                 3.9572                 2.1562

                     61                     62                     63
                      A                      A                      A
 Frequencies --   1042.4635              1051.1082              1055.6579
 Red. masses --      2.5832                 4.2526                 2.4442
 Frc consts  --      1.6540                 2.7682                 1.6048
 IR Inten    --      0.7435                43.9240                39.1636

                     64                     65                     66
                      A                      A                      A
 Frequencies --   1074.6186              1095.0266              1104.5061
 Red. masses --      1.3354                 1.5901                 2.2029
 Frc consts  --      0.9086                 1.1234                 1.5834
 IR Inten    --      7.4591                 0.1128                11.8605

                     67                     68                     69
                      A                      A                      A
 Frequencies --   1105.5768              1118.3953              1140.6525
 Red. masses --      2.1431                 1.7881                 1.7224
 Frc consts  --      1.5434                 1.3177                 1.3204
 IR Inten    --     10.8983                13.9312                19.1264

                     70                     71                     72
                      A                      A                      A
 Frequencies --   1167.9066              1184.3357              1194.1695
 Red. masses --      1.2730                 2.0040                 1.6357
 Frc consts  --      1.0230                 1.6561                 1.3743
 IR Inten    --      0.6498                 3.5784                34.0797

                     73                     74                     75
                      A                      A                      A
 Frequencies --   1202.3200              1213.6699              1221.7754
 Red. masses --      1.6839                 1.6998                 2.1142
 Frc consts  --      1.4342                 1.4752                 1.8594
 IR Inten    --     23.3586                19.6898                88.8413

                     76                     77                     78
                      A                      A                      A
 Frequencies --   1257.9018              1263.8733              1279.1154
 Red. masses --      1.9546                 1.3955                 1.3841
 Frc consts  --      1.8222                 1.3134                 1.3342
 IR Inten    --     68.5073                47.9505                32.7754

                     79                     80                     81
                      A                      A                      A
 Frequencies --   1288.7386              1289.9771              1293.7894
 Red. masses --      1.2411                 1.3099                 1.6850
 Frc consts  --      1.2144                 1.2843                 1.6618
 IR Inten    --      7.9519                 6.0300                 9.5927

                     82                     83                     84
                      A                      A                      A
 Frequencies --   1301.9644              1310.9971              1327.7601
 Red. masses --      2.2779                 1.5952                 1.4597
 Frc consts  --      2.2750                 1.6154                 1.5162
 IR Inten    --     66.0310               215.8822               182.4424

                     85                     86                     87
                      A                      A                      A
 Frequencies --   1329.4289              1345.4257              1348.7171
 Red. masses --      1.3154                 1.7823                 1.3695
 Frc consts  --      1.3697                 1.9009                 1.4677
 IR Inten    --     62.7761               172.0379               106.6619

                     88                     89                     90
                      A                      A                      A
 Frequencies --   1364.6372              1367.4578              1369.7359
 Red. masses --      1.3379                 1.3709                 6.6367
 Frc consts  --      1.4679                 1.5104                 7.3363
 IR Inten    --      2.6253                 0.6224                33.6690

                     91                     92                     93
                      A                      A                      A
 Frequencies --   1374.0934              1378.0622              1381.5007
 Red. masses --      1.3838                 1.4914                 1.4994
 Frc consts  --      1.5394                 1.6687                 1.6861
 IR Inten    --      0.6262                 1.3033                 1.2198

                     94                     95                     96
                      A                      A                      A
 Frequencies --   1394.0892              1397.6585              1399.0135
 Red. masses --      1.5665                 2.0155                 1.5460
 Frc consts  --      1.7937                 2.3197                 1.7828
 IR Inten    --     75.8272               226.8238                25.1444

                     97                     98                     99
                      A                      A                      A
 Frequencies --   1455.4526              1478.7458              1480.5737
 Red. masses --      2.7242                 1.2499                 1.0867
 Frc consts  --      3.4000                 1.6104                 1.4036
 IR Inten    --     19.9891                 4.7856                 0.3663

                    100                    101                    102
                      A                      A                      A
 Frequencies --   1482.5366              1486.5463              1488.0279
 Red. masses --      1.2659                 1.0930                 1.0913
 Frc consts  --      1.6393                 1.4230                 1.4237
 IR Inten    --      6.6456                 1.7680                 2.7665

                    103                    104                    105
                      A                      A                      A
 Frequencies --   1490.1571              1493.3979              1494.4382
 Red. masses --      1.0893                 1.0819                 1.0448
 Frc consts  --      1.4252                 1.4216                 1.3747
 IR Inten    --      5.0017                10.1585                10.7408

                    106                    107                    108
                      A                      A                      A
 Frequencies --   1503.0851              1503.5852              1507.6135
 Red. masses --      1.0993                 1.0791                 1.0979
 Frc consts  --      1.4633                 1.4373                 1.4703
 IR Inten    --      6.0170                54.2441                 2.8167

                    109                    110                    111
                      A                      A                      A
 Frequencies --   1524.0831              1604.3652              1628.4907
 Red. masses --      2.7985                 7.9815                 6.2083
 Frc consts  --      3.8299                12.1044                 9.7005
 IR Inten    --     38.2665                28.0692               289.2270

                    112                    113                    114
                      A                      A                      A
 Frequencies --   1692.7303              1697.9289              1701.0357
 Red. masses --      8.9638                10.3934                10.6774
 Frc consts  --     15.1328                17.6542                18.2029
 IR Inten    --     24.2537                79.8271               364.7814

                    115                    116                    117
                      A                      A                      A
 Frequencies --   2965.7562              2986.1564              2988.4500
 Red. masses --      1.0803                 1.0687                 1.0632
 Frc consts  --      5.5985                 5.6147                 5.5942
 IR Inten    --      3.7382                15.2067                 5.2614

                    118                    119                    120
                      A                      A                      A
 Frequencies --   2994.4933              2997.5351              2999.0084
 Red. masses --      1.0717                 1.0645                 1.0633
 Frc consts  --      5.6621                 5.6356                 5.6346
 IR Inten    --     15.6154                39.8150                 8.3246

                    121                    122                    123
                      A                      A                      A
 Frequencies --   3003.0596              3014.7495              3021.9514
 Red. masses --      1.0600                 1.0339                 1.0988
 Frc consts  --      5.6323                 5.5366                 5.9122
 IR Inten    --     74.6362                44.8502                 7.0520

                    124                    125                    126
                      A                      A                      A
 Frequencies --   3024.8422              3038.6384              3042.6159
 Red. masses --      1.0607                 1.0954                 1.0989
 Frc consts  --      5.7182                 5.9589                 5.9939
 IR Inten    --     13.2359                69.1013                41.2499

                    127                    128                    129
                      A                      A                      A
 Frequencies --   3043.7760              3047.0869              3048.6928
 Red. masses --      1.0899                 1.0615                 1.0985
 Frc consts  --      5.9490                 5.8068                 6.0155
 IR Inten    --     84.0311                27.8989                41.2246

                    130                    131                    132
                      A                      A                      A
 Frequencies --   3054.2130              3065.2713              3078.1929
 Red. masses --      1.0965                 1.1014                 1.1068
 Frc consts  --      6.0264                 6.0974                 6.1787
 IR Inten    --    103.6039                21.9744                28.7351

                    133                    134                    135
                      A                      A                      A
 Frequencies --   3095.1565              3143.0719              3189.2030
 Red. masses --      1.1057                 1.1003                 1.0887
 Frc consts  --      6.2408                 6.4042                 6.5240
 IR Inten    --     14.6641                19.7245                 1.0378

                    136                    137                    138
                      A                      A                      A
 Frequencies --   3203.9500              3217.9468              3627.2416
 Red. masses --      1.0944                 1.0901                 1.0643
 Frc consts  --      6.6188                 6.6506                 8.2500
 IR Inten    --      3.0154                 4.7158               141.8845

 - Thermochemistry -
 -------------------
 Temperature   298.150 Kelvin.  Pressure   1.00000 Atm.
 Atom     1 has atomic number  6 and mass  12.00000

 Molecular mass:   328.16746 amu.
 Principal axes and moments of inertia in atomic units:
                           1         2         3
     Eigenvalues --  3209.62282********************
           X            0.26956   0.74062   0.61548
           Y           -0.23626  -0.56874   0.78785
           Z            0.93355  -0.35779   0.02167
 This molecule is an asymmetric top.
 Rotational symmetry number  1.
 Warning -- assumption of classical behavior for rotation
           may cause significant error
 Rotational temperatures (Kelvin)      0.02699     0.00379     0.00365
 Rotational constants (GHZ):           0.56229     0.07905     0.07595
 Zero-point vibrational energy    1061857.2 (Joules/Mol)
                                  253.78997 (Kcal/Mol)
 Warning -- explicit consideration of  35 degrees of freedom as
           vibrations may cause significant error
 Vibrational temperatures:     21.01    28.53    33.17    79.60    93.43
          (Kelvin)            105.22   136.12   158.37   186.27   188.20
                              216.37   227.35   252.00   302.76   328.92
                              332.27   382.84   411.95   440.16   463.58
                              486.18   493.59   521.20   558.35   606.36
                              611.74   631.27   641.89   668.46   678.05
                              686.90   739.98   760.91   800.43   862.85
                              912.02   927.23   992.91  1000.65  1011.09
                             1057.94  1087.00  1095.39  1108.71  1138.09
                             1143.45  1204.86  1220.48  1243.87  1279.54
                             1287.07  1290.51  1328.63  1336.35  1373.41
                             1407.14  1438.57  1458.18  1464.31  1498.23
                             1499.87  1512.31  1518.86  1546.14  1575.50
                             1589.14  1590.68  1609.12  1641.14  1680.36
                             1703.99  1718.14  1729.87  1746.20  1757.86
                             1809.84  1818.43  1840.36  1854.21  1855.99
                             1861.47  1873.24  1886.23  1910.35  1912.75
                             1935.77  1940.50  1963.41  1967.47  1970.74
                             1977.01  1982.72  1987.67  2005.78  2010.92
                             2012.87  2094.07  2127.59  2130.22  2133.04
                             2138.81  2140.94  2144.00  2148.67  2150.16
                             2162.60  2163.32  2169.12  2192.82  2308.32
                             2343.03  2435.46  2442.94  2447.41  4267.06
                             4296.41  4299.71  4308.41  4312.78  4314.90
                             4320.73  4337.55  4347.91  4352.07  4371.92
                             4377.65  4379.31  4384.08  4386.39  4394.33
                             4410.24  4428.83  4453.24  4522.18  4588.55
                             4609.77  4629.91  5218.79

 Zero-point correction=                           0.404440 (Hartree/Particle)
 Thermal correction to Energy=                    0.426853
 Thermal correction to Enthalpy=                  0.427797
 Thermal correction to Gibbs Free Energy=         0.350348
 Sum of electronic and zero-point Energies=          -1077.389016
 Sum of electronic and thermal Energies=             -1077.366603
 Sum of electronic and thermal Enthalpies=           -1077.365659
 Sum of electronic and thermal Free Energies=        -1077.443108

                     E (Thermal)             CV                S
                      KCal/Mol        Cal/Mol-Kelvin    Cal/Mol-Kelvin
 Total                  267.854             86.669            163.006
 Electronic               0.000              0.000              0.000
 Translational            0.889              2.981             43.260
 Rotational               0.889              2.981             35.808
 Vibrational            266.077             80.708             83.938
 Vibration     1          0.593              1.986              7.259
 Vibration     2          0.593              1.986              6.651
 Vibration     3          0.593              1.985              6.352
 Vibration     4          0.596              1.975              4.617
 Vibration     5          0.597              1.971              4.301
 Vibration     6          0.599              1.967              4.067
 Vibration     7          0.603              1.953              3.562
 Vibration     8          0.606              1.941              3.268
 Vibration     9          0.612              1.924              2.954
 Vibration    10          0.612              1.923              2.934
 Vibration    11          0.618              1.902              2.667
 Vibration    12          0.621              1.894              2.573
 Vibration    13          0.627              1.873              2.380
 Vibration    14          0.643              1.825              2.040
 Vibration    15          0.651              1.797              1.890
 Vibration    16          0.653              1.794              1.872
 Vibration    17          0.672              1.735              1.622
 Vibration    18          0.684              1.699              1.496
 Vibration    19          0.696              1.662              1.384
 Vibration    20          0.707              1.631              1.299
 Vibration    21          0.718              1.600              1.222
 Vibration    22          0.722              1.589              1.198
 Vibration    23          0.736              1.550              1.112
 Vibration    24          0.756              1.496              1.008
 Vibration    25          0.784              1.424              0.887
 Vibration    26          0.787              1.415              0.875
 Vibration    27          0.799              1.386              0.831
 Vibration    28          0.805              1.369              0.808
 Vibration    29          0.822              1.329              0.753
 Vibration    30          0.828              1.314              0.734
 Vibration    31          0.834              1.300              0.717
 Vibration    32          0.869              1.218              0.623
 Vibration    33          0.884              1.186              0.590
 Vibration    34          0.912              1.126              0.531
 Vibration    35          0.958              1.032              0.450

 Optimization completed.
    -- Stationary point found.
 Normal termination of Gaussian 16 at Tue Jan  9 02:49:04 2024.
