 Gaussian 16, Revision A.03,
 Gaussian 16:  ES64L-G16RevA.03 25-Dec-2016

 ----------------------------------------------------------------
 #P UB3LYP/6-311++G(d,p) SCRF=(PCM,Solvent=n,n-DiMethylFormamide)
 ----------------------------------------------------------------

 -------
 Reduced
 -------
 Symbolic Z-matrix:
 Charge = -2 Multiplicity = 1

                         Standard orientation:
 ---------------------------------------------------------------------
 Center     Atomic      Atomic             Coordinates (Angstroms)
 Number     Number       Type             X           Y           Z
 ---------------------------------------------------------------------
      1          6           0        2.249168   -2.571221   -0.088486
      2          6           0        3.479891   -3.136801    0.170375
      3          6           0        4.598914   -2.299803    0.434717
      4          6           0        2.049685   -1.165811   -0.099161
      5          6           0        3.185136   -0.318557    0.172317
      6          6           0        4.438056   -0.930131    0.431738
      7          6           0        0.722065   -0.654587   -0.386642
      8          6           0        0.605804    0.784818   -0.355214
      9          6           0        1.765983    1.645789   -0.098743
     10          6           0        3.087483    1.125936    0.176945
     11          6           0       -0.622292    1.478930   -0.589058
     12          6           0       -0.738243    2.848763   -0.621714
     13          6           0        0.406936    3.661044   -0.397839
     14          6           0        1.612972    3.054197   -0.135860
     15          8           0       -0.249969   -1.457436   -0.650951
     16          8           0        4.099134    1.882374    0.402183
     17          1           0        5.269210   -0.260062    0.628166
     18          1           0        2.512641    3.631424    0.050949
     19          1           0        1.376220   -3.181922   -0.294229
     20          8           0       -1.816244    0.779079   -0.864655
     21          1           0        0.318253    4.744328   -0.426457
     22          1           0        5.573780   -2.739159    0.638516
     23          6           0       -2.538178    0.258866    0.153259
     24          6           0       -3.639652   -0.553389   -0.200274
     25          6           0       -2.305127    0.531033    1.504053
     26          6           0       -3.163296    0.033887    2.485502
     27          6           0       -4.496816   -1.025508    0.788397
     28          6           0       -4.271921   -0.733120    2.136496
     29          8           0       -3.927097   -0.830724   -1.515687
     30          6           0       -2.926802   -1.610033   -2.213263
     31          1           0        3.595602   -4.219143    0.174124
     32          1           0       -1.714556    3.280929   -0.816655
     33          1           0       -1.445429    1.132638    1.769288
     34          1           0       -2.958340    0.253962    3.529095
     35          1           0       -5.340008   -1.634686    0.477751
     36          1           0       -4.947080   -1.113389    2.897725
     37          1           0       -2.957631   -1.291546   -3.258400
     38          1           0       -3.203193   -2.671405   -2.148862
     39          1           0       -1.924665   -1.464117   -1.793400
 ---------------------------------------------------------------------

 SCF Done:  E(UB3LYP) =  -1110.07651361     A.U. after   18 cycles

 The electronic state is 1-A.
 Alpha  occ. eigenvalues --  -19.14641 -19.13294 -19.02029 -19.01584 -10.23049
 Alpha  occ. eigenvalues --  -10.22052 -10.21380 -10.19244 -10.17795 -10.17451
 Alpha  occ. eigenvalues --  -10.16922 -10.16858 -10.16604 -10.16576 -10.15104
 Alpha  occ. eigenvalues --  -10.15069 -10.15002 -10.15002 -10.14674 -10.14668
 Alpha  occ. eigenvalues --  -10.14600 -10.14536 -10.13895 -10.13751 -10.13710
 Alpha  occ. eigenvalues --   -1.07123  -1.03951  -0.94064  -0.93551  -0.84888
 Alpha  occ. eigenvalues --   -0.82919  -0.82255  -0.75610  -0.75012  -0.74639
 Alpha  occ. eigenvalues --   -0.72347  -0.71517  -0.70932  -0.67344  -0.64202
 Alpha  occ. eigenvalues --   -0.62725  -0.60513  -0.59378  -0.58957  -0.56026
 Alpha  occ. eigenvalues --   -0.54041  -0.51746  -0.50992  -0.50193  -0.48597
 Alpha  occ. eigenvalues --   -0.47693  -0.45532  -0.45473  -0.44537  -0.44273
 Alpha  occ. eigenvalues --   -0.43056  -0.42954  -0.42783  -0.41881  -0.39983
 Alpha  occ. eigenvalues --   -0.39822  -0.39016  -0.38067  -0.37632  -0.37484
 Alpha  occ. eigenvalues --   -0.36976  -0.36403  -0.35683  -0.35223  -0.34020
 Alpha  occ. eigenvalues --   -0.33692  -0.32893  -0.32521  -0.32012  -0.31590
 Alpha  occ. eigenvalues --   -0.30331  -0.30118  -0.27842  -0.24261  -0.23399
 Alpha  occ. eigenvalues --   -0.22556  -0.22447  -0.21934  -0.21313  -0.20122
 Alpha  occ. eigenvalues --   -0.19165  -0.10657
 Alpha virt. eigenvalues --   -0.02842  -0.00847  -0.00208   0.00029   0.00499
 Alpha virt. eigenvalues --    0.00653   0.00926   0.01285   0.01904   0.02135
 Alpha virt. eigenvalues --    0.02270   0.02685   0.03621   0.03735   0.04105

  Beta  occ. eigenvalues --  -19.14641 -19.13294 -19.02029 -19.01584 -10.23049
  Beta  occ. eigenvalues --  -10.22052 -10.21380 -10.19244 -10.17795 -10.17451
  Beta  occ. eigenvalues --  -10.16922 -10.16858 -10.16604 -10.16576 -10.15104
  Beta  occ. eigenvalues --  -10.15069 -10.15002 -10.15002 -10.14674 -10.14668
  Beta  occ. eigenvalues --  -10.14600 -10.14536 -10.13895 -10.13751 -10.13710
  Beta  occ. eigenvalues --   -1.07123  -1.03951  -0.94064  -0.93551  -0.84888
  Beta  occ. eigenvalues --   -0.82919  -0.82255  -0.75610  -0.75012  -0.74639
  Beta  occ. eigenvalues --   -0.72347  -0.71517  -0.70932  -0.67344  -0.64202
  Beta  occ. eigenvalues --   -0.62725  -0.60513  -0.59378  -0.58957  -0.56026
  Beta  occ. eigenvalues --   -0.54041  -0.51746  -0.50992  -0.50193  -0.48597
  Beta  occ. eigenvalues --   -0.47693  -0.45532  -0.45473  -0.44537  -0.44273
  Beta  occ. eigenvalues --   -0.43056  -0.42954  -0.42783  -0.41881  -0.39983
  Beta  occ. eigenvalues --   -0.39822  -0.39016  -0.38067  -0.37632  -0.37484
  Beta  occ. eigenvalues --   -0.36976  -0.36403  -0.35683  -0.35223  -0.34020
  Beta  occ. eigenvalues --   -0.33692  -0.32893  -0.32521  -0.32012  -0.31590
  Beta  occ. eigenvalues --   -0.30331  -0.30118  -0.27842  -0.24261  -0.23399
  Beta  occ. eigenvalues --   -0.22556  -0.22447  -0.21934  -0.21313  -0.20122
  Beta  occ. eigenvalues --   -0.19165  -0.10657
  Beta virt. eigenvalues --   -0.02842  -0.00847  -0.00208   0.00029   0.00499
  Beta virt. eigenvalues --    0.00653   0.00926   0.01285   0.01904   0.02135
  Beta virt. eigenvalues --    0.02270   0.02685   0.03621   0.03735   0.04105

 Mulliken charges and spin densities:
               1          2
     1  C   -0.168894   0.000000
     2  C   -0.480812   0.000000
     3  C   -0.549778   0.000000
     4  C    0.277220  -0.000000
     5  C    0.232941   0.000000
     6  C   -0.097203   0.000000
     7  C   -0.351771  -0.000000
     8  C    0.297553   0.000000
     9  C    0.656456  -0.000000
    10  C   -0.662070   0.000000
    11  C   -0.343761  -0.000000
    12  C    0.173405   0.000000
    13  C   -0.493746   0.000000
    14  C   -0.201342  -0.000000
    15  O   -0.572819   0.000000
    16  O   -0.649068  -0.000000
    17  H    0.155957   0.000000
    18  H    0.160640  -0.000000
    19  H    0.120503   0.000000
    20  O   -0.049097   0.000000
    21  H    0.171145  -0.000000
    22  H    0.155323  -0.000000
    23  C    0.699585  -0.000000
    24  C   -0.781826   0.000000
    25  C   -0.085298   0.000000
    26  C   -0.461967   0.000000
    27  C    0.017482  -0.000000
    28  C   -0.291126   0.000000
    29  O   -0.190046  -0.000000
    30  C   -0.297712   0.000000
    31  H    0.163157   0.000000
    32  H    0.164419   0.000000
    33  H    0.189237  -0.000000
    34  H    0.197736   0.000000
    35  H    0.197310  -0.000000
    36  H    0.173806  -0.000000
    37  H    0.137910  -0.000000
    38  H    0.127921   0.000000
    39  H    0.258631   0.000000
 Sum of Mulliken charges =  -2.00000  -0.00000

 Dipole moment (field-independent basis, Debye):
    X=            -13.4024    Y=             -2.7146    Z=              1.8101  Tot=             13.7938
 Quadrupole moment (field-independent basis, Debye-Ang):
   XX=           -244.1339   YY=           -180.7291   ZZ=           -158.4352
   XY=            -18.3746   XZ=            -10.8773   YZ=             -1.8410

 Normal termination of Gaussian 16 at Sun Jan 14 01:41:19 2024.
