 Q-Chem 5.4, Q-Chem, Inc., Pleasanton, CA (2021)
 Q-Chem 5.4.0 for Intel X86 EM64T Linux

User input:
--------------------------------------------------------------
$molecule
-1 2
C                 -1.8202550000      0.3084300000     -1.0859560000
C                 -1.1799730000      0.1390590000      0.3133970000
C                 -1.8796680000     -1.0457810000      1.0070480000
C                 -1.4491370000      1.4052780000      1.1625620000
C                  0.3378960000     -0.0839540000      0.1715880000
C                  0.9479750000     -1.2214140000      0.6260650000
C                  2.3642560000     -1.5116100000      0.5336760000
O                  2.8487460000     -2.5803220000      0.9751390000
C                  3.1560380000     -0.4696280000     -0.1057390000
C                  2.5762520000      0.6840450000     -0.5729150000
Br                 3.6040960000      2.0692330000     -1.4183430000
C                  1.1431690000      0.9622680000     -0.4720650000
O                  0.6510440000      2.0299010000     -0.9116800000
Br                 5.0368370000     -0.8247380000     -0.2432900000
H                 -2.9009650000      0.4688800000     -0.9882570000
H                 -1.6655130000     -0.5924330000     -1.6887340000
H                 -1.3816790000      1.1573580000     -1.6088130000
H                 -1.7601220000     -1.9768310000      0.4455360000
H                 -2.9519710000     -0.8365870000      1.0819010000
H                 -1.5002520000     -1.2084120000      2.0199820000
H                 -1.0293260000      1.2882790000      2.1670120000
H                 -2.5292370000      1.5676150000      1.2638820000
H                 -1.0010130000      2.2823180000      0.6973890000
H                  0.3827990000     -2.0109540000      1.1049260000
$end
$rem
MAX_SCF_CYCLES=200
BASIS  =  6-311++G(d,p)
GUI  =  2
JOB_TYPE  =  SP
METHOD  =  B3LYP
SOLVENT_METHOD = PCM
$end
$pcm
theory = CPCM
$end
$solvent
dielectric 37.219
opticaldielectric 1.43
$end

--------------------------------------------------------------

             Standard Nuclear Orientation (Angstroms)
    I     Atom           X                Y                Z
 ----------------------------------------------------------------
    1      C      -1.8202550000     0.3084300000    -1.0859560000
    2      C      -1.1799730000     0.1390590000     0.3133970000
    3      C      -1.8796680000    -1.0457810000     1.0070480000
    4      C      -1.4491370000     1.4052780000     1.1625620000
    5      C       0.3378960000    -0.0839540000     0.1715880000
    6      C       0.9479750000    -1.2214140000     0.6260650000
    7      C       2.3642560000    -1.5116100000     0.5336760000
    8      O       2.8487460000    -2.5803220000     0.9751390000
    9      C       3.1560380000    -0.4696280000    -0.1057390000
   10      C       2.5762520000     0.6840450000    -0.5729150000
   11      Br      3.6040960000     2.0692330000    -1.4183430000
   12      C       1.1431690000     0.9622680000    -0.4720650000
   13      O       0.6510440000     2.0299010000    -0.9116800000
   14      Br      5.0368370000    -0.8247380000    -0.2432900000
   15      H      -2.9009650000     0.4688800000    -0.9882570000
   16      H      -1.6655130000    -0.5924330000    -1.6887340000
   17      H      -1.3816790000     1.1573580000    -1.6088130000
   18      H      -1.7601220000    -1.9768310000     0.4455360000
   19      H      -2.9519710000    -0.8365870000     1.0819010000
   20      H      -1.5002520000    -1.2084120000     2.0199820000
   21      H      -1.0293260000     1.2882790000     2.1670120000
   22      H      -2.5292370000     1.5676150000     1.2638820000
   23      H      -1.0010130000     2.2823180000     0.6973890000
   24      H       0.3827990000    -2.0109540000     1.1049260000
 ----------------------------------------------------------------

    8   -5686.1023390261      8.71e-06  Convergence criterion met
 Total energy in the final basis set =    -5686.1023390261

                    Orbital Energies (a.u.)
 --------------------------------------------------------------

 Alpha MOs
 -- Occupied --
********-482.8299 -62.4835 -62.4826 -56.3039 -56.3031 -56.3003 -56.2999
-56.2994 -56.2990 -19.0897 -19.0874 -10.2400 -10.2385 -10.2315 -10.2301
-10.1848 -10.1826 -10.1671 -10.1496 -10.1462 -10.1462  -8.6921  -8.6913
 -6.5234  -6.5226  -6.5111  -6.5103  -6.5100  -6.5091  -2.6343  -2.6335
 -2.6309  -2.6302  -2.6301  -2.6294  -2.6204  -2.6203  -2.6196  -2.6195
 -1.0179  -1.0153  -0.8623  -0.8276  -0.7937  -0.7815  -0.7168  -0.6890
 -0.6760  -0.6750  -0.6033  -0.5793  -0.5303  -0.5000  -0.4723  -0.4486
 -0.4373  -0.4327  -0.4264  -0.4251  -0.4113  -0.3988  -0.3960  -0.3743
 -0.3725  -0.3700  -0.3574  -0.3390  -0.3390  -0.3266  -0.3214  -0.3055
 -0.3052  -0.2809  -0.2785  -0.2562  -0.2475  -0.2458  -0.1722

 Beta MOs
 -- Occupied --
********-482.8299 -62.4834 -62.4826 -56.3039 -56.3031 -56.3002 -56.2999
-56.2994 -56.2990 -19.0833 -19.0809 -10.2384 -10.2370 -10.2300 -10.2286
-10.1848 -10.1817 -10.1664 -10.1496 -10.1461 -10.1461  -8.6920  -8.6912
 -6.5234  -6.5226  -6.5110  -6.5102  -6.5100  -6.5091  -2.6343  -2.6335
 -2.6309  -2.6302  -2.6301  -2.6294  -2.6203  -2.6203  -2.6195  -2.6194
 -1.0067  -1.0038  -0.8576  -0.8263  -0.7922  -0.7793  -0.7149  -0.6827
 -0.6757  -0.6712  -0.5997  -0.5753  -0.5283  -0.4979  -0.4695  -0.4459
 -0.4322  -0.4289  -0.4243  -0.4146  -0.4074  -0.3931  -0.3850  -0.3707
 -0.3696  -0.3630  -0.3536  -0.3377  -0.3319  -0.3213  -0.3209  -0.3050
 -0.3009  -0.2779  -0.2562  -0.2504  -0.2409  -0.2406

          Ground-State Mulliken Net Atomic Charges

     Atom                 Charge (a.u.)    Spin (a.u.)
  --------------------------------------------------------
      1 C                    -0.700538       0.009928
      2 C                     0.633161      -0.027033
      3 C                    -0.518520       0.000460
      4 C                    -0.699900       0.009951
      5 C                     1.294253       0.098280
      6 C                    -0.551646       0.031529
      7 C                    -0.811908       0.104721
      8 O                    -0.435078       0.232958
      9 C                     0.868170       0.117459
     10 C                    -0.295973       0.076653
     11 Br                   -0.181061       0.006530
     12 C                    -0.713135       0.092429
     13 O                    -0.367845       0.244905
     14 Br                   -0.158447       0.008967
     15 H                     0.160697       0.000184
     16 H                     0.140651       0.000422
     17 H                     0.176523      -0.001136
     18 H                     0.140837      -0.000205
     19 H                     0.180049       0.000066
     20 H                     0.140809      -0.000196
     21 H                     0.140842       0.000410
     22 H                     0.160731       0.000187
     23 H                     0.176426      -0.001125
     24 H                     0.220902      -0.006343
  --------------------------------------------------------
  Sum of atomic charges =    -1.000000

                    Cartesian Multipole Moments
 -----------------------------------------------------------------
    Charge (ESU x 10^10)
                -4.8032
    Dipole Moment (Debye)
         X     -12.7908      Y       0.6129      Z       0.9159
       Tot      12.8382
    Quadrupole Moments (Debye-Ang)
        XX    -152.6054     XY      13.8326     YY    -141.9013
        XZ      -2.6394     YZ      11.7917     ZZ    -118.4439

 Total job time:  46.64s(wall), 310.17s(cpu)
        *  Thank you very much for using Q-Chem.  Have a nice day.  *
