 Gaussian 16, Revision A.03,
 Gaussian 16:  ES64L-G16RevA.03 25-Dec-2016

 --------------------------------------
 #P UB3LYP/6-311++G(d,p) nosym opt freq
 --------------------------------------

 --------
 Oxidized
 --------
 Symbolic Z-matrix:
 Charge =  0 Multiplicity = 1

 SCF Done:  E(UB3LYP) =  -1458.05792697     A.U. after   16 cycles
 SCF Done:  E(UB3LYP) =  -1458.08535288     A.U. after   15 cycles
 SCF Done:  E(UB3LYP) =  -1458.09108244     A.U. after   15 cycles
 SCF Done:  E(UB3LYP) =  -1458.09265737     A.U. after   14 cycles
 SCF Done:  E(UB3LYP) =  -1458.09407793     A.U. after   14 cycles
 SCF Done:  E(UB3LYP) =  -1458.09481292     A.U. after   16 cycles
 SCF Done:  E(UB3LYP) =  -1458.09628408     A.U. after   13 cycles
 SCF Done:  E(UB3LYP) =  -1458.09646441     A.U. after   14 cycles
 SCF Done:  E(UB3LYP) =  -1458.09656427     A.U. after   12 cycles
 SCF Done:  E(UB3LYP) =  -1458.09659503     A.U. after   12 cycles
 SCF Done:  E(UB3LYP) =  -1458.09659980     A.U. after   12 cycles
 SCF Done:  E(UB3LYP) =  -1458.09660121     A.U. after   11 cycles
 SCF Done:  E(UB3LYP) =  -1458.09660148     A.U. after   10 cycles
 SCF Done:  E(UB3LYP) =  -1458.09660155     A.U. after    9 cycles
 SCF Done:  E(UB3LYP) =  -1458.09660159     A.U. after   10 cycles
 SCF Done:  E(UB3LYP) =  -1458.09660161     A.U. after    9 cycles
 Optimization completed.
    -- Stationary point found.
 Normal termination of Gaussian 16 at Sun Dec 17 21:43:53 2023.

 ----------------------------------------------------------------------
 #P Geom=AllCheck Guess=TCheck SCRF=Check GenChk UB3LYP/6-311++G(d,p) F
 req
 ----------------------------------------------------------------------

 Structure from the checkpoint file:  "014.chk"
 --------
 Oxidized
 --------
 Charge =  0 Multiplicity = 1

                          Input orientation:
 ---------------------------------------------------------------------
 Center     Atomic      Atomic             Coordinates (Angstroms)
 Number     Number       Type             X           Y           Z
 ---------------------------------------------------------------------
      1          6           0       -1.570402   -1.550652   -0.640725
      2          6           0       -1.190776   -0.137961   -0.128998
      3          6           0       -1.559595    0.001108    1.369726
      4          6           0       -2.017230    0.893090   -0.920360
      5          6           0        0.312178    0.096054   -0.317905
      6          6           0        0.817046    1.080592   -1.081701
      7          6           0        2.257743    1.333959   -1.285410
      8          8           0        2.638296    2.245761   -1.992356
      9          6           0        3.221554    0.426155   -0.588763
     10          6           0        2.760533   -0.574041    0.186829
     11         17           0        3.805907   -1.663081    1.023164
     12          6           0        1.284516   -0.816760    0.382059
     13          8           0        0.922844   -1.731879    1.090770
     14         17           0        4.896453    0.742909   -0.842468
     15          1           0       -1.072942   -2.335148   -0.073064
     16          1           0       -2.650757   -1.689723   -0.543922
     17          1           0       -1.313205   -1.664674   -1.697889
     18          1           0       -1.061745   -0.749205    1.981525
     19          1           0       -2.639814   -0.122362    1.487021
     20          1           0       -1.294892    0.993637    1.746008
     21          1           0       -3.079529    0.694586   -0.761022
     22          1           0       -1.830262    0.832598   -1.996075
     23          1           0       -1.822257    1.917448   -0.591030
     24          1           0        0.186334    1.777591   -1.617005
 ---------------------------------------------------------------------

 SCF Done:  E(UB3LYP) =  -1458.09660161     A.U. after    2 cycles

 Alpha  occ. eigenvalues -- -101.58366-101.58314 -19.15704 -19.15265 -10.31010
 Alpha  occ. eigenvalues --  -10.30354 -10.28385 -10.28239 -10.23714 -10.22137
 Alpha  occ. eigenvalues --  -10.22027 -10.17999 -10.17398 -10.17396  -9.49811
 Alpha  occ. eigenvalues --   -9.49762  -7.26304  -7.26255  -7.25325  -7.25275
 Alpha  occ. eigenvalues --   -7.25189  -7.25140  -1.09435  -1.08641  -0.93792
 Alpha  occ. eigenvalues --   -0.88317  -0.87788  -0.82675  -0.77039  -0.72163
 Alpha  occ. eigenvalues --   -0.70528  -0.70420  -0.64604  -0.62773  -0.57166
 Alpha  occ. eigenvalues --   -0.55486  -0.51837  -0.49535  -0.48873  -0.48206
 Alpha  occ. eigenvalues --   -0.46610  -0.46289  -0.46001  -0.45058  -0.44275
 Alpha  occ. eigenvalues --   -0.42759  -0.41097  -0.40168  -0.39528  -0.38326
 Alpha  occ. eigenvalues --   -0.37661  -0.36175  -0.35884  -0.35567  -0.35007
 Alpha  occ. eigenvalues --   -0.33032  -0.31531  -0.30310  -0.29397  -0.28510
 Alpha virt. eigenvalues --   -0.14836  -0.04684  -0.02532  -0.01927  -0.01627
 Alpha virt. eigenvalues --    0.00610   0.00832   0.00954   0.02035   0.02649
 Alpha virt. eigenvalues --    0.03124   0.03396   0.03659   0.04338   0.04828

  Beta  occ. eigenvalues -- -101.58366-101.58314 -19.15704 -19.15265 -10.31010
  Beta  occ. eigenvalues --  -10.30354 -10.28385 -10.28239 -10.23714 -10.22137
  Beta  occ. eigenvalues --  -10.22027 -10.17999 -10.17398 -10.17396  -9.49811
  Beta  occ. eigenvalues --   -9.49762  -7.26304  -7.26255  -7.25325  -7.25275
  Beta  occ. eigenvalues --   -7.25189  -7.25140  -1.09435  -1.08641  -0.93792
  Beta  occ. eigenvalues --   -0.88317  -0.87788  -0.82675  -0.77039  -0.72163
  Beta  occ. eigenvalues --   -0.70528  -0.70420  -0.64604  -0.62773  -0.57166
  Beta  occ. eigenvalues --   -0.55486  -0.51837  -0.49535  -0.48873  -0.48206
  Beta  occ. eigenvalues --   -0.46610  -0.46289  -0.46001  -0.45058  -0.44275
  Beta  occ. eigenvalues --   -0.42759  -0.41097  -0.40168  -0.39528  -0.38326
  Beta  occ. eigenvalues --   -0.37661  -0.36175  -0.35884  -0.35567  -0.35007
  Beta  occ. eigenvalues --   -0.33032  -0.31531  -0.30310  -0.29397  -0.28510
  Beta virt. eigenvalues --   -0.14836  -0.04684  -0.02532  -0.01927  -0.01627
  Beta virt. eigenvalues --    0.00610   0.00832   0.00954   0.02035   0.02649
  Beta virt. eigenvalues --    0.03124   0.03396   0.03659   0.04338   0.04828

 Mulliken charges and spin densities:
               1          2
     1  C   -0.655827  -0.000000
     2  C    0.338839  -0.000000
     3  C   -0.655573   0.000000
     4  C   -0.443311   0.000000
     5  C    0.919568   0.000000
     6  C   -0.264353  -0.000000
     7  C   -1.005160   0.000000
     8  O   -0.159893   0.000000
     9  C    0.869962  -0.000000
    10  C   -0.226207   0.000000
    11  Cl   0.503198   0.000000
    12  C   -1.229596  -0.000000
    13  O   -0.126262   0.000000
    14  Cl   0.463937   0.000000
    15  H    0.191820  -0.000000
    16  H    0.159894   0.000000
    17  H    0.141651  -0.000000
    18  H    0.191838  -0.000000
    19  H    0.159866   0.000000
    20  H    0.141608  -0.000000
    21  H    0.177707  -0.000000
    22  H    0.135473   0.000000
    23  H    0.135510  -0.000000
    24  H    0.235311   0.000000
 Sum of Mulliken charges =   0.00000   0.00000

 Dipole moment (field-independent basis, Debye):
    X=             -2.8235    Y=             -0.0690    Z=              0.0693  Tot=              2.8252
 Quadrupole moment (field-independent basis, Debye-Ang):
   XX=           -100.2962   YY=           -104.7311   ZZ=           -101.1273
   XY=             -4.4098   XZ=              4.1187   YZ=              7.0903

  Exact polarizability: 179.973  13.203 146.765 -10.647 -38.459 126.880
 Approx polarizability: 238.589  42.183 272.749 -33.087 -97.594 222.375

                      1                      2                      3
                      A                      A                      A
 Frequencies --     35.1057                58.4964                85.3022
 Red. masses --      5.7469                 5.5216                 7.7793
 Frc consts  --      0.0042                 0.0111                 0.0334
 IR Inten    --      1.6810                 0.1119                 0.0534

                      4                      5                      6
                      A                      A                      A
 Frequencies --    135.0114               167.7551               205.1006
 Red. masses --      4.2617                 5.3019                21.5603
 Frc consts  --      0.0458                 0.0879                 0.5344
 IR Inten    --      5.3329                 0.2656                 0.0289

                      7                      8                      9
                      A                      A                      A
 Frequencies --    209.3938               235.1110               248.4196
 Red. masses --      1.3292                 6.4895                 1.7745
 Frc consts  --      0.0343                 0.2114                 0.0645
 IR Inten    --      0.8509                 0.4262                 0.2006

                     10                     11                     12
                      A                      A                      A
 Frequencies --    253.8626               270.5485               277.7814
 Red. masses --      1.9512                 2.3517                 5.3019
 Frc consts  --      0.0741                 0.1014                 0.2410
 IR Inten    --      0.5697                 0.0020                 0.5254

                     13                     14                     15
                      A                      A                      A
 Frequencies --    314.3589               330.5053               364.5303
 Red. masses --      2.9806                 1.0647                14.5330
 Frc consts  --      0.1735                 0.0685                 1.1378
 IR Inten    --      0.4776                 0.0277                 2.6986

                     16                     17                     18
                      A                      A                      A
 Frequencies --    378.4256               380.4431               421.7220
 Red. masses --      2.2811                 8.1289                 2.8648
 Frc consts  --      0.1925                 0.6932                 0.3002
 IR Inten    --      0.1739                 4.5924                 0.3815

                     19                     20                     21
                      A                      A                      A
 Frequencies --    469.6971               471.0174               527.7273
 Red. masses --      7.2392                 6.6310                 3.6559
 Frc consts  --      0.9410                 0.8668                 0.5999
 IR Inten    --      0.5027                 0.0345                21.4175

                     22                     23                     24
                      A                      A                      A
 Frequencies --    539.3771               612.0963               697.5167
 Red. masses --      4.8958                 6.4072                 6.0453
 Frc consts  --      0.8392                 1.4143                 1.7329
 IR Inten    --      0.0066                30.3716                 2.7125

                     25                     26                     27
                      A                      A                      A
 Frequencies --    722.5584               761.1481               798.6267
 Red. masses --      6.2006                 5.6468                 9.4377
 Frc consts  --      1.9073                 1.9275                 3.5465
 IR Inten    --      5.4271                14.3449                 3.7512

                     28                     29                     30
                      A                      A                      A
 Frequencies --    847.3964               869.6580               919.3788
 Red. masses --      3.4460                 8.7347                 1.6689
 Frc consts  --      1.4580                 3.8922                 0.8311
 IR Inten    --     60.5825                12.9413                10.2706

                     31                     32                     33
                      A                      A                      A
 Frequencies --    935.6804               938.6981               967.0069
 Red. masses --      1.5831                 1.7458                 1.1989
 Frc consts  --      0.8166                 0.9064                 0.6605
 IR Inten    --      8.2641                 2.8552                 0.0644

                     34                     35                     36
                      A                      A                      A
 Frequencies --    973.2382              1042.1285              1048.8084
 Red. masses --      5.9259                 1.5735                 1.3810
 Frc consts  --      3.3071                 1.0069                 0.8951
 IR Inten    --      8.5014                36.1253                 0.0831

                     37                     38                     39
                      A                      A                      A
 Frequencies --   1084.9656              1187.1678              1216.3740
 Red. masses --      3.4765                 3.3563                 2.6722
 Frc consts  --      2.4112                 2.7870                 2.3294
 IR Inten    --    170.7578                79.9437                 2.2564

                     40                     41                     42
                      A                      A                      A
 Frequencies --   1226.0427              1261.1885              1283.6113
 Red. masses --      3.3095                 3.4401                 3.4546
 Frc consts  --      2.9311                 3.2239                 3.3536
 IR Inten    --     22.5058                85.0269                25.9788

                     43                     44                     45
                      A                      A                      A
 Frequencies --   1343.7332              1395.1923              1400.0741
 Red. masses --      1.9173                 1.1943                 1.2237
 Frc consts  --      2.0397                 1.3697                 1.4133
 IR Inten    --     13.1213                 9.2156                12.9398

                     46                     47                     48
                      A                      A                      A
 Frequencies --   1430.2156              1481.7809              1495.7483
 Red. masses --      1.2162                 1.0457                 1.0475
 Frc consts  --      1.4658                 1.3528                 1.3807
 IR Inten    --      6.2035                 0.0097                 0.7481

                     49                     50                     51
                      A                      A                      A
 Frequencies --   1498.5315              1504.5182              1513.1970
 Red. masses --      1.0448                 1.0525                 1.0485
 Frc consts  --      1.3823                 1.4037                 1.4145
 IR Inten    --      0.2786                14.3612                 8.5075

                     52                     53                     54
                      A                      A                      A
 Frequencies --   1529.4045              1607.0090              1669.1885
 Red. masses --      1.0593                11.5064                 8.6767
 Frc consts  --      1.4599                17.5075                14.2435
 IR Inten    --     17.1247               174.6987                 2.8715

                     55                     56                     57
                      A                      A                      A
 Frequencies --   1729.1111              1733.8623              3024.6309
 Red. masses --     11.8842                12.6520                 1.0358
 Frc consts  --     20.9346                22.4098                 5.5828
 IR Inten    --     96.0549               332.8544                12.5916

                     58                     59                     60
                      A                      A                      A
 Frequencies --   3028.2122              3033.1984              3084.9556
 Red. masses --      1.0381                 1.0389                 1.1023
 Frc consts  --      5.6087                 5.6316                 6.1806
 IR Inten    --     34.5476                23.4933                 4.4107

                     61                     62                     63
                      A                      A                      A
 Frequencies --   3086.4825              3091.2833              3098.3431
 Red. masses --      1.1017                 1.1023                 1.1004
 Frc consts  --      6.1834                 6.2065                 6.2237
 IR Inten    --     18.8981                33.0473                49.4010

                     64                     65                     66
                      A                      A                      A
 Frequencies --   3136.6080              3139.2010              3210.3867
 Red. masses --      1.0985                 1.0979                 1.0906
 Frc consts  --      6.3676                 6.3743                 6.6229
 IR Inten    --      0.0170                13.5132                 0.1766

 - Thermochemistry -
 -------------------
 Temperature   298.150 Kelvin.  Pressure   1.00000 Atm.
 Atom     1 has atomic number  6 and mass  12.00000

 Molecular mass:   232.00579 amu.
 Principal axes and moments of inertia in atomic units:
                           1         2         3
     Eigenvalues --  2076.969224718.216086391.39257
           X            0.99660  -0.08232   0.00423
           Y            0.06256   0.78873   0.61155
           Z           -0.05368  -0.60920   0.79120
 This molecule is an asymmetric top.
 Rotational symmetry number  1.
 Warning -- assumption of classical behavior for rotation
           may cause significant error
 Rotational temperatures (Kelvin)      0.04170     0.01836     0.01355
 Rotational constants (GHZ):           0.86893     0.38250     0.28237
 Zero-point vibrational energy     466770.0 (Joules/Mol)
                                  111.56071 (Kcal/Mol)
 Warning -- explicit consideration of  23 degrees of freedom as
           vibrations may cause significant error
 Vibrational temperatures:     50.51    84.16   122.73   194.25   241.36
          (Kelvin)            295.09   301.27   338.27   357.42   365.25
                              389.26   399.67   452.29   475.52   524.48
                              544.47   547.37   606.76   675.79   677.69
                              759.28   776.04   880.67  1003.57  1039.60
                             1095.12  1149.05  1219.21  1251.24  1322.78
                             1346.24  1350.58  1391.31  1400.27  1499.39
                             1509.00  1561.02  1708.07  1750.09  1764.00
                             1814.57  1846.83  1933.33  2007.37  2014.39
                             2057.76  2131.95  2152.05  2156.05  2164.67
                             2177.15  2200.47  2312.13  2401.59  2487.81
                             2494.64  4351.77  4356.92  4364.10  4438.56
                             4440.76  4447.67  4457.82  4512.88  4516.61
                             4619.03

 Zero-point correction=                           0.177783 (Hartree/Particle)
 Thermal correction to Energy=                    0.191928
 Thermal correction to Enthalpy=                  0.192872
 Thermal correction to Gibbs Free Energy=         0.136491
 Sum of electronic and zero-point Energies=          -1457.918818
 Sum of electronic and thermal Energies=             -1457.904674
 Sum of electronic and thermal Enthalpies=           -1457.903730
 Sum of electronic and thermal Free Energies=        -1457.960111

                     E (Thermal)             CV                S
                      KCal/Mol        Cal/Mol-Kelvin    Cal/Mol-Kelvin
 Total                  120.437             52.556            118.665
 Electronic               0.000              0.000              0.000
 Translational            0.889              2.981             42.227
 Rotational               0.889              2.981             32.504
 Vibrational            118.659             46.594             43.934
 Vibration     1          0.594              1.982              5.518
 Vibration     2          0.596              1.974              4.507
 Vibration     3          0.601              1.959              3.765
 Vibration     4          0.613              1.918              2.873
 Vibration     5          0.624              1.882              2.460
 Vibration     6          0.640              1.833              2.087
 Vibration     7          0.642              1.826              2.049
 Vibration     8          0.655              1.787              1.840
 Vibration     9          0.662              1.765              1.742
 Vibration    10          0.665              1.756              1.704
 Vibration    11          0.674              1.727              1.593
 Vibration    12          0.679              1.715              1.547
 Vibration    13          0.702              1.646              1.339
 Vibration    14          0.713              1.615              1.258
 Vibration    15          0.738              1.545              1.103
 Vibration    16          0.749              1.516              1.045
 Vibration    17          0.750              1.512              1.037
 Vibration    18          0.784              1.423              0.886
 Vibration    19          0.827              1.317              0.738
 Vibration    20          0.828              1.314              0.735
 Vibration    21          0.883              1.189              0.592
 Vibration    22          0.894              1.163              0.567
 Vibration    23          0.971              1.006              0.429

 Optimization completed.
    -- Stationary point found.
 Normal termination of Gaussian 16 at Sun Dec 17 22:11:19 2023.
