 Q-Chem 5.4, Q-Chem, Inc., Pleasanton, CA (2021)
 Q-Chem 5.4.0 for Intel X86 EM64T Linux

User input:
--------------------------------------------------------------
$molecule
0 1
C                  5.0607930000     -2.4805110000      0.1160610000
C                  5.7806010000     -1.5361890000     -0.6059700000
C                  5.1111740000     -0.5301070000     -1.3085920000
C                  3.6636330000     -2.4293820000      0.1417960000
C                  2.9896500000     -1.4168340000     -0.5656040000
C                  3.7229910000     -0.4705960000     -1.2886000000
C                  2.9181490000     -3.4570340000      0.9231290000
C                  1.4252850000     -3.3740820000      0.9191750000
C                  0.7507180000     -2.3641570000      0.2128980000
C                  1.5021000000     -1.3278070000     -0.5617460000
C                  0.6977190000     -4.3292690000      1.6337110000
C                 -0.6466180000     -2.3189780000      0.2240290000
C                 -1.3730410000     -3.2647030000      0.9351850000
O                  3.4966760000     -4.3309100000      1.5451100000
O                  0.9125760000     -0.4477980000     -1.1652620000
H                  5.5592800000     -3.2682190000      0.6671830000
H                 -2.4556640000     -3.2520150000      0.9377180000
H                  3.1845550000      0.3003100000     -1.8257160000
H                  1.2257660000     -5.1152900000      2.1585300000
H                 -1.1451230000     -1.5375060000     -0.3355700000
C                 -0.6872830000     -4.2556000000      1.6397780000
H                  5.6752370000      0.2051020000     -1.8710080000
H                  6.8635300000     -1.5806320000     -0.6236970000
S                 -1.6305330000     -5.4813960000      2.5694750000
O                 -0.8160870000     -6.6883810000      2.6555080000
O                 -2.9880360000     -5.4818620000      2.0319870000
N                 -1.7088790000     -4.8060990000      4.1159200000
H                 -1.2136700000     -5.3849200000      4.7866100000
H                 -2.6738570000     -4.6469860000      4.3867820000
$end
$rem
MAX_SCF_CYCLES=200
BASIS  =  6-311++G(d,p)
GUI  =  2
JOB_TYPE  =  SP
METHOD  =  B3LYP
SOLVENT_METHOD = COSMO
$end
$solvent
dielectric 37.219
opticaldielectric 1.43
$end

--------------------------------------------------------------

             Standard Nuclear Orientation (Angstroms)
    I     Atom           X                Y                Z
 ----------------------------------------------------------------
    1      C       3.6851652144    -1.7579670820     0.0010467088
    2      C       5.0084644460    -1.3343041137     0.0252374997
    3      C       5.3081736459     0.0308607348     0.0478318756
    4      C       2.6475705896    -0.8205669219    -0.0022495086
    5      C       2.9491252646     0.5536524504     0.0202714027
    6      C       4.2839943648     0.9700327514     0.0453815783
    7      C       1.2378655549    -1.3045337938    -0.0306055705
    8      C       0.1567419728    -0.2717799252    -0.0420440112
    9      C       0.4560586488     1.1007179207    -0.0202372578
   10      C       1.8717881871     1.5832585461     0.0189287766
   11      C      -1.1747390099    -0.6937796512    -0.0790684450
   12      C      -0.5785306253     2.0409279815    -0.0387578838
   13      C      -1.9029467875     1.6254787042    -0.0727098224
   14      O       0.9704127493    -2.4934716202    -0.0410439175
   15      O       2.1262859706     2.7751519007     0.0473375488
   16      H       3.4307698520    -2.8104268251    -0.0168454722
   17      H      -2.7132363394     2.3428368638    -0.1053912321
   18      H       4.4939087538     2.0322657188     0.0627037251
   19      H      -1.3949445427    -1.7531492971    -0.1157168564
   20      H      -0.3237333799     3.0932495600    -0.0313807848
   21      C      -2.1835081042     0.2580900037    -0.0839207157
   22      H       6.3413038969     0.3584291596     0.0665911468
   23      H       5.8093303929    -2.0648083123     0.0266505767
   24      S      -3.9047632294    -0.2827316701    -0.1216780873
   25      O      -3.9373075609    -1.5983389041    -0.7506893962
   26      O      -4.7015740656     0.8421243533    -0.6028219120
   27      N      -4.2732094894    -0.4887476050     1.5140055802
   28      H      -4.4748242240    -1.4624455288     1.7173639627
   29      H      -5.0337732331     0.1247371517     1.7879489234
 ----------------------------------------------------------------

    9   -1292.9667572661      6.27e-06  Convergence criterion met
 Total energy in the final basis set =    -1292.9667572661
    5   -1292.9947117562      3.85e-06  Convergence criterion met
 Total energy in the final basis set =    -1292.9947117562

                    Orbital Energies (a.u.)
 --------------------------------------------------------------

 Alpha MOs
 -- Occupied --
-89.0917 -19.1457 -19.1452 -19.1394 -19.1390 -14.3514 -10.2913 -10.2912
-10.2400 -10.2225 -10.2220 -10.2181 -10.2172 -10.2125 -10.2120 -10.2097
-10.1995 -10.1994 -10.1990 -10.1986  -8.1531  -6.1159  -6.1158  -6.1139
 -1.1499  -1.0754  -1.0737  -1.0430  -0.9226  -0.9081  -0.8897  -0.8280
 -0.7972  -0.7830  -0.7810  -0.7147  -0.6917  -0.6668  -0.6398  -0.6258
 -0.5946  -0.5729  -0.5685  -0.5422  -0.5362  -0.5260  -0.5113  -0.4995
 -0.4942  -0.4751  -0.4688  -0.4663  -0.4630  -0.4587  -0.4520  -0.4499
 -0.4284  -0.4274  -0.4056  -0.3931  -0.3854  -0.3837  -0.3785  -0.3704
 -0.3563  -0.3438  -0.3418  -0.3239  -0.2967  -0.2964  -0.2909  -0.2836
 -0.2823  -0.2810

          Ground-State Mulliken Net Atomic Charges

     Atom                 Charge (a.u.)
  ----------------------------------------
      1 C                     0.093235
      2 C                    -0.412505
      3 C                    -0.469164
      4 C                     0.375132
      5 C                     0.245610
      6 C                     0.154526
      7 C                    -0.720995
      8 C                     0.425718
      9 C                     0.514291
     10 C                    -0.484505
     11 C                    -0.103034
     12 C                     0.070115
     13 C                    -0.419804
     14 O                    -0.272632
     15 O                    -0.273219
     16 H                     0.200189
     17 H                     0.289074
     18 H                     0.202853
     19 H                     0.250519
     20 H                     0.211243
     21 C                    -0.527674
     22 H                     0.229381
     23 H                     0.230770
     24 S                     0.513989
     25 O                    -0.289061
     26 O                    -0.293999
     27 N                    -0.451708
     28 H                     0.354246
     29 H                     0.357398
  ----------------------------------------
  Sum of atomic charges =    -0.000010

                    Cartesian Multipole Moments
 -----------------------------------------------------------------
    Charge (ESU x 10^10)
                -0.0000
    Dipole Moment (Debye)
         X       3.7523      Y       0.5083      Z       3.9538
       Tot       5.4746
    Quadrupole Moments (Debye-Ang)
        XX     -98.1725     XY      -8.5028     YY    -133.3978
        XZ     -20.9316     YZ      -3.7905     ZZ    -122.4280

 Total job time:  74.78s(wall), 576.82s(cpu)
        *  Thank you very much for using Q-Chem.  Have a nice day.  *
