 Gaussian 16, Revision A.03,
 Gaussian 16:  ES64L-G16RevA.03 25-Dec-2016

 --------------------------------------
 #P UB3LYP/6-311++G(d,p) nosym opt freq
 --------------------------------------

 -------
 Reduced
 -------
 Symbolic Z-matrix:
 Charge = -2 Multiplicity = 1

 SCF Done:  E(UB3LYP) =  -1203.84968311     A.U. after   45 cycles
 SCF Done:  E(UB3LYP) =  -1203.88468922     A.U. after   34 cycles
 SCF Done:  E(UB3LYP) =  -1203.90437487     A.U. after   27 cycles
 SCF Done:  E(UB3LYP) =  -1203.91933360     A.U. after   20 cycles
 SCF Done:  E(UB3LYP) =  -1203.92414552     A.U. after   20 cycles
 SCF Done:  E(UB3LYP) =  -1203.92591078     A.U. after   19 cycles
 SCF Done:  E(UB3LYP) =  -1203.92699920     A.U. after   20 cycles
 SCF Done:  E(UB3LYP) =  -1203.92759746     A.U. after   19 cycles
 SCF Done:  E(UB3LYP) =  -1203.92790590     A.U. after   20 cycles
 SCF Done:  E(UB3LYP) =  -1203.92820289     A.U. after   20 cycles
 SCF Done:  E(UB3LYP) =  -1203.92829628     A.U. after   20 cycles
 SCF Done:  E(UB3LYP) =  -1203.92831564     A.U. after   18 cycles
 SCF Done:  E(UB3LYP) =  -1203.92832073     A.U. after   20 cycles
 SCF Done:  E(UB3LYP) =  -1203.92832399     A.U. after   18 cycles
 SCF Done:  E(UB3LYP) =  -1203.92832552     A.U. after   17 cycles
 SCF Done:  E(UB3LYP) =  -1203.92832657     A.U. after   17 cycles
 SCF Done:  E(UB3LYP) =  -1203.92832735     A.U. after   16 cycles
 SCF Done:  E(UB3LYP) =  -1203.92832780     A.U. after   17 cycles
 SCF Done:  E(UB3LYP) =  -1203.92832788     A.U. after   16 cycles
 Optimization completed.
    -- Stationary point found.
 Normal termination of Gaussian 16 at Thu Dec 21 08:25:16 2023.

 ----------------------------------------------------------------------
 #P Geom=AllCheck Guess=TCheck SCRF=Check GenChk UB3LYP/6-311++G(d,p) F
 req
 ----------------------------------------------------------------------

 Structure from the checkpoint file:  "152-an.chk"
 -------
 Reduced
 -------
 Charge = -2 Multiplicity = 1

                          Input orientation:
 ---------------------------------------------------------------------
 Center     Atomic      Atomic             Coordinates (Angstroms)
 Number     Number       Type             X           Y           Z
 ---------------------------------------------------------------------
      1          7           0       -2.938326   -1.869126   -0.248597
      2          6           0       -2.547588   -0.525752   -0.105316
      3          6           0       -3.504751    0.474930   -0.003819
      4          6           0       -3.121297    1.822589    0.215285
      5          6           0       -1.790744    2.148297    0.339847
      6          6           0       -0.770214    1.165088    0.226439
      7          6           0        0.608175    1.626036    0.346555
      8          8           0        0.868000    2.857463    0.564141
      9          6           0        1.618141    0.595415    0.192292
     10          6           0        3.024455    0.811687    0.291451
     11         17           0        3.719998    2.424574    0.694363
     12          6           0        3.981886   -0.162292    0.110168
     13          6           0        3.576322   -1.490463   -0.197271
     14          6           0        2.237786   -1.777187   -0.296817
     15          6           0        1.231256   -0.792644   -0.107359
     16          6           0       -0.132881   -1.222085   -0.228726
     17          8           0       -0.416943   -2.467681   -0.527473
     18          6           0       -1.138492   -0.211089   -0.022152
     19          1           0       -3.740123   -1.986593   -0.854054
     20          1           0       -2.099294   -2.433623   -0.496293
     21          1           0       -4.558161    0.200831   -0.052858
     22          1           0       -3.887734    2.592348    0.296814
     23          1           0       -1.461059    3.165161    0.519838
     24          1           0        5.030552    0.093792    0.209571
     25          1           0        4.328501   -2.263127   -0.343160
     26          1           0        1.882535   -2.776550   -0.522870
 ---------------------------------------------------------------------

 SCF Done:  E(UB3LYP) =  -1203.92832788     A.U. after    2 cycles

 Alpha  occ. eigenvalues -- -101.30087 -18.78366 -18.77244 -14.05445  -9.98574
 Alpha  occ. eigenvalues --   -9.96071  -9.94211  -9.93990  -9.92967  -9.92913
 Alpha  occ. eigenvalues --   -9.92311  -9.91807  -9.91665  -9.91498  -9.90894
 Alpha  occ. eigenvalues --   -9.90639  -9.90465  -9.90117  -9.21540  -6.97963
 Alpha  occ. eigenvalues --   -6.97077  -6.96984  -0.70188  -0.69600  -0.65374
 Alpha  occ. eigenvalues --   -0.62660  -0.58072  -0.57195  -0.52254  -0.48171
 Alpha  occ. eigenvalues --   -0.47935  -0.47011  -0.40548  -0.37890  -0.36873
 Alpha  occ. eigenvalues --   -0.32284  -0.29413  -0.28935  -0.27057  -0.24397
 Alpha  occ. eigenvalues --   -0.22078  -0.21579  -0.20869  -0.19125  -0.18098
 Alpha  occ. eigenvalues --   -0.17412  -0.15331  -0.15099  -0.13879  -0.13211
 Alpha  occ. eigenvalues --   -0.12966  -0.11647  -0.10270  -0.09448  -0.09108
 Alpha  occ. eigenvalues --   -0.08825  -0.07542  -0.06684  -0.06238  -0.04777
 Alpha  occ. eigenvalues --    0.00434   0.01248   0.01575   0.03229   0.04345
 Alpha  occ. eigenvalues --    0.05422   0.13234
 Alpha virt. eigenvalues --    0.16181   0.16509   0.17600   0.18419   0.19683
 Alpha virt. eigenvalues --    0.20462   0.21060   0.21511   0.22410   0.22637
 Alpha virt. eigenvalues --    0.23712   0.24924   0.25673   0.26339   0.26561

  Beta  occ. eigenvalues -- -101.30087 -18.78366 -18.77244 -14.05445  -9.98574
  Beta  occ. eigenvalues --   -9.96071  -9.94211  -9.93990  -9.92967  -9.92913
  Beta  occ. eigenvalues --   -9.92311  -9.91807  -9.91665  -9.91498  -9.90894
  Beta  occ. eigenvalues --   -9.90639  -9.90465  -9.90117  -9.21540  -6.97963
  Beta  occ. eigenvalues --   -6.97077  -6.96984  -0.70188  -0.69600  -0.65374
  Beta  occ. eigenvalues --   -0.62660  -0.58072  -0.57195  -0.52254  -0.48171
  Beta  occ. eigenvalues --   -0.47935  -0.47011  -0.40548  -0.37890  -0.36873
  Beta  occ. eigenvalues --   -0.32284  -0.29413  -0.28935  -0.27057  -0.24397
  Beta  occ. eigenvalues --   -0.22078  -0.21579  -0.20869  -0.19125  -0.18098
  Beta  occ. eigenvalues --   -0.17412  -0.15331  -0.15099  -0.13879  -0.13211
  Beta  occ. eigenvalues --   -0.12966  -0.11647  -0.10270  -0.09448  -0.09108
  Beta  occ. eigenvalues --   -0.08825  -0.07542  -0.06684  -0.06238  -0.04777
  Beta  occ. eigenvalues --    0.00434   0.01248   0.01575   0.03229   0.04345
  Beta  occ. eigenvalues --    0.05422   0.13234
  Beta virt. eigenvalues --    0.16181   0.16509   0.17600   0.18419   0.19683
  Beta virt. eigenvalues --    0.20462   0.21060   0.21511   0.22410   0.22637
  Beta virt. eigenvalues --    0.23712   0.24924   0.25673   0.26339   0.26561

 Mulliken charges and spin densities:
               1          2
     1  N   -0.407994  -0.000000
     2  C   -0.028406   0.000000
     3  C   -0.225213  -0.000000
     4  C   -0.484204   0.000000
     5  C   -0.045107  -0.000000
     6  C    0.564464  -0.000000
     7  C   -1.761531   0.000000
     8  O   -0.376891   0.000000
     9  C   -0.216082   0.000000
    10  C    1.086095   0.000000
    11  Cl   0.272381  -0.000000
    12  C   -0.262428  -0.000000
    13  C   -0.727560   0.000000
    14  C    0.462211  -0.000000
    15  C    0.492125  -0.000000
    16  C   -1.174431   0.000000
    17  O   -0.499789  -0.000000
    18  C    0.305786  -0.000000
    19  H    0.167455   0.000000
    20  H    0.303065  -0.000000
    21  H    0.042507  -0.000000
    22  H    0.074257   0.000000
    23  H    0.131744   0.000000
    24  H    0.093119  -0.000000
    25  H    0.072812   0.000000
    26  H    0.141614  -0.000000
 Sum of Mulliken charges =  -2.00000   0.00000

 Dipole moment (field-independent basis, Debye):
    X=             -3.6116    Y=             -3.6937    Z=             -1.7899  Tot=              5.4672
 Quadrupole moment (field-independent basis, Debye-Ang):
   XX=           -175.7086   YY=           -173.0064   ZZ=           -126.6367
   XY=            -11.6520   XZ=             -0.5196   YZ=             -7.5181

  Exact polarizability: 472.762 -17.192 279.362  15.188  31.216 142.168
 Approx polarizability: 753.578 -62.739 526.935  12.071  61.291 212.561

                      1                      2                      3
                      A                      A                      A
 Frequencies --     28.0451                56.5889                87.3010
 Red. masses --     11.8652                 6.3055                 6.0547
 Frc consts  --      0.0055                 0.0119                 0.0272
 IR Inten    --      3.3291                 3.0129                 1.6491

                      4                      5                      6
                      A                      A                      A
 Frequencies --    162.3612               173.4184               197.6837
 Red. masses --      6.7832                10.9630                 4.5569
 Frc consts  --      0.1054                 0.1943                 0.1049
 IR Inten    --      4.0719                 5.9292                 0.0903

                      7                      8                      9
                      A                      A                      A
 Frequencies --    215.7835               254.2638               269.1155
 Red. masses --      4.5708                 7.7310                 4.4851
 Frc consts  --      0.1254                 0.2945                 0.1914
 IR Inten    --      4.1954                 1.8026                 6.8774

                     10                     11                     12
                      A                      A                      A
 Frequencies --    342.1891               362.1525               379.1745
 Red. masses --     10.7840                 6.5942                 3.5657
 Frc consts  --      0.7440                 0.5096                 0.3020
 IR Inten    --      1.9528                 0.6173                33.5329

                     13                     14                     15
                      A                      A                      A
 Frequencies --    380.3204               399.8514               421.4591
 Red. masses --      7.6581                 4.4624                 5.1818
 Frc consts  --      0.6526                 0.4204                 0.5423
 IR Inten    --      3.4729                51.4865                 6.3101

                     16                     17                     18
                      A                      A                      A
 Frequencies --    431.2884               464.5588               485.4786
 Red. masses --      2.0284                 5.5327                 4.2397
 Frc consts  --      0.2223                 0.7035                 0.5887
 IR Inten    --     94.2981                16.8349                 0.3160

                     19                     20                     21
                      A                      A                      A
 Frequencies --    506.0163               508.7431               561.4773
 Red. masses --      7.3029                 5.0961                 5.6817
 Frc consts  --      1.1017                 0.7771                 1.0553
 IR Inten    --      4.1803                 4.4724                 6.2324

                     22                     23                     24
                      A                      A                      A
 Frequencies --    573.8048               600.4685               624.0413
 Red. masses --      4.6158                 6.0788                 4.0137
 Frc consts  --      0.8954                 1.2914                 0.9209
 IR Inten    --      6.4020                25.8729                10.0091

                     25                     26                     27
                      A                      A                      A
 Frequencies --    675.6115               694.0401               709.6210
 Red. masses --      1.7668                 6.6617                 1.4044
 Frc consts  --      0.4752                 1.8906                 0.4167
 IR Inten    --     91.2524                11.2614                 8.4925

                     28                     29                     30
                      A                      A                      A
 Frequencies --    718.8523               738.7920               746.0780
 Red. masses --      5.4728                 4.2989                 2.4180
 Frc consts  --      1.6662                 1.3825                 0.7930
 IR Inten    --     88.2273                 4.7164                46.3720

                     31                     32                     33
                      A                      A                      A
 Frequencies --    774.8039               787.4215               808.8694
 Red. masses --      1.5817                 1.5310                 6.3138
 Frc consts  --      0.5594                 0.5593                 2.4339
 IR Inten    --     17.0000                 6.4298                 4.2462

                     34                     35                     36
                      A                      A                      A
 Frequencies --    818.3385               871.6731               912.2900
 Red. masses --      5.9142                 5.3913                 1.8688
 Frc consts  --      2.3335                 2.4135                 0.9164
 IR Inten    --      2.3997                39.4032               150.2022

                     37                     38                     39
                      A                      A                      A
 Frequencies --    933.9540               936.6194               959.0647
 Red. masses --      2.4867                 1.5270                 1.2925
 Frc consts  --      1.2780                 0.7893                 0.7004
 IR Inten    --     12.2579                12.7958                 1.6653

                     40                     41                     42
                      A                      A                      A
 Frequencies --   1019.0390              1053.2874              1060.4273
 Red. masses --      3.6733                 2.2437                 2.1206
 Frc consts  --      2.2474                 1.4666                 1.4050
 IR Inten    --     38.7065               204.7028                93.6447

                     43                     44                     45
                      A                      A                      A
 Frequencies --   1088.5591              1122.9366              1155.4078
 Red. masses --      3.1594                 1.7330                 1.2770
 Frc consts  --      2.2058                 1.2876                 1.0044
 IR Inten    --     18.8384               232.5477                 4.4400

                     46                     47                     48
                      A                      A                      A
 Frequencies --   1165.4521              1181.2340              1212.3662
 Red. masses --      2.8371                 1.7013                 2.1779
 Frc consts  --      2.2705                 1.3987                 1.8861
 IR Inten    --     56.7913                82.8910               121.6640

                     49                     50                     51
                      A                      A                      A
 Frequencies --   1235.0470              1257.0425              1301.8322
 Red. masses --      2.4376                 3.5894                 4.1874
 Frc consts  --      2.1907                 3.3417                 4.1812
 IR Inten    --     90.5305               134.2123               183.4513

                     52                     53                     54
                      A                      A                      A
 Frequencies --   1340.4841              1348.4621              1373.2061
 Red. masses --      3.4223                 3.5830                 2.9388
 Frc consts  --      3.6232                 3.8386                 3.2651
 IR Inten    --    289.4791               167.0584               324.0214

                     55                     56                     57
                      A                      A                      A
 Frequencies --   1417.1923              1441.6220              1452.1533
 Red. masses --      3.5467                 4.1156                 2.7142
 Frc consts  --      4.1969                 5.0394                 3.3722
 IR Inten    --     85.7668                 5.6800                17.3713

                     58                     59                     60
                      A                      A                      A
 Frequencies --   1473.5649              1492.5843              1514.0151
 Red. masses --      3.6258                 5.7795                 5.5035
 Frc consts  --      4.6387                 7.5861                 7.4327
 IR Inten    --     10.6700               481.9061               359.7526

                     61                     62                     63
                      A                      A                      A
 Frequencies --   1570.6154              1580.8920              1588.1674
 Red. masses --      5.5131                 5.0214                 3.1108
 Frc consts  --      8.0128                 7.3940                 4.6229
 IR Inten    --      7.1510                 2.2891                59.6809

                     64                     65                     66
                      A                      A                      A
 Frequencies --   1612.0226              3051.2616              3084.4050
 Red. masses --      1.6222                 1.0743                 1.0828
 Frc consts  --      2.4836                 5.8928                 6.0691
 IR Inten    --     70.3623               230.9358                57.4145

                     67                     68                     69
                      A                      A                      A
 Frequencies --   3108.4965              3108.8456              3161.9830
 Red. masses --      1.0865                 1.0905                 1.0904
 Frc consts  --      6.1858                 6.2095                 6.4234
 IR Inten    --    135.9851                57.6491                37.8639

                     70                     71                     72
                      A                      A                      A
 Frequencies --   3171.9197              3174.0042              3564.1176
 Red. masses --      1.0913                 1.0905                 1.0778
 Frc consts  --      6.4691                 6.4725                 8.0665
 IR Inten    --     40.4680                23.0849                 7.3136

 - Thermochemistry -
 -------------------
 Temperature   298.150 Kelvin.  Pressure   1.00000 Atm.
 Atom     1 has atomic number  7 and mass  14.00307

 Molecular mass:   257.02436 amu.
 Principal axes and moments of inertia in atomic units:
                           1         2         3
     Eigenvalues --  2613.903395979.096398585.27055
           X            0.97667  -0.21234  -0.03200
           Y            0.20243   0.96016  -0.19267
           Z            0.07163   0.18170   0.98074
 This molecule is an asymmetric top.
 Rotational symmetry number  1.
 Warning -- assumption of classical behavior for rotation
           may cause significant error
 Rotational temperatures (Kelvin)      0.03314     0.01449     0.01009
 Rotational constants (GHZ):           0.69044     0.30184     0.21021
 Zero-point vibrational energy     472849.5 (Joules/Mol)
                                  113.01374 (Kcal/Mol)
 Warning -- explicit consideration of  23 degrees of freedom as
           vibrations may cause significant error
 Vibrational temperatures:     40.35    81.42   125.61   233.60   249.51
          (Kelvin)            284.42   310.46   365.83   387.20   492.33
                              521.06   545.55   547.20   575.30   606.39
                              620.53   668.40   698.50   728.04   731.97
                              807.84   825.58   863.94   897.86   972.05
                              998.57  1020.99  1034.27  1062.96  1073.44
                             1114.77  1132.92  1163.78  1177.41  1254.14
                             1312.58  1343.75  1347.59  1379.88  1466.17
                             1515.45  1525.72  1566.19  1615.66  1662.37
                             1676.83  1699.53  1744.32  1776.96  1808.60
                             1873.05  1928.66  1940.14  1975.74  2039.02
                             2074.17  2089.32  2120.13  2147.50  2178.33
                             2259.77  2274.55  2285.02  2319.34  4390.08
                             4437.77  4472.43  4472.94  4549.39  4563.68
                             4566.68  5127.97

 Zero-point correction=                           0.180099 (Hartree/Particle)
 Thermal correction to Energy=                    0.194047
 Thermal correction to Enthalpy=                  0.194991
 Thermal correction to Gibbs Free Energy=         0.138844
 Sum of electronic and zero-point Energies=          -1203.748229
 Sum of electronic and thermal Energies=             -1203.734281
 Sum of electronic and thermal Enthalpies=           -1203.733337
 Sum of electronic and thermal Free Energies=        -1203.789484

                     E (Thermal)             CV                S
                      KCal/Mol        Cal/Mol-Kelvin    Cal/Mol-Kelvin
 Total                  121.766             56.372            118.170
 Electronic               0.000              0.000              0.000
 Translational            0.889              2.981             42.532
 Rotational               0.889              2.981             33.261
 Vibrational            119.989             50.410             42.377
 Vibration     1          0.593              1.984              5.963
 Vibration     2          0.596              1.975              4.573
 Vibration     3          0.601              1.958              3.720
 Vibration     4          0.622              1.889              2.522
 Vibration     5          0.627              1.875              2.398
 Vibration     6          0.637              1.843              2.155
 Vibration     7          0.645              1.817              1.994
 Vibration     8          0.665              1.756              1.701
 Vibration     9          0.674              1.730              1.602
 Vibration    10          0.721              1.591              1.202
 Vibration    11          0.736              1.550              1.113
 Vibration    12          0.749              1.515              1.042
 Vibration    13          0.750              1.512              1.038
 Vibration    14          0.766              1.470              0.963
 Vibration    15          0.784              1.424              0.887
 Vibration    16          0.792              1.402              0.854
 Vibration    17          0.822              1.329              0.753
 Vibration    18          0.842              1.282              0.695
 Vibration    19          0.861              1.237              0.643
 Vibration    20          0.864              1.231              0.637
 Vibration    21          0.917              1.115              0.521
 Vibration    22          0.930              1.088              0.497
 Vibration    23          0.959              1.031              0.449

 Optimization completed.
    -- Stationary point found.
 Normal termination of Gaussian 16 at Thu Dec 21 08:59:14 2023.
