 Q-Chem 5.4, Q-Chem, Inc., Pleasanton, CA (2021)
 Q-Chem 5.4.0 for Intel X86 EM64T Linux

User input:
--------------------------------------------------------------
$molecule
-1 2
C                  3.5783890000     -1.4362960000      0.3361760000
C                  2.5744380000     -0.5397370000     -0.3365460000
O                  2.4018770000     -0.4421830000     -1.5232360000
O                  1.9101730000      0.1999920000      0.5965760000
C                  0.7001170000      0.8116620000      0.2448320000
C                  0.7145690000      2.1884070000      0.1511340000
C                 -0.4793410000      2.8827040000     -0.0992720000
C                 -1.6594690000      2.1802160000     -0.2429850000
C                 -1.6876890000      0.7770110000     -0.1430840000
C                 -2.9934850000      0.0963580000     -0.2812580000
O                 -4.0533250000      0.7416700000     -0.4981320000
C                 -2.9666510000     -1.3314050000     -0.1441920000
C                 -1.8086850000     -2.0332610000      0.0896660000
C                 -0.5119730000     -1.4259880000      0.2162920000
O                  0.5220380000     -2.1256480000      0.4076640000
C                 -0.4830990000      0.0477850000      0.1027090000
H                  4.0882370000     -0.9118960000      1.1470480000
H                  4.2957090000     -1.8036480000     -0.3967350000
H                  3.0150050000     -2.2691480000      0.7627240000
H                  1.6574670000      2.7082890000      0.2768610000
H                 -0.4675980000      3.9653630000     -0.1770120000
H                 -2.6021950000      2.6800530000     -0.4314950000
H                 -3.9194250000     -1.8446730000     -0.2384930000
H                 -1.8250840000     -3.1156290000      0.1807580000
$end

$rem
BASIS  =  6-311++G(d,p)
GUI  =  2
JOB_TYPE  =  SP
METHOD  =  B3LYP
SCF_CONVERGENCE  = 8
SOLVENT_METHOD = sm12
$end

$smx
solvent dimethylformamide
charges CM5
$end

--------------------------------------------------------------

             Standard Nuclear Orientation (Angstroms)
    I     Atom           X                Y                Z
 ----------------------------------------------------------------
    1      C       3.5783890000    -1.4362960000     0.3361760000
    2      C       2.5744380000    -0.5397370000    -0.3365460000
    3      O       2.4018770000    -0.4421830000    -1.5232360000
    4      O       1.9101730000     0.1999920000     0.5965760000
    5      C       0.7001170000     0.8116620000     0.2448320000
    6      C       0.7145690000     2.1884070000     0.1511340000
    7      C      -0.4793410000     2.8827040000    -0.0992720000
    8      C      -1.6594690000     2.1802160000    -0.2429850000
    9      C      -1.6876890000     0.7770110000    -0.1430840000
   10      C      -2.9934850000     0.0963580000    -0.2812580000
   11      O      -4.0533250000     0.7416700000    -0.4981320000
   12      C      -2.9666510000    -1.3314050000    -0.1441920000
   13      C      -1.8086850000    -2.0332610000     0.0896660000
   14      C      -0.5119730000    -1.4259880000     0.2162920000
   15      O       0.5220380000    -2.1256480000     0.4076640000
   16      C      -0.4830990000     0.0477850000     0.1027090000
   17      H       4.0882370000    -0.9118960000     1.1470480000
   18      H       4.2957090000    -1.8036480000    -0.3967350000
   19      H       3.0150050000    -2.2691480000     0.7627240000
   20      H       1.6574670000     2.7082890000     0.2768610000
   21      H      -0.4675980000     3.9653630000    -0.1770120000
   22      H      -2.6021950000     2.6800530000    -0.4314950000
   23      H      -3.9194250000    -1.8446730000    -0.2384930000
   24      H      -1.8250840000    -3.1156290000     0.1807580000
 ----------------------------------------------------------------

   18    -763.2741508993      8.21e-09  Convergence criterion met
 Total energy in the final basis set =     -763.3602931908

                    Orbital Energies (a.u.)
 --------------------------------------------------------------

 Alpha MOs
 -- Occupied --
-19.1724 -19.1146 -19.0794 -19.0791 -10.3085 -10.2469 -10.2305 -10.2264
-10.1916 -10.1876 -10.1868 -10.1855 -10.1794 -10.1725 -10.1717 -10.1708
 -1.1145  -1.0319  -1.0035  -1.0014  -0.8706  -0.8137  -0.7791  -0.7543
 -0.7372  -0.6851  -0.6461  -0.6293  -0.6060  -0.5399  -0.5162  -0.5149
 -0.4927  -0.4854  -0.4775  -0.4717  -0.4561  -0.4327  -0.4245  -0.4179
 -0.4084  -0.4043  -0.4020  -0.3921  -0.3819  -0.3784  -0.3638  -0.3627
 -0.3548  -0.3228  -0.2866  -0.2828  -0.2650  -0.2601  -0.2457  -0.2393
 -0.1593

 Beta MOs
 -- Occupied --
-19.1724 -19.1145 -19.0725 -19.0724 -10.3085 -10.2469 -10.2293 -10.2252
-10.1912 -10.1872 -10.1862 -10.1851 -10.1794 -10.1725 -10.1701 -10.1693
 -1.1144  -1.0318  -0.9919  -0.9894  -0.8689  -0.8082  -0.7783  -0.7520
 -0.7363  -0.6762  -0.6451  -0.6260  -0.6039  -0.5378  -0.5149  -0.5126
 -0.4923  -0.4839  -0.4765  -0.4701  -0.4551  -0.4305  -0.4179  -0.4138
 -0.4055  -0.3999  -0.3981  -0.3891  -0.3795  -0.3624  -0.3593  -0.3536
 -0.3477  -0.3212  -0.2863  -0.2590  -0.2552  -0.2501  -0.2393  -0.2332

          Ground-State Mulliken Net Atomic Charges

     Atom                 Charge (a.u.)    Spin (a.u.)
  --------------------------------------------------------
      1 C                     0.062500       0.003671
      2 C                    -0.209590      -0.001321
      3 O                    -0.288638      -0.000233
      4 O                     0.047561      -0.002978
      5 C                    -0.342012       0.044455
      6 C                     2.001411       0.029819
      7 C                     0.895522       0.028704
      8 C                     0.122679       0.033518
      9 C                    -0.764556       0.037941
     10 C                    -1.132012       0.064057
     11 O                    -0.355265       0.246002
     12 C                    -0.223985       0.104499
     13 C                    -0.080432       0.098348
     14 C                    -1.189014       0.057894
     15 O                    -0.293790       0.256432
     16 C                    -1.184257       0.026955
     17 H                     0.231681       0.000372
     18 H                     0.216096      -0.000214
     19 H                     0.187276      -0.000792
     20 H                     0.310866      -0.002284
     21 H                     0.392558      -0.002253
     22 H                     0.149017      -0.002253
     23 H                     0.221009      -0.009797
     24 H                     0.225373      -0.010543
  --------------------------------------------------------
  Sum of atomic charges =    -1.000000

                    Cartesian Multipole Moments
 -----------------------------------------------------------------
    Charge (ESU x 10^10)
                -4.8032
    Dipole Moment (Debye)
         X       7.2865      Y       2.1238      Z       2.3339
       Tot       7.9404
    Quadrupole Moments (Debye-Ang)
        XX    -131.4832     XY       7.7922     YY    -100.8497
        XZ       1.1976     YZ       1.0031     ZZ    -104.5036

 Total job time:  499.77s(wall), 3862.97s(cpu)
        *  Thank you very much for using Q-Chem.  Have a nice day.  *
