 Q-Chem 5.4, Q-Chem, Inc., Pleasanton, CA (2021)
 Q-Chem 5.4.0 for Intel X86 EM64T Linux

User input:
--------------------------------------------------------------
$molecule
-1 2
Br                -2.7083910000     -1.8520180000     -0.0956920000
C                 -1.1368080000     -0.7258150000     -0.0395540000
C                 -1.2966100000      0.6288750000     -0.0297750000
C                 -0.1562830000      1.5235390000      0.0118370000
O                 -0.2842320000      2.7765030000      0.0212290000
C                  1.1420230000      0.8780540000      0.0413610000
C                  1.2606870000     -0.4806950000      0.0303820000
Br                 3.0279040000     -1.2655890000      0.0715970000
C                  0.1457990000     -1.4229380000     -0.0107280000
O                  0.2726450000     -2.6624120000     -0.0204580000
H                 -2.2798130000      1.0819240000     -0.0527070000
H                  2.0130790000      1.5205730000      0.0725080000
$end
$rem
MAX_SCF_CYCLES=200
BASIS  =  6-311++G(d,p)
GUI  =  2
JOB_TYPE  =  SP
METHOD  =  B3LYP
SOLVENT_METHOD = COSMO
$end
$solvent
dielectric 37.219
opticaldielectric 1.43
$end

--------------------------------------------------------------

             Standard Nuclear Orientation (Angstroms)
    I     Atom           X                Y                Z
 ----------------------------------------------------------------
    1      Br      2.8842917677    -0.7304085425     0.0000384525
    2      C       1.2053971503     0.2301489266    -0.0000636319
    3      C       1.2263018764     1.5941065118    -0.0000157498
    4      C       0.0002062506     2.3681804080    -0.0001496142
    5      O      -0.0002108110     3.6276952761     0.0001048027
    6      C      -1.2260605349     1.5939770892    -0.0000333941
    7      C      -1.2056103430     0.2301654028    -0.0000794662
    8      Br     -2.8843272099    -0.7304192415     0.0000413069
    9      C       0.0000111711    -0.5938272523    -0.0002358117
   10      O       0.0001634565    -1.8398129329    -0.0000408612
   11      H       2.1586033131     2.1448164462     0.0000916944
   12      H      -2.1584574247     2.1445907332     0.0000712052
 ----------------------------------------------------------------

   11   -5528.7378918067      8.63e-06  Convergence criterion met
 Total energy in the final basis set =    -5528.7378918067
    5   -5528.8168334735      5.37e-06  Convergence criterion met
 Total energy in the final basis set =    -5528.8168334735

                    Orbital Energies (a.u.)
 --------------------------------------------------------------

 Alpha MOs
 -- Occupied --
********-482.8302 -62.4830 -62.4830 -56.3034 -56.3034 -56.2998 -56.2997
-56.2995 -56.2995 -19.1002 -19.0966 -10.2531 -10.2414 -10.2333 -10.2333
-10.1833 -10.1833  -8.6917  -8.6916  -6.5228  -6.5227  -6.5106  -6.5106
 -6.5099  -6.5098  -2.6337  -2.6336  -2.6305  -2.6305  -2.6299  -2.6298
 -2.6201  -2.6201  -2.6200  -2.6200  -1.0306  -1.0189  -0.8620  -0.8237
 -0.7775  -0.7285  -0.6997  -0.6004  -0.5813  -0.5042  -0.4886  -0.4453
 -0.4368  -0.4251  -0.4226  -0.3986  -0.3981  -0.3730  -0.3396  -0.3270
 -0.2965  -0.2928  -0.2815  -0.2678  -0.2580  -0.2547  -0.1820

 Beta MOs
 -- Occupied --
********-482.8302 -62.4830 -62.4830 -56.3034 -56.3034 -56.2997 -56.2997
-56.2995 -56.2995 -19.0934 -19.0894 -10.2517 -10.2403 -10.2323 -10.2323
-10.1820 -10.1820  -8.6917  -8.6916  -6.5228  -6.5228  -6.5106  -6.5105
 -6.5099  -6.5098  -2.6337  -2.6337  -2.6305  -2.6304  -2.6299  -2.6298
 -2.6201  -2.6201  -2.6200  -2.6200  -1.0189  -1.0063  -0.8567  -0.8223
 -0.7752  -0.7263  -0.6894  -0.5961  -0.5768  -0.5018  -0.4841  -0.4398
 -0.4215  -0.4201  -0.4185  -0.3948  -0.3710  -0.3693  -0.3361  -0.3101
 -0.2962  -0.2922  -0.2614  -0.2605  -0.2520  -0.2486

          Ground-State Mulliken Net Atomic Charges

     Atom                 Charge (a.u.)    Spin (a.u.)
  --------------------------------------------------------
      1 Br                   -0.178106       0.004796
      2 C                     1.418545       0.092789
      3 C                    -0.411571       0.075255
      4 C                    -0.189874       0.129335
      5 O                    -0.508282       0.247872
      6 C                    -0.411954       0.075105
      7 C                     1.417817       0.092520
      8 Br                   -0.177997       0.004790
      9 C                    -2.083350       0.047321
     10 O                    -0.371672       0.245638
     11 H                     0.248237      -0.007715
     12 H                     0.248208      -0.007706
  --------------------------------------------------------
  Sum of atomic charges =    -1.000000

                    Cartesian Multipole Moments
 -----------------------------------------------------------------
    Charge (ESU x 10^10)
                -4.8032
    Dipole Moment (Debye)
         X      -0.0009      Y      -2.0989      Z      -0.0009
       Tot       2.0989
    Quadrupole Moments (Debye-Ang)
        XX     -91.0555     XY       0.0074     YY    -126.2720
        XZ       0.0002     YZ      -0.0011     ZZ     -85.8297

 Total job time:  24.51s(wall), 174.64s(cpu)
        *  Thank you very much for using Q-Chem.  Have a nice day.  *
