 Gaussian 16, Revision A.03,
 Gaussian 16:  ES64L-G16RevA.03 25-Dec-2016

 ----------------------------------------------------------------
 #P UB3LYP/6-311++G(d,p) SCRF=(PCM,Solvent=n,n-DiMethylFormamide)
 ----------------------------------------------------------------

 -------
 Reduced
 -------
 Symbolic Z-matrix:
 Charge = -2 Multiplicity = 1

                         Standard orientation:
 ---------------------------------------------------------------------
 Center     Atomic      Atomic             Coordinates (Angstroms)
 Number     Number       Type             X           Y           Z
 ---------------------------------------------------------------------
      1          6           0        0.721922   -1.111780   -0.076858
      2          6           0       -0.700327   -0.995165   -0.059025
      3          6           0       -1.439100    0.209639   -0.016669
      4          6           0       -0.758901    1.513377    0.025206
      5          6           0        0.665147    1.394623    0.013710
      6          6           0        1.400506    0.191667   -0.025471
      7          8           0        1.298367   -2.254173   -0.148265
      8          8           0       -1.340323    2.648643    0.081202
      9          1           0       -1.235434   -1.936081   -0.097372
     10          6           0        2.854303    0.358179   -0.022922
     11          8           0        3.475302    1.419857   -0.114242
     12          8           0        3.576942   -0.809815    0.116976
     13          6           0        4.981233   -0.653853    0.112868
     14          1           0        5.387607   -1.664516    0.208847
     15          1           0        5.329869   -0.031064    0.945863
     16          1           0        5.340154   -0.194302   -0.815743
     17          6           0       -2.894745    0.152073   -0.018847
     18          8           0       -3.385947   -1.177633    0.123317
     19          8           0       -3.722979    1.041228   -0.124787
     20          6           0       -4.790133   -1.295324    0.075712
     21          1           0        1.216868    2.328123    0.044798
     22          1           0       -5.007977   -2.361963    0.189554
     23          1           0       -5.202225   -0.934592   -0.875135
     24          1           0       -5.279173   -0.731064    0.879349
 ---------------------------------------------------------------------

 SCF Done:  E(UB3LYP) =  -837.732257274     A.U. after   17 cycles

 The electronic state is 1-A.
 Alpha  occ. eigenvalues --  -19.14575 -19.13906 -19.09451 -19.09088 -19.02617
 Alpha  occ. eigenvalues --  -19.02318 -10.28163 -10.28058 -10.20807 -10.20630
 Alpha  occ. eigenvalues --  -10.19110 -10.19050 -10.15529 -10.15516 -10.13435
 Alpha  occ. eigenvalues --  -10.13420  -1.08431  -1.07607  -0.99498  -0.99352
 Alpha  occ. eigenvalues --   -0.94711  -0.94221  -0.79887  -0.75612  -0.71369
 Alpha  occ. eigenvalues --   -0.68819  -0.66023  -0.62172  -0.56152  -0.55132
 Alpha  occ. eigenvalues --   -0.53423  -0.49230  -0.47167  -0.46658  -0.46620
 Alpha  occ. eigenvalues --   -0.46160  -0.45102  -0.42814  -0.41929  -0.41287
 Alpha  occ. eigenvalues --   -0.39316  -0.38754  -0.38392  -0.36731  -0.35698
 Alpha  occ. eigenvalues --   -0.35059  -0.34685  -0.34212  -0.32711  -0.32354
 Alpha  occ. eigenvalues --   -0.29061  -0.28824  -0.27039  -0.26743  -0.23737
 Alpha  occ. eigenvalues --   -0.23352  -0.20071  -0.19671  -0.13301
 Alpha virt. eigenvalues --   -0.05076   0.00043   0.00528   0.01916   0.02263
 Alpha virt. eigenvalues --    0.02814   0.03494   0.03594   0.04206   0.04220
 Alpha virt. eigenvalues --    0.04662   0.05120   0.06345   0.06559   0.06881

  Beta  occ. eigenvalues --  -19.14575 -19.13906 -19.09451 -19.09088 -19.02617
  Beta  occ. eigenvalues --  -19.02318 -10.28163 -10.28058 -10.20807 -10.20630
  Beta  occ. eigenvalues --  -10.19110 -10.19050 -10.15529 -10.15516 -10.13435
  Beta  occ. eigenvalues --  -10.13420  -1.08431  -1.07607  -0.99498  -0.99352
  Beta  occ. eigenvalues --   -0.94711  -0.94221  -0.79887  -0.75612  -0.71369
  Beta  occ. eigenvalues --   -0.68819  -0.66023  -0.62172  -0.56152  -0.55132
  Beta  occ. eigenvalues --   -0.53423  -0.49230  -0.47167  -0.46658  -0.46620
  Beta  occ. eigenvalues --   -0.46160  -0.45102  -0.42814  -0.41929  -0.41287
  Beta  occ. eigenvalues --   -0.39316  -0.38754  -0.38392  -0.36731  -0.35698
  Beta  occ. eigenvalues --   -0.35059  -0.34685  -0.34212  -0.32711  -0.32354
  Beta  occ. eigenvalues --   -0.29061  -0.28824  -0.27039  -0.26743  -0.23737
  Beta  occ. eigenvalues --   -0.23352  -0.20071  -0.19671  -0.13301
  Beta virt. eigenvalues --   -0.05076   0.00043   0.00528   0.01916   0.02263
  Beta virt. eigenvalues --    0.02814   0.03494   0.03594   0.04206   0.04220
  Beta virt. eigenvalues --    0.04662   0.05120   0.06345   0.06559   0.06881

 Mulliken charges and spin densities:
               1          2
     1  C   -0.833176  -0.000000
     2  C   -0.209902  -0.000000
     3  C    0.501614   0.000000
     4  C   -0.572000  -0.000000
     5  C   -0.496747   0.000000
     6  C    0.719226  -0.000000
     7  O   -0.656503   0.000000
     8  O   -0.648530   0.000000
     9  H    0.174753  -0.000000
    10  C    0.146127   0.000000
    11  O   -0.395849   0.000000
    12  O   -0.128382   0.000000
    13  C   -0.233149   0.000000
    14  H    0.152313  -0.000000
    15  H    0.169742   0.000000
    16  H    0.172536   0.000000
    17  C    0.293054   0.000000
    18  O   -0.180283   0.000000
    19  O   -0.370549   0.000000
    20  C   -0.233444   0.000000
    21  H    0.153712   0.000000
    22  H    0.141882   0.000000
    23  H    0.167804  -0.000000
    24  H    0.165752  -0.000000
 Sum of Mulliken charges =  -2.00000  -0.00000

 Dipole moment (field-independent basis, Debye):
    X=              0.9151    Y=             -5.4983    Z=              0.5379  Tot=              5.5998
 Quadrupole moment (field-independent basis, Debye-Ang):
   XX=           -130.1534   YY=           -152.1275   ZZ=            -98.3036
   XY=             21.5876   XZ=              1.2349   YZ=             -0.6454

 Normal termination of Gaussian 16 at Wed Jan 24 22:51:30 2024.
