 Q-Chem 5.4, Q-Chem, Inc., Pleasanton, CA (2021)
 Q-Chem 5.4.0 for Intel X86 EM64T Linux

User input:
--------------------------------------------------------------
$molecule
-1 2
C                  6.8815660000     -1.6257410000     -0.2432460000
C                  7.4607990000     -0.6700820000     -1.0570140000
C                  6.6341060000      0.3453480000     -1.6264570000
C                  5.2803890000      0.3407000000     -1.3463640000
C                  4.6776120000     -0.6294540000     -0.5173020000
C                  5.5011590000     -1.6407810000      0.0501480000
C                  4.9615120000     -2.6856430000      0.9207930000
C                  3.5211320000     -2.6244500000      1.1708280000
C                  2.6975860000     -1.6131150000      0.6033990000
C                  3.2372420000     -0.5682570000     -0.2672650000
C                  2.9183500000     -3.5946110000      1.9998700000
C                  1.5646310000     -3.5992550000      2.2799800000
C                  0.7379540000     -2.5837970000      1.7105920000
C                  1.3171920000     -1.6281310000      0.8968230000
O                  5.6900270000     -3.5802300000      1.4227240000
O                  2.5087200000      0.3263300000     -0.7691840000
C                  0.9725060000     -4.6633970000      3.1745640000
C                 -0.7464790000     -2.5512260000      1.9910700000
C                  8.9452530000     -0.7025080000     -1.3373770000
C                  7.2262740000      1.4094730000     -2.5210280000
H                  7.4854090000     -2.4091780000      0.2030580000
H                  4.6280950000      1.1000240000     -1.7653240000
H                  3.5706300000     -4.3539620000      2.4188040000
H                  0.7133430000     -0.8446890000      0.4505370000
H                  1.7476090000     -5.3521350000      3.5180080000
H                  0.2055260000     -5.2540240000      2.6580580000
H                  0.4907420000     -4.2330950000      4.0614570000
H                 -0.9598810000     -2.4492000000      3.0624760000
H                 -1.2476190000     -3.4689670000      1.6587360000
H                 -1.2167600000     -1.7102560000      1.4765770000
H                  9.4155340000     -1.5435660000     -0.8230400000
H                  9.4462850000      0.2152020000     -1.0047680000
H                  9.1587590000     -0.8041860000     -2.4087980000
H                  7.7084460000      0.9791130000     -3.4076680000
H                  7.9929330000      2.0003830000     -2.0043630000
H                  6.4511180000      2.0979520000     -2.8648720000
$end
$rem
MAX_SCF_CYCLES=200
BASIS  =  6-311++G(d,p)
GUI  =  2
JOB_TYPE  =  SP
METHOD  =  B3LYP
SOLVENT_METHOD = PCM
$end
$pcm
theory = CPCM
$end
$solvent
dielectric 37.219
opticaldielectric 1.43
$end

--------------------------------------------------------------

             Standard Nuclear Orientation (Angstroms)
    I     Atom           X                Y                Z
 ----------------------------------------------------------------
    1      C       6.8815660000    -1.6257410000    -0.2432460000
    2      C       7.4607990000    -0.6700820000    -1.0570140000
    3      C       6.6341060000     0.3453480000    -1.6264570000
    4      C       5.2803890000     0.3407000000    -1.3463640000
    5      C       4.6776120000    -0.6294540000    -0.5173020000
    6      C       5.5011590000    -1.6407810000     0.0501480000
    7      C       4.9615120000    -2.6856430000     0.9207930000
    8      C       3.5211320000    -2.6244500000     1.1708280000
    9      C       2.6975860000    -1.6131150000     0.6033990000
   10      C       3.2372420000    -0.5682570000    -0.2672650000
   11      C       2.9183500000    -3.5946110000     1.9998700000
   12      C       1.5646310000    -3.5992550000     2.2799800000
   13      C       0.7379540000    -2.5837970000     1.7105920000
   14      C       1.3171920000    -1.6281310000     0.8968230000
   15      O       5.6900270000    -3.5802300000     1.4227240000
   16      O       2.5087200000     0.3263300000    -0.7691840000
   17      C       0.9725060000    -4.6633970000     3.1745640000
   18      C      -0.7464790000    -2.5512260000     1.9910700000
   19      C       8.9452530000    -0.7025080000    -1.3373770000
   20      C       7.2262740000     1.4094730000    -2.5210280000
   21      H       7.4854090000    -2.4091780000     0.2030580000
   22      H       4.6280950000     1.1000240000    -1.7653240000
   23      H       3.5706300000    -4.3539620000     2.4188040000
   24      H       0.7133430000    -0.8446890000     0.4505370000
   25      H       1.7476090000    -5.3521350000     3.5180080000
   26      H       0.2055260000    -5.2540240000     2.6580580000
   27      H       0.4907420000    -4.2330950000     4.0614570000
   28      H      -0.9598810000    -2.4492000000     3.0624760000
   29      H      -1.2476190000    -3.4689670000     1.6587360000
   30      H      -1.2167600000    -1.7102560000     1.4765770000
   31      H       9.4155340000    -1.5435660000    -0.8230400000
   32      H       9.4462850000     0.2152020000    -1.0047680000
   33      H       9.1587590000    -0.8041860000    -2.4087980000
   34      H       7.7084460000     0.9791130000    -3.4076680000
   35      H       7.9929330000     2.0003830000    -2.0043630000
   36      H       6.4511180000     2.0979520000    -2.8648720000
 ----------------------------------------------------------------

    8    -846.4083440040      6.28e-06  Convergence criterion met
 Total energy in the final basis set =     -846.4083440040

                    Orbital Energies (a.u.)
 --------------------------------------------------------------

 Alpha MOs
 -- Occupied --
-19.0731 -19.0731 -10.2206 -10.2205 -10.1762 -10.1762 -10.1758 -10.1758
-10.1661 -10.1661 -10.1657 -10.1657 -10.1615 -10.1615 -10.1615 -10.1615
-10.1589 -10.1589 -10.1589 -10.1589  -1.0002  -0.9978  -0.8613  -0.8537
 -0.8000  -0.7667  -0.7612  -0.7606  -0.7066  -0.6988  -0.6954  -0.6623
 -0.6380  -0.6055  -0.5831  -0.5823  -0.5512  -0.5046  -0.5037  -0.4794
 -0.4524  -0.4460  -0.4386  -0.4322  -0.4278  -0.4195  -0.4154  -0.4105
 -0.4102  -0.4080  -0.4003  -0.3936  -0.3933  -0.3800  -0.3797  -0.3776
 -0.3712  -0.3698  -0.3537  -0.3446  -0.3339  -0.3330  -0.3242  -0.3215
 -0.2541  -0.2496  -0.2476  -0.2450  -0.2346  -0.2306  -0.1370

 Beta MOs
 -- Occupied --
-19.0681 -19.0681 -10.2185 -10.2185 -10.1758 -10.1758 -10.1754 -10.1754
-10.1654 -10.1654 -10.1650 -10.1650 -10.1614 -10.1614 -10.1614 -10.1614
-10.1590 -10.1590 -10.1589 -10.1589  -0.9911  -0.9886  -0.8590  -0.8526
 -0.7967  -0.7657  -0.7593  -0.7593  -0.7030  -0.6971  -0.6947  -0.6612
 -0.6323  -0.6047  -0.5827  -0.5799  -0.5481  -0.5032  -0.5014  -0.4777
 -0.4518  -0.4437  -0.4372  -0.4291  -0.4268  -0.4188  -0.4146  -0.4069
 -0.4047  -0.3987  -0.3983  -0.3928  -0.3927  -0.3799  -0.3796  -0.3708
 -0.3687  -0.3546  -0.3528  -0.3418  -0.3327  -0.3327  -0.3230  -0.3089
 -0.2455  -0.2404  -0.2379  -0.2371  -0.2300  -0.2260

          Ground-State Mulliken Net Atomic Charges

     Atom                 Charge (a.u.)    Spin (a.u.)
  --------------------------------------------------------
      1 C                    -0.220485       0.029003
      2 C                     0.336656       0.035849
      3 C                     0.330928       0.035859
      4 C                    -0.219402       0.029144
      5 C                     0.119193       0.034459
      6 C                     0.122010       0.034431
      7 C                    -0.706527       0.112034
      8 C                     0.115988       0.034389
      9 C                     0.122480       0.034435
     10 C                    -0.708506       0.112012
     11 C                    -0.220344       0.029128
     12 C                     0.332089       0.035863
     13 C                     0.336186       0.035832
     14 C                    -0.220250       0.029016
     15 O                    -0.483331       0.192524
     16 O                    -0.483280       0.192523
     17 C                    -0.529630      -0.003553
     18 C                    -0.524803      -0.003504
     19 C                    -0.524699      -0.003511
     20 C                    -0.530209      -0.003550
     21 H                     0.134907      -0.002012
     22 H                     0.135173      -0.002036
     23 H                     0.135161      -0.002036
     24 H                     0.134912      -0.002013
     25 H                     0.172981       0.000122
     26 H                     0.165601       0.001907
     27 H                     0.165392       0.001898
     28 H                     0.165320       0.001903
     29 H                     0.165670       0.001908
     30 H                     0.172936       0.000119
     31 H                     0.172908       0.000119
     32 H                     0.165709       0.001909
     33 H                     0.165301       0.001902
     34 H                     0.165368       0.001897
     35 H                     0.165618       0.001908
     36 H                     0.172965       0.000122
  --------------------------------------------------------
  Sum of atomic charges =    -1.000014

                    Cartesian Multipole Moments
 -----------------------------------------------------------------
    Charge (ESU x 10^10)
                -4.8033
    Dipole Moment (Debye)
         X     -19.6904      Y       7.8149      Z      -1.5694
       Tot      21.2425
    Quadrupole Moments (Debye-Ang)
        XX    -201.5075     XY      52.8783     YY    -150.3650
        XZ     -22.4432     YZ       7.5241     ZZ    -125.8304

 Total job time:  250.43s(wall), 600.81s(cpu)
        *  Thank you very much for using Q-Chem.  Have a nice day.  *
