 Q-Chem 5.4, Q-Chem, Inc., Pleasanton, CA (2021)
 Q-Chem 5.4.0 for Intel X86 EM64T Linux

User input:
--------------------------------------------------------------
$molecule
0 1
O                 -0.4221850000      2.1657670000      0.2518890000
C                 -0.5791540000      0.9570590000      0.1296050000
C                  0.5791790000      0.0499410000     -0.0045470000
C                  0.3833740000     -1.2909210000     -0.1308580000
O                  1.3661730000     -2.1937050000     -0.2591090000
C                 -0.9814960000     -1.9212200000     -0.1582830000
O                 -1.1019940000     -3.1237510000     -0.2824050000
C                 -2.1487860000     -1.0086770000     -0.0332660000
C                 -3.4415360000     -1.5378010000     -0.0543630000
C                 -4.5392220000     -0.6916630000      0.0645700000
C                 -4.3493900000      0.6849100000      0.2045780000
C                 -3.0629680000      1.2164150000      0.2256560000
C                 -1.9569070000      0.3733750000      0.1071960000
C                  1.9558610000      0.6864560000     -0.0383400000
H                 -3.5637230000     -2.6084270000     -0.1634180000
H                 -5.5423780000     -1.1021970000      0.0487440000
H                 -5.2061240000      1.3428470000      0.2967230000
H                 -2.8940600000      2.2806660000      0.3326930000
C                  2.9853890000     -0.0038430000      0.8244950000
C                  4.2160800000     -0.4218120000      0.4822950000
C                  4.8221740000     -0.2907680000     -0.8924460000
C                  5.1256040000     -1.0506760000      1.5093140000
H                  2.2220480000     -1.7703520000     -0.0644870000
H                  1.8319800000      1.7196330000      0.2988470000
H                  2.2903070000      0.7497900000     -1.0790760000
H                  2.6822670000     -0.1410840000      1.8615270000
H                  4.1363810000      0.1134220000     -1.6362840000
H                  5.1789950000     -1.2629120000     -1.2501710000
H                  5.6983930000      0.3663690000     -0.8538900000
H                  4.6454870000     -1.1295450000      2.4861510000
H                  6.0417870000     -0.4603290000      1.6249330000
H                  5.4374340000     -2.0534270000      1.1961010000
$end

$rem
BASIS  =  6-311++G(d,p)
GUI  =  2
JOB_TYPE  =  SP
METHOD  =  B3LYP
SCF_CONVERGENCE  = 8
SOLVENT_METHOD = sm12
$end

$smx
solvent dimethylformamide
charges CM5
$end

--------------------------------------------------------------

             Standard Nuclear Orientation (Angstroms)
    I     Atom           X                Y                Z
 ----------------------------------------------------------------
    1      O      -0.4221850000     2.1657670000     0.2518890000
    2      C      -0.5791540000     0.9570590000     0.1296050000
    3      C       0.5791790000     0.0499410000    -0.0045470000
    4      C       0.3833740000    -1.2909210000    -0.1308580000
    5      O       1.3661730000    -2.1937050000    -0.2591090000
    6      C      -0.9814960000    -1.9212200000    -0.1582830000
    7      O      -1.1019940000    -3.1237510000    -0.2824050000
    8      C      -2.1487860000    -1.0086770000    -0.0332660000
    9      C      -3.4415360000    -1.5378010000    -0.0543630000
   10      C      -4.5392220000    -0.6916630000     0.0645700000
   11      C      -4.3493900000     0.6849100000     0.2045780000
   12      C      -3.0629680000     1.2164150000     0.2256560000
   13      C      -1.9569070000     0.3733750000     0.1071960000
   14      C       1.9558610000     0.6864560000    -0.0383400000
   15      H      -3.5637230000    -2.6084270000    -0.1634180000
   16      H      -5.5423780000    -1.1021970000     0.0487440000
   17      H      -5.2061240000     1.3428470000     0.2967230000
   18      H      -2.8940600000     2.2806660000     0.3326930000
   19      C       2.9853890000    -0.0038430000     0.8244950000
   20      C       4.2160800000    -0.4218120000     0.4822950000
   21      C       4.8221740000    -0.2907680000    -0.8924460000
   22      C       5.1256040000    -1.0506760000     1.5093140000
   23      H       2.2220480000    -1.7703520000    -0.0644870000
   24      H       1.8319800000     1.7196330000     0.2988470000
   25      H       2.2903070000     0.7497900000    -1.0790760000
   26      H       2.6822670000    -0.1410840000     1.8615270000
   27      H       4.1363810000     0.1134220000    -1.6362840000
   28      H       5.1789950000    -1.2629120000    -1.2501710000
   29      H       5.6983930000     0.3663690000    -0.8538900000
   30      H       4.6454870000    -1.1295450000     2.4861510000
   31      H       6.0417870000    -0.4603290000     1.6249330000
   32      H       5.4374340000    -2.0534270000     1.1961010000
 ----------------------------------------------------------------

   15    -805.9071523271      4.23e-09  Convergence criterion met
 Total energy in the final basis set =     -805.9301044730

                    Orbital Energies (a.u.)
 --------------------------------------------------------------

 Alpha MOs
 -- Occupied --
-19.1746 -19.1354 -19.1249 -10.2850 -10.2775 -10.2695 -10.2078 -10.2071
-10.2052 -10.1980 -10.1973 -10.1963 -10.1959 -10.1918 -10.1868 -10.1759
-10.1657 -10.1629  -1.0983  -1.0638  -1.0583  -0.8895  -0.8438  -0.8223
 -0.7844  -0.7774  -0.7440  -0.6975  -0.6958  -0.6617  -0.6484  -0.6275
 -0.5896  -0.5780  -0.5468  -0.5281  -0.5070  -0.4969  -0.4751  -0.4646
 -0.4604  -0.4588  -0.4515  -0.4506  -0.4409  -0.4365  -0.4226  -0.4202
 -0.4094  -0.3961  -0.3924  -0.3865  -0.3800  -0.3761  -0.3727  -0.3676
 -0.3652  -0.3423  -0.2877  -0.2866  -0.2791  -0.2778  -0.2607  -0.2487

          Ground-State Mulliken Net Atomic Charges

     Atom                 Charge (a.u.)
  ----------------------------------------
      1 O                    -0.246475
      2 C                    -2.057414
      3 C                     2.209992
      4 C                    -1.184061
      5 O                    -0.236029
      6 C                    -1.428663
      7 O                    -0.295287
      8 C                    -0.022154
      9 C                     0.008518
     10 C                     0.428129
     11 C                     0.389503
     12 C                     0.134698
     13 C                    -0.559266
     14 C                     0.197677
     15 H                     0.183718
     16 H                     0.321605
     17 H                     0.325939
     18 H                     0.185417
     19 C                    -0.495773
     20 C                     0.626063
     21 C                    -0.198094
     22 C                    -0.363310
     23 H                     0.396472
     24 H                     0.206684
     25 H                     0.195377
     26 H                     0.197410
     27 H                     0.196184
     28 H                     0.176361
     29 H                     0.176779
     30 H                     0.189234
     31 H                     0.165676
     32 H                     0.175089
  ----------------------------------------
  Sum of atomic charges =     0.000000

                    Cartesian Multipole Moments
 -----------------------------------------------------------------
    Charge (ESU x 10^10)
                 0.0000
    Dipole Moment (Debye)
         X       1.2699      Y       1.3380      Z       0.3188
       Tot       1.8720
    Quadrupole Moments (Debye-Ang)
        XX     -68.8949     XY      -3.9155     YY    -125.7195
        XZ      -0.5322     YZ      -2.7926     ZZ    -105.8355

 Total job time:  945.92s(wall), 6620.58s(cpu)
        *  Thank you very much for using Q-Chem.  Have a nice day.  *
