 Gaussian 16, Revision A.03,
 Gaussian 16:  ES64L-G16RevA.03 25-Dec-2016

 ----------------------------------------------------------------
 #P UB3LYP/6-311++G(d,p) SCRF=(PCM,Solvent=n,n-DiMethylFormamide)
 ----------------------------------------------------------------

 ------------------
 Quinone PCM in DMF
 ------------------
 Symbolic Z-matrix:
 Charge =  0 Multiplicity = 1

                         Standard orientation:
 ---------------------------------------------------------------------
 Center     Atomic      Atomic             Coordinates (Angstroms)
 Number     Number       Type             X           Y           Z
 ---------------------------------------------------------------------
      1          6           0        1.171827    1.863349   -0.000860
      2          6           0        2.488629    1.428214   -0.000603
      3          6           0        2.770876    0.051043    0.000115
      4          6           0        0.126637    0.935843   -0.000492
      5          6           0        0.407087   -0.435811   -0.000019
      6          6           0        1.727898   -0.880298    0.000307
      7          6           0       -1.287962    1.414413   -0.000159
      8          6           0       -2.382365    0.399101    0.001367
      9          6           0       -2.109863   -0.930597   -0.000936
     10          6           0       -0.704068   -1.433864   -0.000365
     11          8           0       -1.536486    2.609286   -0.000973
     12          8           0       -0.462962   -2.629751   -0.000303
     13          6           0        4.131172   -0.396513    0.000605
     14          7           0        5.230755   -0.750420    0.001020
     15          1           0        0.932401    2.919221   -0.001348
     16          1           0        3.304142    2.140733   -0.000892
     17          1           0        1.928416   -1.943990    0.000699
     18          6           0       -3.789615    0.926369    0.002774
     19          6           0       -3.195738   -1.969384   -0.001637
     20          1           0       -3.791085    2.013907    0.037877
     21          1           0       -4.349143    0.543510    0.861739
     22          1           0       -4.326441    0.604910   -0.895669
     23          1           0       -3.815849   -1.884562    0.896703
     24          1           0       -2.768577   -2.969557   -0.035733
     25          1           0       -3.860631   -1.838695   -0.860886
 ---------------------------------------------------------------------

 SCF Done:  E(UB3LYP) =  -706.193045001     A.U. after   15 cycles

 The electronic state is 1-A.
 Alpha  occ. eigenvalues --  -19.14208 -19.14164 -14.33784 -10.29032 -10.29024
 Alpha  occ. eigenvalues --  -10.24673 -10.23748 -10.22374 -10.22213 -10.22145
 Alpha  occ. eigenvalues --  -10.22115 -10.21953 -10.21881 -10.21209 -10.17626
 Alpha  occ. eigenvalues --  -10.17622  -1.07643  -1.07458  -0.94000  -0.90841
 Alpha  occ. eigenvalues --   -0.86211  -0.81621  -0.79765  -0.75428  -0.71974
 Alpha  occ. eigenvalues --   -0.69817  -0.65780  -0.63565  -0.60136  -0.57660
 Alpha  occ. eigenvalues --   -0.55072  -0.51953  -0.50527  -0.47489  -0.47222
 Alpha  occ. eigenvalues --   -0.47024  -0.46788  -0.43880  -0.43646  -0.43212
 Alpha  occ. eigenvalues --   -0.42490  -0.41494  -0.41359  -0.40410  -0.40180
 Alpha  occ. eigenvalues --   -0.39561  -0.38512  -0.38103  -0.36867  -0.36320
 Alpha  occ. eigenvalues --   -0.29998  -0.29843  -0.29341  -0.28213  -0.28064
 Alpha virt. eigenvalues --   -0.13370  -0.08025  -0.05429  -0.01054  -0.00085
 Alpha virt. eigenvalues --    0.00533   0.01032   0.01409   0.02250   0.02384
 Alpha virt. eigenvalues --    0.02391   0.03133   0.03487   0.04570   0.04826

  Beta  occ. eigenvalues --  -19.14208 -19.14164 -14.33784 -10.29032 -10.29024
  Beta  occ. eigenvalues --  -10.24673 -10.23748 -10.22374 -10.22213 -10.22145
  Beta  occ. eigenvalues --  -10.22115 -10.21953 -10.21881 -10.21209 -10.17626
  Beta  occ. eigenvalues --  -10.17622  -1.07643  -1.07458  -0.94000  -0.90841
  Beta  occ. eigenvalues --   -0.86211  -0.81621  -0.79765  -0.75428  -0.71974
  Beta  occ. eigenvalues --   -0.69817  -0.65780  -0.63565  -0.60136  -0.57660
  Beta  occ. eigenvalues --   -0.55072  -0.51953  -0.50527  -0.47489  -0.47222
  Beta  occ. eigenvalues --   -0.47024  -0.46788  -0.43880  -0.43646  -0.43212
  Beta  occ. eigenvalues --   -0.42490  -0.41494  -0.41359  -0.40410  -0.40180
  Beta  occ. eigenvalues --   -0.39561  -0.38512  -0.38103  -0.36867  -0.36320
  Beta  occ. eigenvalues --   -0.29998  -0.29843  -0.29341  -0.28213  -0.28064
  Beta virt. eigenvalues --   -0.13370  -0.08025  -0.05429  -0.01054  -0.00085
  Beta virt. eigenvalues --    0.00533   0.01032   0.01409   0.02250   0.02384
  Beta virt. eigenvalues --    0.02391   0.03133   0.03487   0.04570   0.04826

 Mulliken charges and spin densities:
               1          2
     1  C    0.066108  -0.000000
     2  C   -0.632420   0.000000
     3  C    1.540503   0.000000
     4  C    0.194106  -0.000000
     5  C   -0.047168   0.000000
     6  C    0.224389   0.000000
     7  C   -0.600017  -0.000000
     8  C    0.368126  -0.000000
     9  C    0.876260  -0.000000
    10  C   -0.743893   0.000000
    11  O   -0.267242   0.000000
    12  O   -0.261738  -0.000000
    13  C   -1.460056  -0.000000
    14  N   -0.240006   0.000000
    15  H    0.192469   0.000000
    16  H    0.233759  -0.000000
    17  H    0.212932  -0.000000
    18  C   -0.413490   0.000000
    19  C   -0.356014   0.000000
    20  H    0.199793  -0.000000
    21  H    0.175691  -0.000000
    22  H    0.181999  -0.000000
    23  H    0.182747   0.000000
    24  H    0.196665   0.000000
    25  H    0.176497   0.000000
 Sum of Mulliken charges =  -0.00000   0.00000

 Dipole moment (field-independent basis, Debye):
    X=             -5.6268    Y=              1.7551    Z=              0.0006  Tot=              5.8942
 Quadrupole moment (field-independent basis, Debye-Ang):
   XX=           -109.8269   YY=           -104.3687   ZZ=            -91.7573
   XY=             15.7810   XZ=             -0.0118   YZ=             -0.0122

 Normal termination of Gaussian 16 at Tue Jan 23 20:42:02 2024.
