 Gaussian 16, Revision A.03,
 Gaussian 16:  ES64L-G16RevA.03 25-Dec-2016

 ----------------------------------------------------------------------
 #P UB3LYP/6-311++G(d,p) nosym opt freq SCRF=(PCM,Solvent=n,n-DiMethylF
 ormamide)
 ----------------------------------------------------------------------

 --------
 Oxidized
 --------
 Symbolic Z-matrix:
 Charge =  0 Multiplicity = 1

 SCF Done:  E(UB3LYP) =  -993.873989327     A.U. after   16 cycles
 SCF Done:  E(UB3LYP) =  -993.874166302     A.U. after   13 cycles
 SCF Done:  E(UB3LYP) =  -993.874034845     A.U. after   13 cycles
 SCF Done:  E(UB3LYP) =  -993.874229503     A.U. after   13 cycles
 SCF Done:  E(UB3LYP) =  -993.874240017     A.U. after   11 cycles
 SCF Done:  E(UB3LYP) =  -993.874239600     A.U. after   11 cycles
 SCF Done:  E(UB3LYP) =  -993.874242367     A.U. after   11 cycles
 SCF Done:  E(UB3LYP) =  -993.874242579     A.U. after   10 cycles
 SCF Done:  E(UB3LYP) =  -993.874242668     A.U. after   10 cycles
 SCF Done:  E(UB3LYP) =  -993.874242697     A.U. after    8 cycles
 SCF Done:  E(UB3LYP) =  -993.874242720     A.U. after    8 cycles
 Optimization completed.
    -- Stationary point found.
 Normal termination of Gaussian 16 at Sat Feb 10 10:29:23 2024.

 ----------------------------------------------------------------------
 #P Geom=AllCheck Guess=TCheck SCRF=Check GenChk UB3LYP/6-311++G(d,p) F
 req
 ----------------------------------------------------------------------

 Structure from the checkpoint file:  "060.chk"
 --------
 Oxidized
 --------
 Charge =  0 Multiplicity = 1

                          Input orientation:
 ---------------------------------------------------------------------
 Center     Atomic      Atomic             Coordinates (Angstroms)
 Number     Number       Type             X           Y           Z
 ---------------------------------------------------------------------
      1          6           0       -0.118488    1.019753   -0.385703
      2          6           0       -1.017764    0.142260   -1.166226
      3          6           0       -1.140756   -1.157946   -0.878781
      4          6           0       -0.388669   -1.787354    0.229825
      5          6           0        0.516846   -0.889465    1.024286
      6          6           0        0.644926    0.417053    0.746660
      7          8           0        0.005741    2.205783   -0.649766
      8          8           0       -0.497461   -2.971415    0.482842
      9          6           0        1.513264    1.369646    1.555475
     10          6           0        2.920449    1.570677    1.078816
     11          8           0        1.029860    1.923945    2.518023
     12          1           0        2.904364    1.959404    0.055868
     13          1           0        3.444231    0.610596    1.047706
     14          1           0        3.446074    2.264478    1.733758
     15          1           0       -1.792585   -1.818733   -1.437652
     16         17           0        1.388872   -1.645628    2.322992
     17          1           0       -1.562476    0.613567   -1.975725
 ---------------------------------------------------------------------

 SCF Done:  E(UB3LYP) =  -993.874242720     A.U. after    1 cycles

 Alpha  occ. eigenvalues -- -101.58648 -19.16135 -19.15923 -19.15093 -10.31021
 Alpha  occ. eigenvalues --  -10.30851 -10.30276 -10.28638 -10.24004 -10.22688
 Alpha  occ. eigenvalues --  -10.22586 -10.18787  -9.50094  -7.26566  -7.25599
 Alpha  occ. eigenvalues --   -7.25504  -1.09415  -1.09153  -1.08215  -0.92294
 Alpha  occ. eigenvalues --   -0.86508  -0.81121  -0.76491  -0.72603  -0.66908
 Alpha  occ. eigenvalues --   -0.62861  -0.57975  -0.55142  -0.52215  -0.50534
 Alpha  occ. eigenvalues --   -0.48971  -0.48391  -0.47239  -0.46549  -0.46202
 Alpha  occ. eigenvalues --   -0.44830  -0.43946  -0.43281  -0.41329  -0.39184
 Alpha  occ. eigenvalues --   -0.38307  -0.34740  -0.32605  -0.31408  -0.30960
 Alpha  occ. eigenvalues --   -0.30006  -0.28358
 Alpha virt. eigenvalues --   -0.15278  -0.05798  -0.04836  -0.01974  -0.01074
 Alpha virt. eigenvalues --   -0.00130   0.00751   0.01826   0.03065   0.03310
 Alpha virt. eigenvalues --    0.04054   0.05374   0.05792   0.05949   0.06339

  Beta  occ. eigenvalues -- -101.58648 -19.16135 -19.15923 -19.15093 -10.31021
  Beta  occ. eigenvalues --  -10.30851 -10.30276 -10.28638 -10.24004 -10.22688
  Beta  occ. eigenvalues --  -10.22586 -10.18787  -9.50094  -7.26566  -7.25599
  Beta  occ. eigenvalues --   -7.25504  -1.09415  -1.09153  -1.08215  -0.92294
  Beta  occ. eigenvalues --   -0.86508  -0.81121  -0.76491  -0.72603  -0.66908
  Beta  occ. eigenvalues --   -0.62861  -0.57975  -0.55142  -0.52215  -0.50534
  Beta  occ. eigenvalues --   -0.48971  -0.48391  -0.47239  -0.46549  -0.46202
  Beta  occ. eigenvalues --   -0.44830  -0.43946  -0.43281  -0.41329  -0.39184
  Beta  occ. eigenvalues --   -0.38307  -0.34740  -0.32605  -0.31408  -0.30960
  Beta  occ. eigenvalues --   -0.30006  -0.28358
  Beta virt. eigenvalues --   -0.15278  -0.05798  -0.04836  -0.01974  -0.01074
  Beta virt. eigenvalues --   -0.00130   0.00751   0.01826   0.03065   0.03310
  Beta virt. eigenvalues --    0.04054   0.05374   0.05792   0.05949   0.06339

 Mulliken charges and spin densities:
               1          2
     1  C   -0.908493  -0.000000
     2  C    0.167317   0.000000
     3  C    0.131938  -0.000000
     4  C   -0.694560  -0.000000
     5  C    0.240378  -0.000000
     6  C    0.872615   0.000000
     7  O   -0.223216  -0.000000
     8  O   -0.222867  -0.000000
     9  C   -0.121637  -0.000000
    10  C   -0.569836  -0.000000
    11  O   -0.268789  -0.000000
    12  H    0.210429  -0.000000
    13  H    0.174968   0.000000
    14  H    0.179283  -0.000000
    15  H    0.256358   0.000000
    16  Cl   0.521076  -0.000000
    17  H    0.255035   0.000000
 Sum of Mulliken charges =  -0.00000  -0.00000

 Dipole moment (field-independent basis, Debye):
    X=              0.9102    Y=             -0.9741    Z=             -4.0290  Tot=              4.2438
 Quadrupole moment (field-independent basis, Debye-Ang):
   XX=            -63.1726   YY=            -96.2867   ZZ=            -81.5224
   XY=              1.7198   XZ=              3.6530   YZ=             -0.8965

  Exact polarizability: 116.372  10.680 215.637  22.273 -25.300 134.027
 Approx polarizability: 125.529   9.255 292.897  15.944 -41.685 153.677

                      1                      2                      3
                      A                      A                      A
 Frequencies --     31.2739                69.4854                80.4720
 Red. masses --      4.4048                 9.9974                 7.4616
 Frc consts  --      0.0025                 0.0284                 0.0285
 IR Inten    --      8.4167                 1.7623                17.5749

                      4                      5                      6
                      A                      A                      A
 Frequencies --    120.3491               137.3934               150.1197
 Red. masses --      1.1122                 5.4011                 5.8480
 Frc consts  --      0.0095                 0.0601                 0.0776
 IR Inten    --      0.4340                 0.1008                 7.7591

                      7                      8                      9
                      A                      A                      A
 Frequencies --    222.9054               258.4054               304.8281
 Red. masses --     12.2958                 4.7860                 6.6842
 Frc consts  --      0.3600                 0.1883                 0.3659
 IR Inten    --      0.3516                 0.1504                 3.1522

                     10                     11                     12
                      A                      A                      A
 Frequencies --    345.8926               351.4494               446.5311
 Red. masses --     18.0286                 6.4980                 8.9403
 Frc consts  --      1.2709                 0.4729                 1.0503
 IR Inten    --      6.0430                 2.0180                20.6238

                     13                     14                     15
                      A                      A                      A
 Frequencies --    484.0752               529.0533               558.2205
 Red. masses --      6.0275                 3.8074                 5.5455
 Frc consts  --      0.8322                 0.6279                 1.0181
 IR Inten    --     35.0996                12.3963                24.5962

                     16                     17                     18
                      A                      A                      A
 Frequencies --    586.1159               613.5121               645.6857
 Red. masses --      3.4007                 3.1954                 3.7201
 Frc consts  --      0.6883                 0.7086                 0.9138
 IR Inten    --      9.8926                 3.5702                11.3113

                     19                     20                     21
                      A                      A                      A
 Frequencies --    709.0357               793.8550               854.0431
 Red. masses --      6.8867                 9.2390                 2.2613
 Frc consts  --      2.0398                 3.4305                 0.9718
 IR Inten    --     11.7464                 0.5233                55.9521

                     22                     23                     24
                      A                      A                      A
 Frequencies --    861.1009               896.5145               974.8883
 Red. masses --      4.1470                 8.1812                 2.4859
 Frc consts  --      1.8117                 3.8742                 1.3920
 IR Inten    --     23.6737                74.7092                80.5432

                     25                     26                     27
                      A                      A                      A
 Frequencies --   1009.9548              1020.1181              1074.7045
 Red. masses --      1.2532                 2.2790                 2.6569
 Frc consts  --      0.7532                 1.3973                 1.8080
 IR Inten    --      0.1623                83.3508                84.7587

                     28                     29                     30
                      A                      A                      A
 Frequencies --   1119.4879              1200.5718              1274.7782
 Red. masses --      1.4923                 3.4713                 3.5126
 Frc consts  --      1.1019                 2.9480                 3.3632
 IR Inten    --     62.1878               121.2760                47.9497

                     31                     32                     33
                      A                      A                      A
 Frequencies --   1288.7598              1381.6340              1385.8960
 Red. masses --      3.3384                 1.3012                 1.7395
 Frc consts  --      3.2669                 1.4635                 1.9685
 IR Inten    --    344.7824                71.8821                21.4476

                     34                     35                     36
                      A                      A                      A
 Frequencies --   1447.4105              1453.6448              1631.7432
 Red. masses --      1.0696                 1.0482                10.7231
 Frc consts  --      1.3203                 1.3049                16.8218
 IR Inten    --     30.2813                23.4943               118.1508

                     37                     38                     39
                      A                      A                      A
 Frequencies --   1676.0974              1697.5888              1723.1617
 Red. masses --      9.3798                10.2894                11.5587
 Frc consts  --     15.5254                17.4706                20.2213
 IR Inten    --     28.8329               682.7496               387.8357

                     40                     41                     42
                      A                      A                      A
 Frequencies --   1762.0596              3034.3601              3093.3585
 Red. masses --     10.9910                 1.0359                 1.0984
 Frc consts  --     20.1061                 5.6195                 6.1927
 IR Inten    --    379.6444                 0.0763                 1.5016

                     43                     44                     45
                      A                      A                      A
 Frequencies --   3142.3672              3190.8663              3206.0339
 Red. masses --      1.1039                 1.0880                 1.0999
 Frc consts  --      6.4222                 6.5267                 6.6610
 IR Inten    --      9.6303                 0.9335                 0.2243

 - Thermochemistry -
 -------------------
 Temperature   298.150 Kelvin.  Pressure   1.00000 Atm.
 Atom     1 has atomic number  6 and mass  12.00000

 Molecular mass:   183.99272 amu.
 Principal axes and moments of inertia in atomic units:
                           1         2         3
     Eigenvalues --  1736.593482153.284073549.51272
           X            0.41337   0.52330   0.74517
           Y            0.89286  -0.39351  -0.21896
           Z            0.17865   0.75585  -0.62991
 This molecule is an asymmetric top.
 Rotational symmetry number  1.
 Warning -- assumption of classical behavior for rotation
           may cause significant error
 Rotational temperatures (Kelvin)      0.04988     0.04022     0.02440
 Rotational constants (GHZ):           1.03924     0.83813     0.50845
 Zero-point vibrational energy     292126.9 (Joules/Mol)
                                   69.82000 (Kcal/Mol)
 Warning -- explicit consideration of  17 degrees of freedom as
           vibrations may cause significant error
 Vibrational temperatures:     45.00    99.97   115.78   173.16   197.68
          (Kelvin)            215.99   320.71   371.79   438.58   497.66
                              505.66   642.46   696.48   761.19   803.15
                              843.29   882.71   929.00  1020.14  1142.18
                             1228.78  1238.93  1289.88  1402.65  1453.10
                             1467.72  1546.26  1610.69  1727.35  1834.12
                             1854.24  1987.86  1994.00  2082.50  2091.47
                             2347.71  2411.53  2442.45  2479.25  2535.21
                             4365.77  4450.65  4521.17  4590.94  4612.77

 Zero-point correction=                           0.111265 (Hartree/Particle)
 Thermal correction to Energy=                    0.122644
 Thermal correction to Enthalpy=                  0.123588
 Thermal correction to Gibbs Free Energy=         0.072407
 Sum of electronic and zero-point Energies=           -993.762977
 Sum of electronic and thermal Energies=              -993.751599
 Sum of electronic and thermal Enthalpies=            -993.750654
 Sum of electronic and thermal Free Energies=         -993.801836

                     E (Thermal)             CV                S
                      KCal/Mol        Cal/Mol-Kelvin    Cal/Mol-Kelvin
 Total                   76.960             39.865            107.721
 Electronic               0.000              0.000              0.000
 Translational            0.889              2.981             41.535
 Rotational               0.889              2.981             30.963
 Vibrational             75.183             33.904             35.223
 Vibration     1          0.594              1.983              5.747
 Vibration     2          0.598              1.969              4.168
 Vibration     3          0.600              1.962              3.879
 Vibration     4          0.609              1.932              3.095
 Vibration     5          0.614              1.916              2.840
 Vibration     6          0.618              1.903              2.671
 Vibration     7          0.649              1.806              1.935
 Vibration     8          0.667              1.749              1.673
 Vibration     9          0.696              1.665              1.390
 Vibration    10          0.724              1.584              1.185
 Vibration    11          0.728              1.572              1.160
 Vibration    12          0.806              1.369              0.806
 Vibration    13          0.840              1.285              0.699
 Vibration    14          0.884              1.186              0.589
 Vibration    15          0.914              1.122              0.527
 Vibration    16          0.943              1.061              0.474
 Vibration    17          0.973              1.003              0.427

                           ! Non-Optimized Parameters !
 Normal termination of Gaussian 16 at Sat Feb 10 10:44:21 2024.
