 Q-Chem 5.4, Q-Chem, Inc., Pleasanton, CA (2021)
 Q-Chem 5.4.0 for Intel X86 EM64T Linux

User input:
--------------------------------------------------------------
$molecule
0 1
C                  5.5798660000     -4.6113140000     -1.0113040000
C                  6.4866870000     -4.0890020000     -1.9897140000
C                  6.1865270000     -2.8242370000     -2.5851190000
C                  4.4275330000     -3.9266730000     -0.6300750000
C                  4.1629590000     -2.6587810000     -1.2528370000
C                  5.0188040000     -2.1393890000     -2.1931810000
C                  3.4573810000     -4.4453560000      0.3911210000
C                  2.2560700000     -3.6059900000      0.7074750000
C                  2.0137000000     -2.3708100000      0.0896490000
C                  2.9567560000     -1.8369290000     -0.9213760000
C                  1.3490470000     -4.0871170000      1.6593710000
C                  0.2206180000     -3.3472090000      1.9875090000
C                 -0.0184450000     -2.1153270000      1.3693840000
C                  0.8744270000     -1.6293620000      0.4245270000
C                  7.6684480000     -4.7591020000     -2.4011200000
C                  8.5002340000     -4.2054130000     -3.3464040000
C                  8.2007630000     -2.9558140000     -3.9326100000
C                  7.0656000000     -2.2808100000     -3.5573760000
O                  3.6035360000     -5.5078250000      0.9672820000
O                  2.7591380000     -0.7626850000     -1.4677260000
Cl                 6.0025210000     -6.1623370000     -0.3202130000
H                  4.7762660000     -1.1800640000     -2.6343040000
H                  1.5508730000     -5.0423050000      2.1269830000
H                 -0.4767550000     -3.7269540000      2.7256270000
H                 -0.9003500000     -1.5404020000      1.6279570000
H                  0.7140860000     -0.6791170000     -0.0693160000
H                  7.9132610000     -5.7158250000     -1.9633150000
H                  9.3972380000     -4.7357510000     -3.6448260000
H                  8.8676250000     -2.5345620000     -4.6759280000
H                  6.8202870000     -1.3204910000     -3.9970410000
$end
$rem
MAX_SCF_CYCLES=200
BASIS  =  6-311++G(d,p)
GUI  =  2
JOB_TYPE  =  SP
METHOD  =  B3LYP
SOLVENT_METHOD = COSMO
$end
$solvent
dielectric 37.219
opticaldielectric 1.43
$end

--------------------------------------------------------------

             Standard Nuclear Orientation (Angstroms)
    I     Atom           X                Y                Z
 ----------------------------------------------------------------
    1      C       1.3191307115    -1.0146992735     0.0000708733
    2      C       2.5051589790    -0.2111090647     0.0000033115
    3      C       2.3600894570     1.2112792343     0.0000786448
    4      C       0.0440874329    -0.4523783789     0.0002740914
    5      C      -0.0573951342     0.9811778013     0.0002967747
    6      C       1.0665277738     1.7706604433     0.0002142583
    7      C      -1.2179171482    -1.2650361445     0.0004202510
    8      C      -2.5251457711    -0.5309268374     0.0000936885
    9      C      -2.6053194131     0.8689638679    -0.0000325059
   10      C      -1.3737706971     1.6934896425     0.0002821057
   11      C      -3.7041641402    -1.2860397864    -0.0000707680
   12      C      -4.9404117374    -0.6534402610    -0.0004206707
   13      C      -5.0171266829     0.7432979694    -0.0005889958
   14      C      -3.8544187143     1.5010890164    -0.0003680159
   15      C       3.8182591734    -0.7501970115    -0.0001777207
   16      C       4.9190601582     0.0745686925    -0.0003343297
   17      C       4.7722168944     1.4792946680    -0.0002659701
   18      C       3.5162457789     2.0338778392    -0.0000323557
   19      O      -1.2245072764    -2.4824594669     0.0008470145
   20      O      -1.4277472384     2.9135871316     0.0004157742
   21      Cl      1.5631340731    -2.7474365952    -0.0002445979
   22      H       0.9385597200     2.8464591305     0.0002201725
   23      H      -3.6247962400    -2.3656135670     0.0000735432
   24      H      -5.8485828200    -1.2455372199    -0.0005756615
   25      H      -5.9838640456     1.2337813768    -0.0008713269
   26      H      -3.8845386850     2.5835161434    -0.0004516072
   27      H       3.9494440493    -1.8224451400    -0.0002108641
   28      H       5.9120327666    -0.3600985761    -0.0004921056
   29      H       5.6508275174     2.1138994183    -0.0003540020
   30      H       3.3850330907     3.1102047335     0.0000617055
 ----------------------------------------------------------------

    9   -1302.2402496085      3.87e-06  Convergence criterion met
 Total energy in the final basis set =    -1302.2402496085
    5   -1302.2558346360      2.66e-06  Convergence criterion met
 Total energy in the final basis set =    -1302.2558346360

                    Orbital Energies (a.u.)
 --------------------------------------------------------------

 Alpha MOs
 -- Occupied --
******** -19.1301 -19.1297 -10.2879 -10.2838 -10.2694 -10.2223 -10.2175
-10.2116 -10.2116 -10.2087 -10.2070 -10.2016 -10.1965 -10.1961 -10.1956
-10.1948 -10.1941 -10.1939 -10.1932 -10.1928  -9.4812  -7.2457  -7.2365
 -7.2351  -1.0694  -1.0661  -0.9219  -0.8886  -0.8751  -0.8535  -0.8031
 -0.7842  -0.7771  -0.7695  -0.7495  -0.6853  -0.6814  -0.6483  -0.6287
 -0.6087  -0.5853  -0.5802  -0.5562  -0.5288  -0.5198  -0.5045  -0.4877
 -0.4694  -0.4663  -0.4632  -0.4603  -0.4551  -0.4501  -0.4493  -0.4437
 -0.4342  -0.4249  -0.4197  -0.4040  -0.3856  -0.3811  -0.3721  -0.3697
 -0.3676  -0.3594  -0.3422  -0.3345  -0.2985  -0.2870  -0.2858  -0.2776
 -0.2736  -0.2690  -0.2441

          Ground-State Mulliken Net Atomic Charges

     Atom                 Charge (a.u.)
  ----------------------------------------
      1 C                     0.690551
      2 C                     0.546008
      3 C                     1.099911
      4 C                     0.287572
      5 C                     0.665672
      6 C                     0.142730
      7 C                    -2.014481
      8 C                    -0.318407
      9 C                     0.487443
     10 C                    -0.765928
     11 C                     0.276099
     12 C                    -0.485707
     13 C                    -0.526803
     14 C                     0.216131
     15 C                    -1.084201
     16 C                    -0.719641
     17 C                    -0.277487
     18 C                    -0.223080
     19 O                    -0.181672
     20 O                    -0.287126
     21 Cl                    0.591137
     22 H                     0.168217
     23 H                     0.200294
     24 H                     0.227777
     25 H                     0.226998
     26 H                     0.196692
     27 H                     0.201457
     28 H                     0.232789
     29 H                     0.222567
     30 H                     0.204485
  ----------------------------------------
  Sum of atomic charges =    -0.000001

                    Cartesian Multipole Moments
 -----------------------------------------------------------------
    Charge (ESU x 10^10)
                -0.0000
    Dipole Moment (Debye)
         X       1.5387      Y       1.8537      Z      -0.0017
       Tot       2.4092
    Quadrupole Moments (Debye-Ang)
        XX     -79.0546     XY       6.9965     YY    -138.2196
        XZ       0.0035     YZ       0.0020     ZZ    -130.6333

 Total job time:  79.94s(wall), 606.27s(cpu)
        *  Thank you very much for using Q-Chem.  Have a nice day.  *
