 Q-Chem 5.4, Q-Chem, Inc., Pleasanton, CA (2021)
 Q-Chem 5.4.0 for Intel X86 EM64T Linux

User input:
--------------------------------------------------------------
$molecule
0 1
C                 -1.4191230000      1.9948810000     -4.7408910000
C                 -1.4900660000      0.6359580000     -5.0122710000
C                 -1.3955770000     -0.2937730000     -3.9698970000
C                 -1.2527220000      2.4423750000     -3.4235460000
C                 -1.1580580000      1.5116630000     -2.3800950000
C                 -1.2306610000      0.1411900000     -2.6626170000
C                 -1.1793630000      3.8990950000     -3.1542010000
C                 -0.9814300000      1.9562990000     -0.9761290000
C                 -1.0054040000      4.3482520000     -1.7715680000
C                 -0.9079930000      3.3921830000     -0.6997430000
C                 -0.9332020000      5.7431850000     -1.4960810000
C                 -0.7637870000      6.1449490000     -0.1417270000
C                 -0.6712990000      5.2373790000      0.8757160000
C                 -0.7387160000      3.8354320000      0.6425850000
O                 -1.2680720000      4.6891480000     -4.1109240000
O                 -0.9019750000      1.0952630000     -0.0818780000
H                 -1.4896650000      2.7328500000     -5.5297430000
H                 -1.6188870000      0.2940880000     -6.0332080000
H                 -1.4512620000     -1.3553020000     -4.1839940000
H                 -1.1550500000     -0.5582840000     -1.8398920000
H                 -0.5429630000      5.5997550000      1.8872190000
H                 -0.7059900000      7.1995090000      0.0938300000
N                 -1.0199920000      6.6847920000     -2.4730070000
N                 -0.6414280000      2.9723140000      1.6885780000
C                 -0.9530530000      8.1131480000     -2.2548430000
C                 -0.4683510000      3.3621970000      3.0707170000
H                 -1.1396000000      6.3101750000     -3.4105140000
H                 -0.6993000000      1.9903000000      1.4319210000
H                  0.0025240000      8.4220500000     -1.8138030000
H                 -1.7623950000      8.4732990000     -1.6080710000
H                 -1.0512610000      8.6086250000     -3.2204820000
H                 -1.3031090000      3.9712540000      3.4385310000
H                  0.4617190000      3.9208500000      3.2317780000
H                 -0.4233910000      2.4566790000      3.6753820000
$end
$rem
MAX_SCF_CYCLES=200
BASIS  =  6-311++G(d,p)
GUI  =  2
JOB_TYPE  =  SP
METHOD  =  B3LYP
SOLVENT_METHOD = COSMO
$end
$solvent
dielectric 37.219
opticaldielectric 1.43
$end

--------------------------------------------------------------

             Standard Nuclear Orientation (Angstroms)
    I     Atom           X                Y                Z
 ----------------------------------------------------------------
    1      C       3.2241194692    -1.3956698252    -0.0002687351
    2      C       4.4247155578    -0.7000257042    -0.0001189772
    3      C       4.4246990612     0.6999283554     0.0001814802
    4      C       2.0073779490    -0.7007755322    -0.0001408994
    5      C       2.0073690666     0.7006437624     0.0000824657
    6      C       3.2240821566     1.3955504791     0.0002598681
    7      C       0.7348213617    -1.4627211747    -0.0001282914
    8      C       0.7348091858     1.4626217778     0.0000049679
    9      C      -0.5268284915    -0.7198097724     0.0001031651
   10      C      -0.5268182433     0.7197615745     0.0001595938
   11      C      -1.7571503476    -1.4362261385     0.0002087716
   12      C      -2.9643560115    -0.6832022454     0.0003218580
   13      C      -2.9643408688     0.6833362985     0.0003558660
   14      C      -1.7570960124     1.4362707840     0.0002035023
   15      O       0.7823079791    -2.7057485018    -0.0002438809
   16      O       0.7823329247     2.7056513164     0.0000445227
   17      H       3.1983652469    -2.4778891076    -0.0004722756
   18      H       5.3639840588    -1.2418346915    -0.0002149938
   19      H       5.3639619538     1.2417469245     0.0003200887
   20      H       3.1983102708     2.4777672309     0.0004538292
   21      H      -3.9126787442     1.2044697577     0.0004274214
   22      H      -3.9127289065    -1.2042715657     0.0003720180
   23      N      -1.8097910447    -2.7948171779     0.0001825367
   24      N      -1.8095312350     2.7948691487     0.0000489830
   25      C      -3.0268782279    -3.5764666446    -0.0001683997
   26      C      -3.0264878890     3.5767186886    -0.0005961572
   27      H      -0.9018142353    -3.2521367486    -0.0003363131
   28      H      -0.9014756347     3.2520435010    -0.0002953692
   29      H      -3.6414464964    -3.3885452621    -0.8890190775
   30      H      -3.6416841148    -3.3889007218     0.8885891497
   31      H      -2.7525281962    -4.6311386256    -0.0003094204
   32      H      -3.6413463830     3.3895610728     0.8882117780
   33      H      -3.6410598432     3.3885890010    -0.8894001619
   34      H      -2.7519565445     4.6313448243    -0.0011129188
 ----------------------------------------------------------------

    9    -878.3493664679      4.90e-06  Convergence criterion met
 Total energy in the final basis set =     -878.3493664679
    4    -878.3659077362      9.55e-06  Convergence criterion met
 Total energy in the final basis set =     -878.3659077362

                    Orbital Energies (a.u.)
 --------------------------------------------------------------

 Alpha MOs
 -- Occupied --
-19.1124 -19.1124 -14.3359 -14.3359 -10.2644 -10.2644 -10.2377 -10.2377
-10.2005 -10.2005 -10.1959 -10.1953 -10.1949 -10.1943 -10.1942 -10.1939
-10.1887 -10.1881 -10.1865 -10.1865  -1.0471  -1.0450  -0.9545  -0.9478
 -0.8801  -0.8550  -0.8038  -0.7687  -0.7648  -0.7638  -0.7102  -0.6875
 -0.6795  -0.6500  -0.6377  -0.6050  -0.5891  -0.5535  -0.5474  -0.5274
 -0.5209  -0.4976  -0.4828  -0.4774  -0.4730  -0.4593  -0.4519  -0.4478
 -0.4454  -0.4406  -0.4366  -0.4353  -0.4255  -0.4053  -0.4030  -0.4006
 -0.3950  -0.3888  -0.3771  -0.3689  -0.3625  -0.3577  -0.3362  -0.2846
 -0.2745  -0.2745  -0.2699  -0.2631  -0.2615  -0.1929

          Ground-State Mulliken Net Atomic Charges

     Atom                 Charge (a.u.)
  ----------------------------------------
      1 C                     0.061297
      2 C                    -0.498735
      3 C                    -0.499150
      4 C                     0.200175
      5 C                     0.200480
      6 C                     0.061235
      7 C                    -0.193219
      8 C                    -0.193396
      9 C                     0.260507
     10 C                     0.260745
     11 C                    -0.231712
     12 C                    -0.128501
     13 C                    -0.129312
     14 C                    -0.232144
     15 O                    -0.375514
     16 O                    -0.375527
     17 H                     0.197958
     18 H                     0.216493
     19 H                     0.216507
     20 H                     0.197975
     21 H                     0.235962
     22 H                     0.235965
     23 N                    -0.295316
     24 N                    -0.295346
     25 C                    -0.403577
     26 C                    -0.403635
     27 H                     0.419233
     28 H                     0.419262
     29 H                     0.177730
     30 H                     0.177625
     31 H                     0.180288
     32 H                     0.177723
     33 H                     0.177630
     34 H                     0.180295
  ----------------------------------------
  Sum of atomic charges =     0.000000

                    Cartesian Multipole Moments
 -----------------------------------------------------------------
    Charge (ESU x 10^10)
                 0.0000
    Dipole Moment (Debye)
         X      -5.6374      Y       0.0002      Z      -0.0025
       Tot       5.6374
    Quadrupole Moments (Debye-Ang)
        XX     -79.8236     XY       0.0011     YY    -110.2612
        XZ       0.0027     YZ      -0.0003     ZZ    -121.6930

 Total job time:  106.83s(wall), 701.15s(cpu)
        *  Thank you very much for using Q-Chem.  Have a nice day.  *
