 Q-Chem 5.4, Q-Chem, Inc., Pleasanton, CA (2021)
 Q-Chem 5.4.0 for Intel X86 EM64T Linux

User input:
--------------------------------------------------------------
$molecule
0 1
C                 -0.9066440000      3.8561250000     -0.0210390000
C                 -2.0215790000      3.1002540000      0.3323100000
C                 -1.9070250000      1.7187460000      0.4918130000
C                  0.3249790000      3.2279440000     -0.2126340000
C                  0.4407490000      1.8402370000     -0.0512010000
C                 -0.6791700000      1.0878590000      0.2986620000
C                  1.5132420000      4.0278520000     -0.5905380000
C                  2.8303180000      3.3275220000     -0.8051310000
C                  2.9305070000      1.9729320000     -0.5767430000
C                  1.7532480000      1.1641520000     -0.2544870000
O                  1.4616140000      5.2377780000     -0.7428320000
O                  1.8498670000     -0.0615920000     -0.1694170000
N                  3.8102100000      4.1400840000     -1.2483650000
H                 -0.9723630000      4.9289390000     -0.1533540000
H                 -2.9783990000      3.5866950000      0.4828440000
H                 -2.7760420000      1.1319390000      0.7669440000
H                 -0.5702880000      0.0170050000      0.4159550000
H                  3.5794030000      5.1253750000     -1.2456150000
H                  4.7732870000      3.8505230000     -1.0768530000
N                  4.0745660000      1.1674340000     -0.7536780000
H                  3.8126980000      0.1857930000     -0.7705310000
C                  5.4079190000      1.4431400000     -0.6217090000
C                  6.3237720000      0.2448530000     -0.8372220000
C                  7.5351920000      0.2595960000      0.0982610000
O                  5.8597880000      2.5587540000     -0.3782340000
H                  6.6599630000      0.2959050000     -1.8798470000
H                  5.7644570000     -0.6899830000     -0.7370680000
H                  8.0788590000      1.2003180000      0.0053990000
H                  8.2127860000     -0.5618330000     -0.1452410000
H                  7.2290160000      0.1492750000      1.1416330000
$end
$rem
MAX_SCF_CYCLES=200
BASIS  =  6-311++G(d,p)
GUI  =  2
JOB_TYPE  =  SP
METHOD  =  B3LYP
SOLVENT_METHOD = PCM
$end
$pcm
theory = CPCM
$end
$solvent
dielectric 37.219
opticaldielectric 1.43
$end

--------------------------------------------------------------

             Standard Nuclear Orientation (Angstroms)
    I     Atom           X                Y                Z
 ----------------------------------------------------------------
    1      C      -0.9066440000     3.8561250000    -0.0210390000
    2      C      -2.0215790000     3.1002540000     0.3323100000
    3      C      -1.9070250000     1.7187460000     0.4918130000
    4      C       0.3249790000     3.2279440000    -0.2126340000
    5      C       0.4407490000     1.8402370000    -0.0512010000
    6      C      -0.6791700000     1.0878590000     0.2986620000
    7      C       1.5132420000     4.0278520000    -0.5905380000
    8      C       2.8303180000     3.3275220000    -0.8051310000
    9      C       2.9305070000     1.9729320000    -0.5767430000
   10      C       1.7532480000     1.1641520000    -0.2544870000
   11      O       1.4616140000     5.2377780000    -0.7428320000
   12      O       1.8498670000    -0.0615920000    -0.1694170000
   13      N       3.8102100000     4.1400840000    -1.2483650000
   14      H      -0.9723630000     4.9289390000    -0.1533540000
   15      H      -2.9783990000     3.5866950000     0.4828440000
   16      H      -2.7760420000     1.1319390000     0.7669440000
   17      H      -0.5702880000     0.0170050000     0.4159550000
   18      H       3.5794030000     5.1253750000    -1.2456150000
   19      H       4.7732870000     3.8505230000    -1.0768530000
   20      N       4.0745660000     1.1674340000    -0.7536780000
   21      H       3.8126980000     0.1857930000    -0.7705310000
   22      C       5.4079190000     1.4431400000    -0.6217090000
   23      C       6.3237720000     0.2448530000    -0.8372220000
   24      C       7.5351920000     0.2595960000     0.0982610000
   25      O       5.8597880000     2.5587540000    -0.3782340000
   26      H       6.6599630000     0.2959050000    -1.8798470000
   27      H       5.7644570000    -0.6899830000    -0.7370680000
   28      H       8.0788590000     1.2003180000     0.0053990000
   29      H       8.2127860000    -0.5618330000    -0.1452410000
   30      H       7.2290160000     0.1492750000     1.1416330000
 ----------------------------------------------------------------

    9    -838.0803534792      4.20e-06  Convergence criterion met
 Total energy in the final basis set =     -838.0803534792

                    Orbital Energies (a.u.)
 --------------------------------------------------------------

 Alpha MOs
 -- Occupied --
-19.1433 -19.1279 -19.1142 -14.3649 -14.3366 -10.2953 -10.2925 -10.2803
-10.2527 -10.2348 -10.2090 -10.2084 -10.1985 -10.1972 -10.1960 -10.1955
-10.1827 -10.1619  -1.0798  -1.0686  -1.0603  -0.9603  -0.9363  -0.8902
 -0.8205  -0.7867  -0.7788  -0.7598  -0.7055  -0.6710  -0.6491  -0.6317
 -0.6105  -0.5921  -0.5654  -0.5418  -0.5374  -0.5124  -0.5087  -0.4854
 -0.4772  -0.4708  -0.4614  -0.4588  -0.4525  -0.4512  -0.4419  -0.4332
 -0.4251  -0.4170  -0.3896  -0.3841  -0.3757  -0.3707  -0.3695  -0.3613
 -0.3496  -0.3215  -0.3003  -0.2874  -0.2857  -0.2840  -0.2788  -0.2241

          Ground-State Mulliken Net Atomic Charges

     Atom                 Charge (a.u.)
  ----------------------------------------
      1 C                     0.215733
      2 C                    -0.340183
      3 C                    -0.374367
      4 C                     0.449731
      5 C                    -0.064975
      6 C                     0.170632
      7 C                    -0.591309
      8 C                     0.440024
      9 C                     0.495025
     10 C                    -0.934357
     11 O                    -0.294395
     12 O                    -0.325257
     13 N                    -0.424088
     14 H                     0.200069
     15 H                     0.220799
     16 H                     0.225082
     17 H                     0.196993
     18 H                     0.326787
     19 H                     0.332767
     20 N                    -0.041672
     21 H                     0.395530
     22 C                     0.202141
     23 C                    -0.324558
     24 C                    -0.582260
     25 O                    -0.424007
     26 H                     0.206169
     27 H                     0.151671
     28 H                     0.169795
     29 H                     0.163833
     30 H                     0.158647
  ----------------------------------------
  Sum of atomic charges =     0.000001

                    Cartesian Multipole Moments
 -----------------------------------------------------------------
    Charge (ESU x 10^10)
                -0.0000
    Dipole Moment (Debye)
         X      -2.1294      Y      -1.8515      Z      -0.2204
       Tot       2.8304
    Quadrupole Moments (Debye-Ang)
        XX     -95.9117     XY     -18.0854     YY    -117.0392
        XZ      -7.8507     YZ       1.9469     ZZ    -106.2174

 Total job time:  68.92s(wall), 358.67s(cpu)
        *  Thank you very much for using Q-Chem.  Have a nice day.  *
