 Gaussian 16, Revision A.03,
 Gaussian 16:  ES64L-G16RevA.03 25-Dec-2016

 ----------------------------------------------------------------------
 #P UB3LYP/6-311++G(d,p) nosym opt freq SCRF=(PCM,Solvent=n,n-DiMethylF
 ormamide)
 ----------------------------------------------------------------------

 --------
 Oxidized
 --------
 Symbolic Z-matrix:
 Charge =  0 Multiplicity = 1

 SCF Done:  E(UB3LYP) =  -947.979015807     A.U. after   16 cycles
 SCF Done:  E(UB3LYP) =  -947.973786688     A.U. after   14 cycles
 SCF Done:  E(UB3LYP) =  -947.979176121     A.U. after   13 cycles
 SCF Done:  E(UB3LYP) =  -947.979194771     A.U. after   13 cycles
 SCF Done:  E(UB3LYP) =  -947.978969913     A.U. after   14 cycles
 SCF Done:  E(UB3LYP) =  -947.979242477     A.U. after   13 cycles
 SCF Done:  E(UB3LYP) =  -947.979257020     A.U. after   11 cycles
 SCF Done:  E(UB3LYP) =  -947.979259372     A.U. after   12 cycles
 SCF Done:  E(UB3LYP) =  -947.979264146     A.U. after   12 cycles
 SCF Done:  E(UB3LYP) =  -947.979266060     A.U. after   11 cycles
 SCF Done:  E(UB3LYP) =  -947.979272455     A.U. after   11 cycles
 SCF Done:  E(UB3LYP) =  -947.979272618     A.U. after   11 cycles
 SCF Done:  E(UB3LYP) =  -947.979272720     A.U. after   11 cycles
 SCF Done:  E(UB3LYP) =  -947.979272351     A.U. after   11 cycles
 SCF Done:  E(UB3LYP) =  -947.979269895     A.U. after   13 cycles
 SCF Done:  E(UB3LYP) =  -947.979272775     A.U. after   12 cycles
 SCF Done:  E(UB3LYP) =  -947.979272166     A.U. after   11 cycles
 SCF Done:  E(UB3LYP) =  -947.979272867     A.U. after   12 cycles
 SCF Done:  E(UB3LYP) =  -947.979272870     A.U. after    9 cycles
 Optimization completed.
    -- Stationary point found.
 Normal termination of Gaussian 16 at Sat Feb 10 11:37:42 2024.

 ----------------------------------------------------------------------
 #P Geom=AllCheck Guess=TCheck SCRF=Check GenChk UB3LYP/6-311++G(d,p) F
 req
 ----------------------------------------------------------------------

 Structure from the checkpoint file:  "035.chk"
 --------
 Oxidized
 --------
 Charge =  0 Multiplicity = 1

                          Input orientation:
 ---------------------------------------------------------------------
 Center     Atomic      Atomic             Coordinates (Angstroms)
 Number     Number       Type             X           Y           Z
 ---------------------------------------------------------------------
      1          6           0        2.463486   -4.786221    2.054046
      2          6           0        2.474937   -3.911449    0.855372
      3          6           0        2.110333   -2.621309    0.806528
      4          6           0        1.648759   -2.018000    2.105189
      5          6           0        1.653235   -2.890596    3.311045
      6          6           0        2.005993   -4.182464    3.347819
      7          8           0        2.807723   -5.948552    1.986409
      8          8           0        1.267060   -0.868618    2.181604
      9          6           0        1.999783   -5.075564    4.542931
     10          6           0        2.137695   -1.774870   -0.447802
     11          6           0        0.723490   -1.315641   -0.861433
     12          6           0        3.120679   -0.592278   -0.319400
     13          7           0        2.950013   -4.617907   -0.361922
     14          7           0        1.210255   -2.193915    4.541952
     15          1           0        1.711186   -4.552049    5.451589
     16          1           0        2.990841   -5.514276    4.679077
     17          1           0        1.305200   -5.903678    4.377178
     18          1           0        2.511708   -2.413739   -1.251056
     19          1           0        0.786851   -0.818094   -1.831933
     20          1           0        0.304472   -0.613290   -0.141026
     21          1           0        0.043997   -2.165139   -0.960953
     22          1           0        3.195599   -0.092116   -1.287720
     23          1           0        4.119166   -0.935103   -0.038457
     24          1           0        2.778711    0.134414    0.417497
     25          8           0        4.154452   -4.645465   -0.548889
     26          8           0        2.103505   -5.136760   -1.069965
     27          8           0        0.086817   -2.436306    4.952417
     28          8           0        2.003674   -1.418226    5.046945
 ---------------------------------------------------------------------

 SCF Done:  E(UB3LYP) =  -947.979272870     A.U. after    2 cycles

 Alpha  occ. eigenvalues --  -19.20301 -19.20287 -19.20202 -19.20168 -19.17474
 Alpha  occ. eigenvalues --  -19.17351 -14.59214 -14.59147 -10.32791 -10.32678
 Alpha  occ. eigenvalues --  -10.28375 -10.28340 -10.26387 -10.26047 -10.21513
 Alpha  occ. eigenvalues --  -10.20033 -10.17297 -10.17295  -1.27998  -1.27897
 Alpha  occ. eigenvalues --   -1.11058  -1.10882  -1.10706  -1.10534  -0.92566
 Alpha  occ. eigenvalues --   -0.88985  -0.82389  -0.80160  -0.77541  -0.72744
 Alpha  occ. eigenvalues --   -0.70091  -0.68319  -0.65788  -0.62366  -0.61649
 Alpha  occ. eigenvalues --   -0.60120  -0.59503  -0.57037  -0.56238  -0.55941
 Alpha  occ. eigenvalues --   -0.55738  -0.53373  -0.49959  -0.49550  -0.49369
 Alpha  occ. eigenvalues --   -0.47627  -0.46127  -0.45473  -0.44823  -0.43912
 Alpha  occ. eigenvalues --   -0.42732  -0.42356  -0.39749  -0.38011  -0.37082
 Alpha  occ. eigenvalues --   -0.36674  -0.36270  -0.35938  -0.35887  -0.35780
 Alpha  occ. eigenvalues --   -0.35646  -0.35465  -0.32485  -0.32380  -0.30797
 Alpha  occ. eigenvalues --   -0.30755
 Alpha virt. eigenvalues --   -0.16491  -0.11797  -0.11486  -0.05741  -0.03498
 Alpha virt. eigenvalues --   -0.01096   0.00115   0.01575   0.01625   0.02233
 Alpha virt. eigenvalues --    0.03219   0.03604   0.04276   0.04435   0.04989

  Beta  occ. eigenvalues --  -19.20301 -19.20287 -19.20202 -19.20168 -19.17474
  Beta  occ. eigenvalues --  -19.17351 -14.59214 -14.59147 -10.32791 -10.32678
  Beta  occ. eigenvalues --  -10.28375 -10.28340 -10.26387 -10.26047 -10.21513
  Beta  occ. eigenvalues --  -10.20033 -10.17297 -10.17295  -1.27998  -1.27897
  Beta  occ. eigenvalues --   -1.11058  -1.10882  -1.10706  -1.10534  -0.92566
  Beta  occ. eigenvalues --   -0.88985  -0.82389  -0.80160  -0.77541  -0.72744
  Beta  occ. eigenvalues --   -0.70091  -0.68319  -0.65788  -0.62366  -0.61649
  Beta  occ. eigenvalues --   -0.60120  -0.59503  -0.57037  -0.56238  -0.55941
  Beta  occ. eigenvalues --   -0.55738  -0.53373  -0.49959  -0.49550  -0.49369
  Beta  occ. eigenvalues --   -0.47627  -0.46127  -0.45473  -0.44823  -0.43912
  Beta  occ. eigenvalues --   -0.42732  -0.42356  -0.39749  -0.38011  -0.37082
  Beta  occ. eigenvalues --   -0.36674  -0.36270  -0.35938  -0.35887  -0.35780
  Beta  occ. eigenvalues --   -0.35646  -0.35465  -0.32485  -0.32380  -0.30797
  Beta  occ. eigenvalues --   -0.30755
  Beta virt. eigenvalues --   -0.16491  -0.11797  -0.11486  -0.05741  -0.03498
  Beta virt. eigenvalues --   -0.01096   0.00115   0.01575   0.01625   0.02233
  Beta virt. eigenvalues --    0.03219   0.03604   0.04276   0.04435   0.04989

 Mulliken charges and spin densities:
               1          2
     1  C   -0.494843   0.000000
     2  C   -0.207747  -0.000000
     3  C    1.351716   0.000000
     4  C   -0.464944   0.000000
     5  C   -0.325752  -0.000000
     6  C    0.825783  -0.000000
     7  O   -0.197822  -0.000000
     8  O   -0.176366  -0.000000
     9  C   -0.455756   0.000000
    10  C   -0.162860  -0.000000
    11  C   -0.641205   0.000000
    12  C   -0.658071   0.000000
    13  N   -0.234145  -0.000000
    14  N   -0.230888  -0.000000
    15  H    0.184189   0.000000
    16  H    0.215879   0.000000
    17  H    0.229111   0.000000
    18  H    0.224836   0.000000
    19  H    0.176177   0.000000
    20  H    0.195785  -0.000000
    21  H    0.155622   0.000000
    22  H    0.176822   0.000000
    23  H    0.157170   0.000000
    24  H    0.194221  -0.000000
    25  O    0.043360   0.000000
    26  O    0.045398   0.000000
    27  O    0.033022   0.000000
    28  O    0.041305   0.000000
 Sum of Mulliken charges =  -0.00000  -0.00000

 Dipole moment (field-independent basis, Debye):
    X=             -0.0473    Y=              0.3459    Z=             -0.3285  Tot=              0.4794
 Quadrupole moment (field-independent basis, Debye-Ang):
   XX=           -111.5723   YY=           -120.2200   ZZ=           -113.6470
   XY=              8.7221   XZ=              7.9803   YZ=            -23.3807

  Exact polarizability: 176.072 -25.083 264.646  -9.872   1.881 199.070
 Approx polarizability: 238.693 -28.305 348.047  -1.976   9.841 202.362

                      1                      2                      3
                      A                      A                      A
 Frequencies --     21.7185                37.7579                50.3447
 Red. masses --     14.2481                 7.8027                 9.0936
 Frc consts  --      0.0040                 0.0066                 0.0136
 IR Inten    --      0.0036                 0.6293                 1.0541

                      4                      5                      6
                      A                      A                      A
 Frequencies --     59.6809                70.1842                91.0091
 Red. masses --      4.4364                 3.1946                 5.3121
 Frc consts  --      0.0093                 0.0093                 0.0259
 IR Inten    --      6.2374                 0.0385                 6.8134

                      7                      8                      9
                      A                      A                      A
 Frequencies --    105.6244               138.2230               144.3884
 Red. masses --      1.2039                 5.1265                 4.2104
 Frc consts  --      0.0079                 0.0577                 0.0517
 IR Inten    --      0.2875                 6.1511                 3.5139

                     10                     11                     12
                      A                      A                      A
 Frequencies --    147.7152               183.9381               209.4790
 Red. masses --      8.3081                 5.0806                 4.8701
 Frc consts  --      0.1068                 0.1013                 0.1259
 IR Inten    --     10.8691                 0.7299                 2.8706

                     13                     14                     15
                      A                      A                      A
 Frequencies --    212.0788               230.6837               241.1433
 Red. masses --      1.5341                 1.0643                 2.4487
 Frc consts  --      0.0407                 0.0334                 0.0839
 IR Inten    --      0.7635                 0.1407                 0.0649

                     16                     17                     18
                      A                      A                      A
 Frequencies --    247.2423               272.9364               317.6521
 Red. masses --      6.5435                 3.5634                 4.6756
 Frc consts  --      0.2357                 0.1564                 0.2780
 IR Inten    --      0.5776                 0.2563                 1.2480

                     19                     20                     21
                      A                      A                      A
 Frequencies --    360.8715               369.0948               412.1082
 Red. masses --     10.4890                 6.0329                 3.4468
 Frc consts  --      0.8048                 0.4842                 0.3449
 IR Inten    --     11.6486                 0.7935                 0.2378

                     22                     23                     24
                      A                      A                      A
 Frequencies --    456.3328               470.1291               474.5020
 Red. masses --      3.9088                 5.8910                 6.5036
 Frc consts  --      0.4796                 0.7671                 0.8627
 IR Inten    --      0.7350                 2.4054                40.6065

                     25                     26                     27
                      A                      A                      A
 Frequencies --    515.9736               572.3905               606.7000
 Red. masses --      6.5746                10.9158                 8.0032
 Frc consts  --      1.0313                 2.1071                 1.7356
 IR Inten    --      0.6985                 0.7206                 2.1021

                     28                     29                     30
                      A                      A                      A
 Frequencies --    649.9282               670.6856               734.3623
 Red. masses --      7.8345                 6.8975                 5.7434
 Frc consts  --      1.9498                 1.8280                 1.8249
 IR Inten    --      7.3729                 7.3824               105.7832

                     31                     32                     33
                      A                      A                      A
 Frequencies --    758.8263               765.7552               799.0967
 Red. masses --     10.2504                11.1442                 9.0867
 Frc consts  --      3.4776                 3.8502                 3.4187
 IR Inten    --     15.5716                25.9798                 1.7717

                     34                     35                     36
                      A                      A                      A
 Frequencies --    825.2843               854.2223               889.9915
 Red. masses --      5.0792                 3.8259                 5.2719
 Frc consts  --      2.0382                 1.6449                 2.4603
 IR Inten    --     20.6041                 6.5271                82.3434

                     37                     38                     39
                      A                      A                      A
 Frequencies --    941.3360               952.1728               962.7917
 Red. masses --      1.1542                 8.3625                 3.4263
 Frc consts  --      0.6026                 4.4670                 1.8713
 IR Inten    --      2.2260                 1.2050                17.6526

                     40                     41                     42
                      A                      A                      A
 Frequencies --    969.6991              1040.1856              1044.1287
 Red. masses --      1.5443                 2.4472                 1.7603
 Frc consts  --      0.8555                 1.5600                 1.1307
 IR Inten    --      0.4195                14.4225                 6.9340

                     43                     44                     45
                      A                      A                      A
 Frequencies --   1077.4105              1106.9705              1131.6148
 Red. masses --      2.4481                 2.3985                 2.6185
 Frc consts  --      1.6743                 1.7317                 1.9756
 IR Inten    --     73.5632                 2.1563                34.2068

                     46                     47                     48
                      A                      A                      A
 Frequencies --   1191.7011              1228.9043              1270.4237
 Red. masses --      2.0392                 5.5426                 7.2586
 Frc consts  --      1.7063                 4.9317                 6.9024
 IR Inten    --     12.6689               196.6528               321.4884

                     49                     50                     51
                      A                      A                      A
 Frequencies --   1323.2628              1326.2938              1393.9298
 Red. masses --      5.7495                 1.3349                 1.1939
 Frc consts  --      5.9316                 1.3835                 1.3667
 IR Inten    --      4.5527                 2.6167                 5.6219

                     52                     53                     54
                      A                      A                      A
 Frequencies --   1399.3342              1407.8485              1410.2191
 Red. masses --      1.2973                 1.2406                10.0312
 Frc consts  --      1.4967                 1.4487                11.7538
 IR Inten    --     15.3076                32.7886               236.1533

                     55                     56                     57
                      A                      A                      A
 Frequencies --   1413.4036              1414.4433              1455.1489
 Red. masses --      1.6793                 3.3630                 1.0428
 Frc consts  --      1.9766                 3.9641                 1.3010
 IR Inten    --     31.6898                 9.0410                11.6193

                     58                     59                     60
                      A                      A                      A
 Frequencies --   1471.0719              1479.6313              1488.7765
 Red. masses --      1.0929                 1.0400                 1.0465
 Frc consts  --      1.3935                 1.3415                 1.3666
 IR Inten    --     17.1965                 1.9111                 4.0484

                     61                     62                     63
                      A                      A                      A
 Frequencies --   1490.8644              1505.3199              1578.2124
 Red. masses --      1.0418                 1.0610                13.9845
 Frc consts  --      1.3643                 1.4166                20.5224
 IR Inten    --     30.1677                11.7781               376.2574

                     64                     65                     66
                      A                      A                      A
 Frequencies --   1578.9893              1657.2826              1701.6901
 Red. masses --     14.4648                 9.9093                 9.5289
 Frc consts  --     21.2481                16.0357                16.2575
 IR Inten    --    894.6894               141.2568                33.2554

                     67                     68                     69
                      A                      A                      A
 Frequencies --   1721.3118              1725.5693              3039.0553
 Red. masses --     12.7646                12.7854                 1.0351
 Frc consts  --     22.2831                22.4299                 5.6328
 IR Inten    --    931.6281                25.6685                39.5436

                     70                     71                     72
                      A                      A                      A
 Frequencies --   3041.3696              3048.9926              3061.0396
 Red. masses --      1.0360                 1.0384                 1.0840
 Frc consts  --      5.6462                 5.6876                 5.9844
 IR Inten    --     25.5659                 0.3737                10.6500

                     73                     74                     75
                      A                      A                      A
 Frequencies --   3102.3448              3102.4472              3103.4700
 Red. masses --      1.0986                 1.1028                 1.1025
 Frc consts  --      6.2296                 6.2539                 6.2564
 IR Inten    --      2.3391                20.4496                39.5161

                     76                     77                     78
                      A                      A                      A
 Frequencies --   3126.5561              3130.2195              3154.3516
 Red. masses --      1.1022                 1.1013                 1.1016
 Frc consts  --      6.3481                 6.3577                 6.4578
 IR Inten    --      2.0008                39.6552                 6.5193

 - Thermochemistry -
 -------------------
 Temperature   298.150 Kelvin.  Pressure   1.00000 Atm.
 Atom     1 has atomic number  6 and mass  12.00000

 Molecular mass:   254.05389 amu.
 Principal axes and moments of inertia in atomic units:
                           1         2         3
     Eigenvalues --  3099.591324934.585827104.13091
           X           -0.26186  -0.20464   0.94316
           Y            0.20580   0.94294   0.26174
           Z            0.94291  -0.26264   0.20480
 This molecule is an asymmetric top.
 Rotational symmetry number  1.
 Warning -- assumption of classical behavior for rotation
           may cause significant error
 Rotational temperatures (Kelvin)      0.02794     0.01755     0.01219
 Rotational constants (GHZ):           0.58225     0.36573     0.25404
 Zero-point vibrational energy     524788.8 (Joules/Mol)
                                  125.42754 (Kcal/Mol)
 Warning -- explicit consideration of  27 degrees of freedom as
           vibrations may cause significant error
 Vibrational temperatures:     31.25    54.33    72.43    85.87   100.98
          (Kelvin)            130.94   151.97   198.87   207.74   212.53
                              264.65   301.39   305.13   331.90   346.95
                              355.73   392.69   457.03   519.21   531.05
                              592.93   656.56   676.41   682.70   742.37
                              823.54   872.91   935.10   964.97  1056.58
                             1091.78  1101.75  1149.72  1187.40  1229.04
                             1280.50  1354.37  1369.96  1385.24  1395.18
                             1496.60  1502.27  1550.15  1592.68  1628.14
                             1714.59  1768.12  1827.86  1903.88  1908.24
                             2005.55  2013.33  2025.58  2028.99  2033.57
                             2035.07  2093.63  2116.54  2128.86  2142.02
                             2145.02  2165.82  2270.70  2271.81  2384.46
                             2448.35  2476.58  2482.71  4372.52  4375.85
                             4386.82  4404.15  4463.58  4463.73  4465.20
                             4498.42  4503.69  4538.41

 Zero-point correction=                           0.199882 (Hartree/Particle)
 Thermal correction to Energy=                    0.217942
 Thermal correction to Enthalpy=                  0.218886
 Thermal correction to Gibbs Free Energy=         0.151889
 Sum of electronic and zero-point Energies=           -947.779391
 Sum of electronic and thermal Energies=              -947.761331
 Sum of electronic and thermal Enthalpies=            -947.760386
 Sum of electronic and thermal Free Energies=         -947.827384

                     E (Thermal)             CV                S
                      KCal/Mol        Cal/Mol-Kelvin    Cal/Mol-Kelvin
 Total                  136.761             63.265            141.007
 Electronic               0.000              0.000              0.000
 Translational            0.889              2.981             42.497
 Rotational               0.889              2.981             33.052
 Vibrational            134.983             57.304             65.458
 Vibration     1          0.593              1.985              6.471
 Vibration     2          0.594              1.982              5.373
 Vibration     3          0.595              1.977              4.804
 Vibration     4          0.597              1.974              4.468
 Vibration     5          0.598              1.968              4.148
 Vibration     6          0.602              1.956              3.638
 Vibration     7          0.605              1.945              3.348
 Vibration     8          0.614              1.915              2.828
 Vibration     9          0.616              1.909              2.745
 Vibration    10          0.617              1.905              2.701
 Vibration    11          0.631              1.862              2.288
 Vibration    12          0.642              1.826              2.048
 Vibration    13          0.643              1.822              2.026
 Vibration    14          0.652              1.794              1.874
 Vibration    15          0.658              1.777              1.794
 Vibration    16          0.661              1.767              1.750
 Vibration    17          0.676              1.723              1.578
 Vibration    18          0.704              1.640              1.322
 Vibration    19          0.735              1.553              1.118
 Vibration    20          0.741              1.536              1.084
 Vibration    21          0.776              1.444              0.919
 Vibration    22          0.815              1.347              0.777
 Vibration    23          0.827              1.316              0.737
 Vibration    24          0.831              1.307              0.725
 Vibration    25          0.871              1.215              0.619
 Vibration    26          0.929              1.091              0.500
 Vibration    27          0.965              1.018              0.438

 Optimization completed.
    -- Stationary point found.
 Normal termination of Gaussian 16 at Sat Feb 10 12:11:32 2024.
