 Gaussian 16, Revision A.03,
 Gaussian 16:  ES64L-G16RevA.03 25-Dec-2016

 ----------------------------------------------------------------------
 #P UB3LYP/6-311++G(d,p) nosym opt freq SCRF=(PCM,Solvent=n,n-DiMethylF
 ormamide)
 ----------------------------------------------------------------------

 -------
 Radical
 -------
 Symbolic Z-matrix:
 Charge = -1 Multiplicity = 2

 SCF Done:  E(UB3LYP) =  -1165.20921139     A.U. after   22 cycles
 SCF Done:  E(UB3LYP) =  -1165.19714707     A.U. after   18 cycles
 SCF Done:  E(UB3LYP) =  -1165.20061249     A.U. after   19 cycles
 SCF Done:  E(UB3LYP) =  -1165.20944643     A.U. after   16 cycles
 SCF Done:  E(UB3LYP) =  -1165.20758438     A.U. after   18 cycles
 SCF Done:  E(UB3LYP) =  -1165.20955734     A.U. after   16 cycles
 SCF Done:  E(UB3LYP) =  -1165.20972724     A.U. after   17 cycles
 SCF Done:  E(UB3LYP) =  -1165.20963893     A.U. after   16 cycles
 SCF Done:  E(UB3LYP) =  -1165.20978362     A.U. after   16 cycles
 SCF Done:  E(UB3LYP) =  -1165.20979611     A.U. after   15 cycles
 SCF Done:  E(UB3LYP) =  -1165.20982285     A.U. after   14 cycles
 SCF Done:  E(UB3LYP) =  -1165.20982735     A.U. after   14 cycles
 SCF Done:  E(UB3LYP) =  -1165.20982977     A.U. after   15 cycles
 SCF Done:  E(UB3LYP) =  -1165.20983055     A.U. after   13 cycles
 SCF Done:  E(UB3LYP) =  -1165.20983097     A.U. after   12 cycles
 SCF Done:  E(UB3LYP) =  -1165.20983127     A.U. after   12 cycles
 SCF Done:  E(UB3LYP) =  -1165.20983130     A.U. after   11 cycles
 SCF Done:  E(UB3LYP) =  -1165.20983152     A.U. after   13 cycles
 SCF Done:  E(UB3LYP) =  -1165.20983162     A.U. after   11 cycles
 Optimization completed.
    -- Stationary point found.
 Normal termination of Gaussian 16 at Sat Feb 10 14:09:55 2024.

 ----------------------------------------------------------------------
 #P Geom=AllCheck Guess=TCheck SCRF=Check GenChk UB3LYP/6-311++G(d,p) F
 req
 ----------------------------------------------------------------------

 Structure from the checkpoint file:  "052-rad.chk"
 -------
 Radical
 -------
 Charge = -1 Multiplicity = 2

                          Input orientation:
 ---------------------------------------------------------------------
 Center     Atomic      Atomic             Coordinates (Angstroms)
 Number     Number       Type             X           Y           Z
 ---------------------------------------------------------------------
      1          6           0        1.825689    2.779907    1.466393
      2          6           0        0.397042    2.743540    1.228954
      3          6           0       -0.191782    1.660948    0.613354
      4          6           0        0.604251    0.522586    0.177600
      5          6           0        2.051249    0.570066    0.369331
      6          6           0        2.623611    1.662603    0.995104
      7          8           0        2.362520    3.764763    2.087415
      8          8           0        0.063851   -0.487535   -0.366000
      9          6           0       -0.431623    3.916759    1.691962
     10          6           0       -1.679597    1.616591    0.376776
     11          6           0        2.837507   -0.614197   -0.125740
     12         16           0        4.383544    1.649209    1.362889
     13          6           0        4.985940    3.280777    0.736132
     14          6           0        5.357596    4.296364    1.842008
     15          6           0        4.926121    5.710687    1.493290
     16          8           0        5.702830    6.620960    1.270781
     17          8           0        3.609176    5.915770    1.438983
     18          1           0        0.194798    4.653668    2.191094
     19          1           0       -1.216238    3.600680    2.387649
     20          1           0       -0.935953    4.404858    0.850615
     21          1           0       -2.018371    2.483160   -0.200888
     22          1           0       -2.235656    1.633191    1.321155
     23          1           0       -1.949223    0.710612   -0.163406
     24          1           0        2.345381   -1.052199   -0.994414
     25          1           0        2.894682   -1.401510    0.636074
     26          1           0        3.859803   -0.333174   -0.378553
     27          1           0        4.212731    3.659540    0.070813
     28          1           0        5.860690    3.058821    0.124535
     29          1           0        6.432938    4.301762    2.015951
     30          1           0        4.856564    4.014750    2.769625
     31          1           0        3.095577    5.077230    1.668339
 ---------------------------------------------------------------------

 SCF Done:  E(UB3LYP) =  -1165.20983162     A.U. after    1 cycles

 Alpha  occ. eigenvalues --  -88.84270 -19.14926 -19.10978 -19.08450 -19.08043
 Alpha  occ. eigenvalues --  -10.30364 -10.23096 -10.22121 -10.20575 -10.19436
 Alpha  occ. eigenvalues --  -10.18325 -10.17981 -10.17169 -10.17091 -10.15523
 Alpha  occ. eigenvalues --  -10.15473 -10.15472  -7.92870  -5.89266  -5.88883
 Alpha  occ. eigenvalues --   -5.88262  -1.09664  -1.01710  -1.00323  -1.00052
 Alpha  occ. eigenvalues --   -0.84131  -0.81294  -0.78946  -0.73513  -0.72509
 Alpha  occ. eigenvalues --   -0.70740  -0.66421  -0.64215  -0.61652  -0.60635
 Alpha  occ. eigenvalues --   -0.55022  -0.54746  -0.51659  -0.50593  -0.47945
 Alpha  occ. eigenvalues --   -0.46522  -0.45010  -0.44373  -0.43871  -0.42661
 Alpha  occ. eigenvalues --   -0.41549  -0.41389  -0.41102  -0.40038  -0.39303
 Alpha  occ. eigenvalues --   -0.38893  -0.38689  -0.38198  -0.37291  -0.36954
 Alpha  occ. eigenvalues --   -0.36606  -0.35589  -0.35084  -0.34605  -0.32244
 Alpha  occ. eigenvalues --   -0.31570  -0.28566  -0.27815  -0.25669  -0.25100
 Alpha  occ. eigenvalues --   -0.24166  -0.22047  -0.16729
 Alpha virt. eigenvalues --   -0.01795  -0.00676  -0.00269   0.00583   0.00888
 Alpha virt. eigenvalues --    0.01644   0.02042   0.02216   0.02524   0.03408
 Alpha virt. eigenvalues --    0.03545   0.04022   0.04219   0.04714   0.04853

  Beta  occ. eigenvalues --  -88.84267 -19.14904 -19.10976 -19.07939 -19.07308
  Beta  occ. eigenvalues --  -10.30364 -10.22825 -10.21996 -10.20573 -10.19406
  Beta  occ. eigenvalues --  -10.18325 -10.17787 -10.17088 -10.17001 -10.15527
  Beta  occ. eigenvalues --  -10.15486 -10.15482  -7.92868  -5.89265  -5.88883
  Beta  occ. eigenvalues --   -5.88251  -1.09633  -1.01549  -0.99459  -0.98803
  Beta  occ. eigenvalues --   -0.83645  -0.81180  -0.78800  -0.73248  -0.72268
  Beta  occ. eigenvalues --   -0.70540  -0.66159  -0.63729  -0.61455  -0.60502
  Beta  occ. eigenvalues --   -0.54672  -0.54387  -0.51580  -0.50409  -0.47895
  Beta  occ. eigenvalues --   -0.46338  -0.44874  -0.44113  -0.43303  -0.42158
  Beta  occ. eigenvalues --   -0.41283  -0.41149  -0.40966  -0.39376  -0.39171
  Beta  occ. eigenvalues --   -0.38812  -0.38622  -0.37227  -0.37145  -0.36801
  Beta  occ. eigenvalues --   -0.35568  -0.34894  -0.34600  -0.33828  -0.32108
  Beta  occ. eigenvalues --   -0.31461  -0.28330  -0.26086  -0.25151  -0.24024
  Beta  occ. eigenvalues --   -0.23505  -0.21545
  Beta virt. eigenvalues --   -0.09706  -0.01300  -0.00634   0.00389   0.00639
  Beta virt. eigenvalues --    0.01003   0.01835   0.02216   0.02543   0.03199
  Beta virt. eigenvalues --    0.03430   0.03919   0.04115   0.04543   0.04741

 Mulliken charges and spin densities:
               1          2
     1  C   -1.164448   0.203301
     2  C    0.874096   0.038943
     3  C    0.630501   0.114874
     4  C   -1.895799   0.051458
     5  C    0.353600   0.124870
     6  C    1.321174  -0.015158
     7  O   -0.469511   0.169758
     8  O   -0.448527   0.268991
     9  C   -0.450952   0.007802
    10  C   -0.517179   0.002305
    11  C   -0.232556  -0.005918
    12  S   -0.396934   0.007386
    13  C   -0.324425  -0.001519
    14  C   -0.248687  -0.003728
    15  C   -0.087460   0.001425
    16  O   -0.381774   0.000727
    17  O   -0.336919   0.003548
    18  H    0.172684  -0.000515
    19  H    0.144212   0.001905
    20  H    0.156163   0.001200
    21  H    0.154551   0.004086
    22  H    0.158358   0.004773
    23  H    0.182530  -0.001809
    24  H    0.168236   0.000984
    25  H    0.187381   0.009476
    26  H    0.127861   0.001788
    27  H    0.207904   0.000339
    28  H    0.251490   0.000435
    29  H    0.217081  -0.000325
    30  H    0.185675   0.003261
    31  H    0.461675   0.005334
 Sum of Mulliken charges =  -1.00000   1.00000

 Dipole moment (field-independent basis, Debye):
    X=            -11.7731    Y=            -14.2007    Z=             -4.4307  Tot=             18.9710
 Quadrupole moment (field-independent basis, Debye-Ang):
   XX=           -161.8956   YY=           -216.6820   ZZ=           -122.2031
   XY=            -71.4077   XZ=            -19.6754   YZ=            -25.2528

  Exact polarizability: 321.582  48.120 318.698  29.582  58.043 194.695
 Approx polarizability: 326.336  55.279 346.100  32.729  64.338 225.271

                      1                      2                      3
                      A                      A                      A
 Frequencies --     30.3854                41.7188                51.7533
 Red. masses --      3.6972                 1.2616                 5.3030
 Frc consts  --      0.0020                 0.0013                 0.0084
 IR Inten    --      2.4045                 0.6486                 2.9133

                      4                      5                      6
                      A                      A                      A
 Frequencies --     78.5084                80.8937                87.5622
 Red. masses --      2.0733                 1.9302                 3.2996
 Frc consts  --      0.0075                 0.0074                 0.0149
 IR Inten    --      1.0913                 1.6450                 2.4142

                      7                      8                      9
                      A                      A                      A
 Frequencies --    103.3163               106.9227               122.4275
 Red. masses --      2.8657                 1.1930                 3.2952
 Frc consts  --      0.0180                 0.0080                 0.0291
 IR Inten    --     19.3132                 2.6978                 5.0856

                     10                     11                     12
                      A                      A                      A
 Frequencies --    153.4357               172.2541               216.7690
 Red. masses --      3.4536                 6.2216                 5.1599
 Frc consts  --      0.0479                 0.1088                 0.1429
 IR Inten    --     11.4360                 1.4777                21.2288

                     13                     14                     15
                      A                      A                      A
 Frequencies --    225.0156               263.4506               290.6727
 Red. masses --      4.2138                 4.2810                 4.7840
 Frc consts  --      0.1257                 0.1751                 0.2381
 IR Inten    --      9.7221                27.7397                 4.1523

                     16                     17                     18
                      A                      A                      A
 Frequencies --    315.5859               328.2023               333.9368
 Red. masses --      2.6184                 4.3468                 3.6773
 Frc consts  --      0.1536                 0.2759                 0.2416
 IR Inten    --      3.1210                11.7429                11.2875

                     19                     20                     21
                      A                      A                      A
 Frequencies --    343.6553               377.7197               408.3325
 Red. masses --      4.6731                 4.6675                 8.0782
 Frc consts  --      0.3252                 0.3923                 0.7936
 IR Inten    --      2.3802                 3.0795                41.9777

                     22                     23                     24
                      A                      A                      A
 Frequencies --    429.2049               442.0691               451.6010
 Red. masses --      6.0275                 3.0163                 4.3245
 Frc consts  --      0.6542                 0.3473                 0.5196
 IR Inten    --      4.0442                 7.2271                20.5810

                     25                     26                     27
                      A                      A                      A
 Frequencies --    528.2000               564.0266               592.3049
 Red. masses --      8.2029                 4.2374                 5.2716
 Frc consts  --      1.3484                 0.7942                 1.0896
 IR Inten    --      5.4769                 0.3602                72.6059

                     28                     29                     30
                      A                      A                      A
 Frequencies --    611.7665               654.6531               685.3279
 Red. masses --      4.5544                 6.3040                 3.5538
 Frc consts  --      1.0043                 1.5918                 0.9834
 IR Inten    --     30.2383                 4.9518                 4.2074

                     31                     32                     33
                      A                      A                      A
 Frequencies --    703.3734               718.2459               766.6586
 Red. masses --      4.2872                 3.0033                 6.2392
 Frc consts  --      1.2497                 0.9128                 2.1606
 IR Inten    --      9.8765                26.8138                 0.7816

                     34                     35                     36
                      A                      A                      A
 Frequencies --    795.5630               820.3329               882.2145
 Red. masses --      5.2478                 3.1304                 2.5462
 Frc consts  --      1.9569                 1.2412                 1.1676
 IR Inten    --     94.0714                 5.1832                13.9058

                     37                     38                     39
                      A                      A                      A
 Frequencies --    927.1921               959.2316               977.8991
 Red. masses --      3.5849                 2.5805                 1.8386
 Frc consts  --      1.8158                 1.3989                 1.0359
 IR Inten    --     34.2987                28.4988                23.7472

                     40                     41                     42
                      A                      A                      A
 Frequencies --   1004.9314              1008.5379              1014.1357
 Red. masses --      1.4373                 1.9902                 2.1331
 Frc consts  --      0.8552                 1.1927                 1.2926
 IR Inten    --    207.9444                21.0131                64.7897

                     43                     44                     45
                      A                      A                      A
 Frequencies --   1023.0931              1040.0172              1046.4725
 Red. masses --      1.4125                 1.6232                 1.6658
 Frc consts  --      0.8711                 1.0344                 1.0748
 IR Inten    --      0.7632                42.1339                46.5020

                     46                     47                     48
                      A                      A                      A
 Frequencies --   1056.1288              1110.2892              1123.2126
 Red. masses --      1.5398                 2.7370                 4.8250
 Frc consts  --      1.0119                 1.9879                 3.5865
 IR Inten    --      0.3705                99.3499                37.7502

                     49                     50                     51
                      A                      A                      A
 Frequencies --   1161.4726              1224.6683              1236.9015
 Red. masses --      1.3043                 7.0228                 1.1888
 Frc consts  --      1.0367                 6.2058                 1.0716
 IR Inten    --     43.4472                20.9853                12.6390

                     52                     53                     54
                      A                      A                      A
 Frequencies --   1274.0379              1287.9073              1296.0234
 Red. masses --      4.0111                 1.9721                 1.3931
 Frc consts  --      3.8360                 1.9273                 1.3787
 IR Inten    --    152.2544               117.3859                31.7313

                     55                     56                     57
                      A                      A                      A
 Frequencies --   1340.3059              1375.0503              1390.4437
 Red. masses --      1.3382                 1.4452                 1.3310
 Frc consts  --      1.4164                 1.6100                 1.5162
 IR Inten    --     17.4366                96.9635               108.3041

                     58                     59                     60
                      A                      A                      A
 Frequencies --   1391.1139              1403.3892              1415.8150
 Red. masses --      1.2690                 1.4789                 2.3156
 Frc consts  --      1.4469                 1.7161                 2.7347
 IR Inten    --     11.5128               595.9553               129.3929

                     61                     62                     63
                      A                      A                      A
 Frequencies --   1450.0654              1459.9213              1467.1465
 Red. masses --      1.8103                 1.3565                 1.3071
 Frc consts  --      2.2427                 1.7035                 1.6577
 IR Inten    --    317.2335               258.0807                30.9561

                     64                     65                     66
                      A                      A                      A
 Frequencies --   1468.7504              1473.8262              1477.3867
 Red. masses --      1.1770                 1.8068                 1.1106
 Frc consts  --      1.4960                 2.3124                 1.4282
 IR Inten    --     23.9139               790.5924                42.9578

                     67                     68                     69
                      A                      A                      A
 Frequencies --   1479.8752              1481.7779              1487.6916
 Red. masses --      1.0797                 1.3244                 2.3498
 Frc consts  --      1.3932                 1.7133                 3.0641
 IR Inten    --      1.0097                 3.4029               150.2304

                     70                     71                     72
                      A                      A                      A
 Frequencies --   1492.5999              1511.9298              1608.0792
 Red. masses --      1.0498                 3.1253                 8.2249
 Frc consts  --      1.3779                 4.2093                12.5312
 IR Inten    --     36.0727                10.5581                29.9354

                     73                     74                     75
                      A                      A                      A
 Frequencies --   1745.3380              2904.4442              3010.6445
 Red. masses --      7.1724                 1.0852                 1.0507
 Frc consts  --     12.8729                 5.3939                 5.6111
 IR Inten    --    857.2870              4241.4715                98.5202

                     76                     77                     78
                      A                      A                      A
 Frequencies --   3011.5169              3014.0133              3048.8826
 Red. masses --      1.0438                 1.0418                 1.0987
 Frc consts  --      5.5777                 5.5761                 6.0173
 IR Inten    --     47.7864                34.8786                70.6336

                     79                     80                     81
                      A                      A                      A
 Frequencies --   3054.4016              3071.4811              3076.9157
 Red. masses --      1.0992                 1.0598                 1.0619
 Frc consts  --      6.0421                 5.8906                 5.9235
 IR Inten    --      3.4183                17.7871                24.6784

                     82                     83                     84
                      A                      A                      A
 Frequencies --   3080.7478              3121.2870              3125.6070
 Red. masses --      1.0793                 1.1036                 1.1026
 Frc consts  --      6.0351                 6.3347                 6.3468
 IR Inten    --     28.7347                 3.2731                 8.9290

                     85                     86                     87
                      A                      A                      A
 Frequencies --   3128.4031              3130.9356              3137.0080
 Red. masses --      1.0954                 1.0953                 1.1054
 Frc consts  --      6.3164                 6.3261                 6.4093
 IR Inten    --     14.1936                14.5828                18.9333

 - Thermochemistry -
 -------------------
 Temperature   298.150 Kelvin.  Pressure   1.00000 Atm.
 Atom     1 has atomic number  6 and mass  12.00000

 Molecular mass:   254.06128 amu.
 Principal axes and moments of inertia in atomic units:
                           1         2         3
     Eigenvalues --  2506.537956778.859548856.01817
           X            0.72628  -0.68726  -0.01394
           Y            0.66437   0.70701  -0.24238
           Z            0.17644   0.16677   0.97008
 This molecule is an asymmetric top.
 Rotational symmetry number  1.
 Warning -- assumption of classical behavior for rotation
           may cause significant error
 Rotational temperatures (Kelvin)      0.03456     0.01278     0.00978
 Rotational constants (GHZ):           0.72001     0.26623     0.20379
 Zero-point vibrational energy     624373.0 (Joules/Mol)
                                  149.22872 (Kcal/Mol)
 Warning -- explicit consideration of  28 degrees of freedom as
           vibrations may cause significant error
 Vibrational temperatures:     43.72    60.02    74.46   112.96   116.39
          (Kelvin)            125.98   148.65   153.84   176.15   220.76
                              247.84   311.88   323.75   379.05   418.21
                              454.06   472.21   480.46   494.44   543.45
                              587.50   617.53   636.04   649.75   759.96
                              811.51   852.19   880.20   941.90   986.03
                             1012.00  1033.40  1103.05  1144.64  1180.28
                             1269.31  1334.02  1380.12  1406.98  1445.87
                             1451.06  1459.12  1472.00  1496.35  1505.64
                             1519.53  1597.46  1616.05  1671.10  1762.02
                             1779.63  1833.06  1853.01  1864.69  1928.40
                             1978.39  2000.54  2001.50  2019.16  2037.04
                             2086.32  2100.50  2110.90  2113.20  2120.51
                             2125.63  2129.21  2131.95  2140.46  2147.52
                             2175.33  2313.67  2511.15  4178.85  4331.65
                             4332.90  4336.49  4386.66  4394.60  4419.18
                             4427.00  4432.51  4490.84  4497.05  4501.07
                             4504.72  4513.45

 Zero-point correction=                           0.237811 (Hartree/Particle)
 Thermal correction to Energy=                    0.255913
 Thermal correction to Enthalpy=                  0.256858
 Thermal correction to Gibbs Free Energy=         0.189677
 Sum of electronic and zero-point Energies=          -1164.972021
 Sum of electronic and thermal Energies=             -1164.953918
 Sum of electronic and thermal Enthalpies=           -1164.952974
 Sum of electronic and thermal Free Energies=        -1165.020155

                     E (Thermal)             CV                S
                      KCal/Mol        Cal/Mol-Kelvin    Cal/Mol-Kelvin
 Total                  160.588             65.230            141.394
 Electronic               0.000              0.000              1.377
 Translational            0.889              2.981             42.497
 Rotational               0.889              2.981             33.375
 Vibrational            158.811             59.268             64.144
 Vibration     1          0.594              1.984              5.804
 Vibration     2          0.594              1.981              5.176
 Vibration     3          0.596              1.977              4.749
 Vibration     4          0.600              1.964              3.928
 Vibration     5          0.600              1.962              3.869
 Vibration     6          0.601              1.958              3.714
 Vibration     7          0.605              1.947              3.391
 Vibration     8          0.606              1.944              3.324
 Vibration     9          0.610              1.930              3.062
 Vibration    10          0.619              1.899              2.629
 Vibration    11          0.626              1.877              2.411
 Vibration    12          0.646              1.815              1.986
 Vibration    13          0.650              1.803              1.918
 Vibration    14          0.670              1.740              1.639
 Vibration    15          0.687              1.691              1.470
 Vibration    16          0.703              1.644              1.333
 Vibration    17          0.711              1.619              1.269
 Vibration    18          0.715              1.608              1.241
 Vibration    19          0.722              1.588              1.195
 Vibration    20          0.748              1.518              1.048
 Vibration    21          0.773              1.452              0.933
 Vibration    22          0.791              1.407              0.861
 Vibration    23          0.802              1.378              0.820
 Vibration    24          0.810              1.357              0.791
 Vibration    25          0.883              1.188              0.591
 Vibration    26          0.920              1.109              0.516
 Vibration    27          0.950              1.048              0.463
 Vibration    28          0.971              1.007              0.430

                           ! Non-Optimized Parameters !
 Normal termination of Gaussian 16 at Sat Feb 10 15:23:05 2024.
