 Gaussian 16, Revision A.03,
 Gaussian 16:  ES64L-G16RevA.03 25-Dec-2016

 ----------------------------------------------------------------
 #P UB3LYP/6-311++G(d,p) SCRF=(PCM,Solvent=n,n-DiMethylFormamide)
 ----------------------------------------------------------------

 -------
 Reduced
 -------
 Symbolic Z-matrix:
 Charge = -2 Multiplicity = 1

                         Standard orientation:
 ---------------------------------------------------------------------
 Center     Atomic      Atomic             Coordinates (Angstroms)
 Number     Number       Type             X           Y           Z
 ---------------------------------------------------------------------
      1          6           0       -3.011586   -1.571987    0.013281
      2          6           0       -4.248362   -0.976898    0.007227
      3          6           0       -4.371353    0.444627   -0.009218
      4          6           0       -1.798681   -0.801536   -0.003788
      5          6           0       -1.929944    0.647054   -0.000293
      6          6           0       -3.225438    1.218856   -0.008642
      7          6           0       -0.525235   -1.367616   -0.006517
      8          6           0        0.657262   -0.591098   -0.000269
      9          6           0        0.518531    0.870748    0.002174
     10          6           0       -0.748334    1.423573    0.004762
     11          6           0        1.944572   -1.192344    0.000388
     12          6           0        3.044600   -0.290367   -0.001025
     13          6           0        2.955421    1.103489   -0.000229
     14          6           0        1.702768    1.772552    0.002191
     15          8           0        2.219769   -2.478573   -0.002498
     16          8           0        1.571717    3.042241    0.005965
     17          8           0        4.256853   -0.936629   -0.002943
     18          1           0       -2.929360   -2.656733    0.026343
     19          1           0       -5.147569   -1.590813    0.007315
     20          1           0       -5.355553    0.905570   -0.022453
     21          1           0       -3.303436    2.304553   -0.014073
     22          1           0       -0.409962   -2.447845   -0.003220
     23          1           0       -0.811997    2.508691    0.005964
     24          1           0        3.862301    1.702498   -0.000621
     25          1           0        3.923537   -1.876554   -0.003694
 ---------------------------------------------------------------------

 SCF Done:  E(UB3LYP) =  -764.446211669     A.U. after   18 cycles

 The electronic state is 1-A.
 Alpha  occ. eigenvalues --  -19.11281 -19.02733 -19.02571 -10.18547 -10.18290
 Alpha  occ. eigenvalues --  -10.16394 -10.16372 -10.16318 -10.16098 -10.16059
 Alpha  occ. eigenvalues --  -10.16052 -10.15868 -10.15124 -10.14605 -10.14483
 Alpha  occ. eigenvalues --  -10.14272 -10.12051  -1.02687  -0.94734  -0.92461
 Alpha  occ. eigenvalues --   -0.85264  -0.80486  -0.75842  -0.75530  -0.70780
 Alpha  occ. eigenvalues --   -0.70435  -0.64079  -0.61387  -0.58727  -0.57665
 Alpha  occ. eigenvalues --   -0.53966  -0.51361  -0.50245  -0.47701  -0.45279
 Alpha  occ. eigenvalues --   -0.43897  -0.43007  -0.42040  -0.40775  -0.39795
 Alpha  occ. eigenvalues --   -0.39308  -0.37522  -0.37144  -0.36921  -0.36797
 Alpha  occ. eigenvalues --   -0.34918  -0.33944  -0.33378  -0.31721  -0.31506
 Alpha  occ. eigenvalues --   -0.30089  -0.28565  -0.27073  -0.22689  -0.21588
 Alpha  occ. eigenvalues --   -0.20537  -0.20397  -0.20010  -0.11000
 Alpha virt. eigenvalues --   -0.03972   0.00036   0.00299   0.00846   0.01340
 Alpha virt. eigenvalues --    0.01836   0.02598   0.02633   0.04380   0.04767
 Alpha virt. eigenvalues --    0.05335   0.05732   0.06163   0.06885   0.07124

  Beta  occ. eigenvalues --  -19.11281 -19.02733 -19.02571 -10.18547 -10.18290
  Beta  occ. eigenvalues --  -10.16394 -10.16372 -10.16318 -10.16098 -10.16059
  Beta  occ. eigenvalues --  -10.16052 -10.15868 -10.15124 -10.14605 -10.14483
  Beta  occ. eigenvalues --  -10.14272 -10.12051  -1.02687  -0.94734  -0.92461
  Beta  occ. eigenvalues --   -0.85264  -0.80486  -0.75842  -0.75530  -0.70780
  Beta  occ. eigenvalues --   -0.70435  -0.64079  -0.61387  -0.58727  -0.57665
  Beta  occ. eigenvalues --   -0.53966  -0.51361  -0.50245  -0.47701  -0.45279
  Beta  occ. eigenvalues --   -0.43897  -0.43007  -0.42040  -0.40775  -0.39795
  Beta  occ. eigenvalues --   -0.39308  -0.37522  -0.37144  -0.36921  -0.36797
  Beta  occ. eigenvalues --   -0.34918  -0.33944  -0.33378  -0.31721  -0.31506
  Beta  occ. eigenvalues --   -0.30089  -0.28565  -0.27073  -0.22689  -0.21588
  Beta  occ. eigenvalues --   -0.20537  -0.20397  -0.20010  -0.11000
  Beta virt. eigenvalues --   -0.03972   0.00036   0.00299   0.00846   0.01340
  Beta virt. eigenvalues --    0.01836   0.02598   0.02633   0.04380   0.04767
  Beta virt. eigenvalues --    0.05335   0.05732   0.06163   0.06885   0.07124

 Mulliken charges and spin densities:
               1          2
     1  C   -0.229098   0.000000
     2  C   -0.346898   0.000000
     3  C   -0.394362  -0.000000
     4  C    0.151569   0.000000
     5  C    0.173651  -0.000000
     6  C   -0.199568   0.000000
     7  C   -0.037545   0.000000
     8  C    0.276840   0.000000
     9  C    0.314484  -0.000000
    10  C    0.102439  -0.000000
    11  C   -0.872811   0.000000
    12  C   -0.326764   0.000000
    13  C    0.426184  -0.000000
    14  C   -0.610302   0.000000
    15  O   -0.731317  -0.000000
    16  O   -0.643031  -0.000000
    17  O   -0.351518   0.000000
    18  H    0.144490  -0.000000
    19  H    0.171498   0.000000
    20  H    0.169513  -0.000000
    21  H    0.146144   0.000000
    22  H    0.119992  -0.000000
    23  H    0.120828   0.000000
    24  H    0.149171   0.000000
    25  H    0.276409   0.000000
 Sum of Mulliken charges =  -2.00000  -0.00000

 Dipole moment (field-independent basis, Debye):
    X=            -14.6232    Y=             -1.8133    Z=             -0.0087  Tot=             14.7352
 Quadrupole moment (field-independent basis, Debye-Ang):
   XX=           -160.9388   YY=           -155.3267   ZZ=           -110.7659
   XY=              0.5221   XZ=              0.0518   YZ=             -0.1478

 Normal termination of Gaussian 16 at Sat Jan 13 19:18:20 2024.
