 Gaussian 16, Revision A.03,
 Gaussian 16:  ES64L-G16RevA.03 25-Dec-2016

 ----------------------------------------------------------------------
 #P UB3LYP/6-311++G(d,p) nosym opt freq SCRF=(PCM,Solvent=n,n-DiMethylF
 ormamide)
 ----------------------------------------------------------------------

 --------
 Oxidized
 --------
 Symbolic Z-matrix:
 Charge =  0 Multiplicity = 1

 SCF Done:  E(UB3LYP) =  -538.868860804     A.U. after   14 cycles
 SCF Done:  E(UB3LYP) =  -538.868923621     A.U. after   12 cycles
 SCF Done:  E(UB3LYP) =  -538.868935490     A.U. after   11 cycles
 SCF Done:  E(UB3LYP) =  -538.868940910     A.U. after   10 cycles
 SCF Done:  E(UB3LYP) =  -538.868942323     A.U. after   10 cycles
 SCF Done:  E(UB3LYP) =  -538.868942380     A.U. after    8 cycles
 Optimization completed.
    -- Stationary point found.
 Normal termination of Gaussian 16 at Sat Feb 10 10:12:33 2024.

 ----------------------------------------------------------------------
 #P Geom=AllCheck Guess=TCheck SCRF=Check GenChk UB3LYP/6-311++G(d,p) F
 req
 ----------------------------------------------------------------------

 Structure from the checkpoint file:  "033.chk"
 --------
 Oxidized
 --------
 Charge =  0 Multiplicity = 1

                          Input orientation:
 ---------------------------------------------------------------------
 Center     Atomic      Atomic             Coordinates (Angstroms)
 Number     Number       Type             X           Y           Z
 ---------------------------------------------------------------------
      1          6           0       -1.802831    1.124838    0.643276
      2          6           0       -1.160296   -0.096606   -0.061611
      3          6           0       -1.697335   -1.371924    0.614493
      4          6           0       -1.582309   -0.132659   -1.552320
      5          6           0        0.365348   -0.009478    0.042280
      6          6           0        1.118070   -0.945572    0.655786
      7          6           0        2.589387   -0.880977    0.767634
      8          8           0        3.216169   -1.767254    1.339921
      9          6           0        3.280474    0.279821    0.169912
     10          6           0        2.570918    1.229702   -0.447245
     11          6           0        1.089978    1.167643   -0.559919
     12          8           0        0.507493    2.074001   -1.139185
     13          1           0       -2.891741    1.036415    0.594453
     14          1           0       -1.515649    1.159538    1.698113
     15          1           0       -1.513099    2.062858    0.172001
     16          1           0       -2.785164   -1.393839    0.516565
     17          1           0       -1.461095   -1.400901    1.681615
     18          1           0       -1.305243   -2.279500    0.147547
     19          1           0       -1.136681   -0.992219   -2.061138
     20          1           0       -2.669574   -0.231514   -1.615786
     21          1           0       -1.288775    0.774574   -2.078217
     22          1           0        0.679167   -1.821960    1.114429
     23          1           0        4.360207    0.315448    0.258036
     24          1           0        3.032583    2.099562   -0.900638
 ---------------------------------------------------------------------

 SCF Done:  E(UB3LYP) =  -538.868942380     A.U. after    1 cycles

 Alpha  occ. eigenvalues --  -19.14451 -19.14236 -10.29086 -10.28662 -10.22072
 Alpha  occ. eigenvalues --  -10.21331 -10.21175 -10.20535 -10.20440 -10.16334
 Alpha  occ. eigenvalues --  -10.16150 -10.16146  -1.07488  -1.06913  -0.87145
 Alpha  occ. eigenvalues --   -0.83284  -0.77734  -0.71051  -0.69283  -0.69151
 Alpha  occ. eigenvalues --   -0.64504  -0.61230  -0.55700  -0.52541  -0.51132
 Alpha  occ. eigenvalues --   -0.48543  -0.47423  -0.45725  -0.44815  -0.44443
 Alpha  occ. eigenvalues --   -0.44309  -0.43011  -0.42446  -0.40390  -0.39065
 Alpha  occ. eigenvalues --   -0.38563  -0.37104  -0.36077  -0.34536  -0.34029
 Alpha  occ. eigenvalues --   -0.31298  -0.29361  -0.28958  -0.27826
 Alpha virt. eigenvalues --   -0.13720  -0.03079  -0.00776  -0.00667   0.00587
 Alpha virt. eigenvalues --    0.01189   0.01970   0.02413   0.02865   0.03799
 Alpha virt. eigenvalues --    0.03860   0.04858   0.05329   0.05453   0.06467

  Beta  occ. eigenvalues --  -19.14451 -19.14236 -10.29086 -10.28662 -10.22072
  Beta  occ. eigenvalues --  -10.21331 -10.21175 -10.20535 -10.20440 -10.16334
  Beta  occ. eigenvalues --  -10.16150 -10.16146  -1.07488  -1.06913  -0.87145
  Beta  occ. eigenvalues --   -0.83284  -0.77734  -0.71051  -0.69283  -0.69151
  Beta  occ. eigenvalues --   -0.64504  -0.61230  -0.55700  -0.52541  -0.51132
  Beta  occ. eigenvalues --   -0.48543  -0.47423  -0.45725  -0.44815  -0.44443
  Beta  occ. eigenvalues --   -0.44309  -0.43011  -0.42446  -0.40390  -0.39065
  Beta  occ. eigenvalues --   -0.38563  -0.37104  -0.36077  -0.34536  -0.34029
  Beta  occ. eigenvalues --   -0.31298  -0.29361  -0.28958  -0.27826
  Beta virt. eigenvalues --   -0.13720  -0.03079  -0.00776  -0.00667   0.00587
  Beta virt. eigenvalues --    0.01189   0.01970   0.02413   0.02865   0.03799
  Beta virt. eigenvalues --    0.03860   0.04858   0.05329   0.05453   0.06467

 Mulliken charges and spin densities:
               1          2
     1  C   -0.689013  -0.000000
     2  C    0.583848   0.000000
     3  C   -0.461983  -0.000000
     4  C   -0.688803  -0.000000
     5  C    1.480573   0.000000
     6  C   -0.647934  -0.000000
     7  C   -0.544327   0.000000
     8  O   -0.292344   0.000000
     9  C    0.212091  -0.000000
    10  C    0.139710   0.000000
    11  C   -1.046992  -0.000000
    12  O   -0.227893   0.000000
    13  H    0.166319   0.000000
    14  H    0.149301  -0.000000
    15  H    0.175060  -0.000000
    16  H    0.183998  -0.000000
    17  H    0.141155   0.000000
    18  H    0.141082   0.000000
    19  H    0.149380  -0.000000
    20  H    0.166170   0.000000
    21  H    0.174948  -0.000000
    22  H    0.251304   0.000000
    23  H    0.241593  -0.000000
    24  H    0.242758  -0.000000
 Sum of Mulliken charges =  -0.00000  -0.00000

 Dipole moment (field-independent basis, Debye):
    X=             -1.2761    Y=              0.4270    Z=             -0.3755  Tot=              1.3971
 Quadrupole moment (field-independent basis, Debye-Ang):
   XX=            -71.9303   YY=            -81.6716   ZZ=            -76.8122
   XY=             11.9983   XZ=             -6.8528   YZ=              6.5602

  Exact polarizability: 189.382 -31.795 179.381  25.924 -41.104 139.653
 Approx polarizability: 207.091 -58.651 226.215  41.874 -63.566 166.560

                      1                      2                      3
                      A                      A                      A
 Frequencies --     53.7315                78.7935               134.2732
 Red. masses --      4.1780                 4.2304                 3.9594
 Frc consts  --      0.0071                 0.0155                 0.0421
 IR Inten    --      7.9396                 5.3017                 8.1100

                      4                      5                      6
                      A                      A                      A
 Frequencies --    202.6184               204.0466               245.6238
 Red. masses --      4.3263                 1.4473                 1.1049
 Frc consts  --      0.1046                 0.0355                 0.0393
 IR Inten    --      0.3745                 0.8397                 0.1984

                      7                      8                      9
                      A                      A                      A
 Frequencies --    246.1011               277.7443               298.3230
 Red. masses --      2.1964                 3.3214                 2.9817
 Frc consts  --      0.0784                 0.1510                 0.1563
 IR Inten    --      0.0721                 0.5782                 0.0009

                     10                     11                     12
                      A                      A                      A
 Frequencies --    325.8521               331.2745               381.7921
 Red. masses --      3.0864                 1.0634                 2.2129
 Frc consts  --      0.1931                 0.0688                 0.1901
 IR Inten    --      4.2939                 0.0597                 0.4379

                     13                     14                     15
                      A                      A                      A
 Frequencies --    405.5040               436.7226               465.3611
 Red. masses --      2.9905                 6.6484                 6.7015
 Frc consts  --      0.2897                 0.7471                 0.8551
 IR Inten    --      5.6076                32.1263                 5.5079

                     16                     17                     18
                      A                      A                      A
 Frequencies --    478.8988               499.6539               590.8013
 Red. masses --      2.8519                 3.7667                 3.7305
 Frc consts  --      0.3854                 0.5540                 0.7672
 IR Inten    --      1.2486                 0.2515                 3.4677

                     19                     20                     21
                      A                      A                      A
 Frequencies --    639.5854               655.0628               788.3635
 Red. masses --      2.5956                 5.7455                 5.0247
 Frc consts  --      0.6256                 1.4526                 1.8400
 IR Inten    --      0.4030                 2.4182                 2.1095

                     22                     23                     24
                      A                      A                      A
 Frequencies --    795.5954               800.3637               848.2308
 Red. masses --      2.8143                 3.7164                 2.6225
 Frc consts  --      1.0496                 1.4026                 1.1117
 IR Inten    --      3.8389                 0.4999                32.5524

                     25                     26                     27
                      A                      A                      A
 Frequencies --    888.1833               925.4811               936.3544
 Red. masses --      3.2019                 1.8537                 1.7612
 Frc consts  --      1.4882                 0.9355                 0.9098
 IR Inten    --     14.6014                23.2925                 2.2219

                     28                     29                     30
                      A                      A                      A
 Frequencies --    938.9545               964.8224              1016.1813
 Red. masses --      1.5381                 1.1972                 1.2647
 Frc consts  --      0.7989                 0.6566                 0.7695
 IR Inten    --     47.0988                 0.0162                 0.0367

                     31                     32                     33
                      A                      A                      A
 Frequencies --   1017.7668              1046.3894              1057.2966
 Red. masses --      2.5392                 1.3846                 1.5630
 Frc consts  --      1.5497                 0.8932                 1.0294
 IR Inten    --    105.3923                 0.0487                15.3936

                     34                     35                     36
                      A                      A                      A
 Frequencies --   1119.4732              1213.1468              1217.9374
 Red. masses --      1.4420                 2.6978                 2.0024
 Frc consts  --      1.0648                 2.3393                 1.7501
 IR Inten    --     55.5834                 5.7396                12.0920

                     37                     38                     39
                      A                      A                      A
 Frequencies --   1228.5152              1267.9280              1301.8168
 Red. masses --      2.3754                 2.3216                 3.2424
 Frc consts  --      2.1122                 2.1990                 3.2375
 IR Inten    --      2.8141                52.9437               127.1223

                     40                     41                     42
                      A                      A                      A
 Frequencies --   1352.4916              1387.5984              1391.1100
 Red. masses --      1.9750                 1.1958                 1.8067
 Frc consts  --      2.1286                 1.3565                 2.0600
 IR Inten    --     34.6503                 9.8183                 7.7766

                     43                     44                     45
                      A                      A                      A
 Frequencies --   1394.9211              1421.1411              1475.0206
 Red. masses --      1.2751                 1.2232                 1.0460
 Frc consts  --      1.4619                 1.4556                 1.3409
 IR Inten    --     15.8955                 5.4996                 0.0141

                     46                     47                     48
                      A                      A                      A
 Frequencies --   1489.0585              1489.2353              1492.0652
 Red. masses --      1.0449                 1.0476                 1.0540
 Frc consts  --      1.3651                 1.3688                 1.3825
 IR Inten    --      0.1309                 0.9770                26.1836

                     49                     50                     51
                      A                      A                      A
 Frequencies --   1502.5679              1516.9576              1634.3074
 Red. masses --      1.0485                 1.0609                 7.9925
 Frc consts  --      1.3947                 1.4384                12.5776
 IR Inten    --     13.3826                27.0375                98.6939

                     52                     53                     54
                      A                      A                      A
 Frequencies --   1667.9456              1687.4239              1708.3709
 Red. masses --     10.5880                10.6708                 8.0354
 Frc consts  --     17.3551                17.9017                13.8173
 IR Inten    --    102.2760              1095.9108                 3.3669

                     55                     56                     57
                      A                      A                      A
 Frequencies --   3024.0067              3026.4100              3032.2753
 Red. masses --      1.0355                 1.0374                 1.0382
 Frc consts  --      5.5792                 5.5985                 5.6241
 IR Inten    --     26.2729                63.2502                36.0281

                     58                     59                     60
                      A                      A                      A
 Frequencies --   3084.7424              3085.5901              3091.1616
 Red. masses --      1.1026                 1.1021                 1.1026
 Frc consts  --      6.1817                 6.1822                 6.2072
 IR Inten    --     13.2548                35.1613                57.9455

                     61                     62                     63
                      A                      A                      A
 Frequencies --   3096.2106              3130.2315              3132.5298
 Red. masses --      1.1010                 1.0989                 1.0983
 Frc consts  --      6.2187                 6.3441                 6.3498
 IR Inten    --     80.8206                 0.4122                38.3817

                     64                     65                     66
                      A                      A                      A
 Frequencies --   3181.2568              3198.1909              3205.3186
 Red. masses --      1.0875                 1.0997                 1.0908
 Frc consts  --      6.4848                 6.6275                 6.6032
 IR Inten    --      4.1326                 4.5673                 2.0009

 - Thermochemistry -
 -------------------
 Temperature   298.150 Kelvin.  Pressure   1.00000 Atm.
 Atom     1 has atomic number  6 and mass  12.00000

 Molecular mass:   164.08373 amu.
 Principal axes and moments of inertia in atomic units:
                           1         2         3
     Eigenvalues --  1223.172862425.181473244.62904
           X            0.97080   0.22347  -0.08720
           Y           -0.15222   0.85484   0.49607
           Z            0.18540  -0.46831   0.86389
 This molecule is an asymmetric top.
 Rotational symmetry number  1.
 Warning -- assumption of classical behavior for rotation
           may cause significant error
 Rotational temperatures (Kelvin)      0.07081     0.03571     0.02669
 Rotational constants (GHZ):           1.47546     0.74417     0.55622
 Zero-point vibrational energy     515726.3 (Joules/Mol)
                                  123.26154 (Kcal/Mol)
 Warning -- explicit consideration of  18 degrees of freedom as
           vibrations may cause significant error
 Vibrational temperatures:     77.31   113.37   193.19   291.52   293.58
          (Kelvin)            353.40   354.08   399.61   429.22   468.83
                              476.63   549.31   583.43   628.35   669.55
                              689.03   718.89   850.03   920.22   942.49
                             1134.28  1144.68  1151.54  1220.41  1277.90
                             1331.56  1347.21  1350.95  1388.16  1462.06
                             1464.34  1505.52  1521.21  1610.67  1745.45
                             1752.34  1767.56  1824.27  1873.02  1945.93
                             1996.44  2001.50  2006.98  2044.71  2122.23
                             2142.42  2142.68  2146.75  2161.86  2182.56
                             2351.40  2399.80  2427.83  2457.96  4350.87
                             4354.33  4362.77  4438.26  4439.48  4447.49
                             4454.76  4503.70  4507.01  4577.12  4601.48
                             4611.74

 Zero-point correction=                           0.196430 (Hartree/Particle)
 Thermal correction to Energy=                    0.208182
 Thermal correction to Enthalpy=                  0.209126
 Thermal correction to Gibbs Free Energy=         0.159296
 Sum of electronic and zero-point Energies=           -538.672513
 Sum of electronic and thermal Energies=              -538.660761
 Sum of electronic and thermal Enthalpies=            -538.659817
 Sum of electronic and thermal Free Energies=         -538.709646

                     E (Thermal)             CV                S
                      KCal/Mol        Cal/Mol-Kelvin    Cal/Mol-Kelvin
 Total                  130.636             45.352            104.875
 Electronic               0.000              0.000              0.000
 Translational            0.889              2.981             41.194
 Rotational               0.889              2.981             30.643
 Vibrational            128.858             39.391             33.037
 Vibration     1          0.596              1.976              4.675
 Vibration     2          0.600              1.963              3.921
 Vibration     3          0.613              1.919              2.884
 Vibration     4          0.639              1.836              2.109
 Vibration     5          0.640              1.834              2.096
 Vibration     6          0.660              1.770              1.762
 Vibration     7          0.661              1.769              1.758
 Vibration     8          0.679              1.715              1.548
 Vibration     9          0.691              1.677              1.426
 Vibration    10          0.710              1.624              1.281
 Vibration    11          0.714              1.613              1.254
 Vibration    12          0.751              1.509              1.032
 Vibration    13          0.770              1.458              0.943
 Vibration    14          0.797              1.390              0.837
 Vibration    15          0.823              1.327              0.751
 Vibration    16          0.835              1.297              0.713
 Vibration    17          0.855              1.251              0.659
 Vibration    18          0.948              1.051              0.466

 Optimization completed.
    -- Stationary point found.
 Normal termination of Gaussian 16 at Sat Feb 10 10:25:24 2024.
