 Gaussian 16, Revision A.03,
 Gaussian 16:  ES64L-G16RevA.03 25-Dec-2016

 --------------------------------------
 #P UB3LYP/6-311++G(d,p) nosym opt freq
 --------------------------------------

 -------
 Reduced
 -------
 Symbolic Z-matrix:
 Charge = -2 Multiplicity = 1

 SCF Done:  E(UB3LYP) =  -993.822314354     A.U. after   33 cycles
 SCF Done:  E(UB3LYP) =  -993.852365433     A.U. after   18 cycles
 SCF Done:  E(UB3LYP) =  -993.844521960     A.U. after   19 cycles
 SCF Done:  E(UB3LYP) =  -993.859738909     A.U. after   17 cycles
 SCF Done:  E(UB3LYP) =  -993.859794101     A.U. after   15 cycles
 SCF Done:  E(UB3LYP) =  -993.860189919     A.U. after   15 cycles
 SCF Done:  E(UB3LYP) =  -993.860211089     A.U. after   13 cycles
 SCF Done:  E(UB3LYP) =  -993.860639408     A.U. after   19 cycles
 SCF Done:  E(UB3LYP) =  -993.861255351     A.U. after   17 cycles
 SCF Done:  E(UB3LYP) =  -993.867254132     A.U. after   18 cycles
 SCF Done:  E(UB3LYP) =  -993.870815632     A.U. after   18 cycles
 SCF Done:  E(UB3LYP) =  -993.870532647     A.U. after   18 cycles
 SCF Done:  E(UB3LYP) =  -993.871117996     A.U. after   18 cycles
 SCF Done:  E(UB3LYP) =  -993.871566562     A.U. after   18 cycles
 SCF Done:  E(UB3LYP) =  -993.871574792     A.U. after   16 cycles
 SCF Done:  E(UB3LYP) =  -993.871583156     A.U. after   15 cycles
 SCF Done:  E(UB3LYP) =  -993.871588811     A.U. after   13 cycles
 SCF Done:  E(UB3LYP) =  -993.871590204     A.U. after   14 cycles
 SCF Done:  E(UB3LYP) =  -993.871590434     A.U. after   12 cycles
 Optimization completed.
    -- Stationary point found.
 Normal termination of Gaussian 16 at Sun Dec 17 21:24:29 2023.

 ----------------------------------------------------------------------
 #P Geom=AllCheck Guess=TCheck SCRF=Check GenChk UB3LYP/6-311++G(d,p) F
 req
 ----------------------------------------------------------------------

 Structure from the checkpoint file:  "060-an.chk"
 -------
 Reduced
 -------
 Charge = -2 Multiplicity = 1

                          Input orientation:
 ---------------------------------------------------------------------
 Center     Atomic      Atomic             Coordinates (Angstroms)
 Number     Number       Type             X           Y           Z
 ---------------------------------------------------------------------
      1          6           0       -0.441431    1.217525   -0.300386
      2          6           0       -1.473316    0.217326   -0.505269
      3          6           0       -1.258036   -1.136388   -0.440827
      4          6           0        0.023124   -1.760322   -0.168321
      5          6           0        1.009092   -0.783575    0.097672
      6          6           0        0.853156    0.645821    0.072461
      7          8           0       -0.723255    2.456933   -0.372088
      8          8           0        0.175647   -3.038636   -0.220030
      9          6           0        1.879216    1.548245    0.593138
     10          6           0        2.595120    1.163572    1.906888
     11          8           0        2.158980    2.662282    0.134796
     12          1           0        2.244270    0.227792    2.340858
     13          1           0        2.409444    1.989645    2.604718
     14          1           0        3.677139    1.097708    1.746419
     15          1           0       -2.072485   -1.831886   -0.647663
     16         17           0        2.701518   -1.458793    0.204678
     17          1           0       -2.461753    0.609368   -0.744643
 ---------------------------------------------------------------------

 SCF Done:  E(UB3LYP) =  -993.871590434     A.U. after    1 cycles

 Alpha  occ. eigenvalues -- -101.26740 -18.82235 -18.76564 -18.75604  -9.97721
 Alpha  occ. eigenvalues --   -9.93499  -9.92516  -9.92410  -9.91754  -9.89138
 Alpha  occ. eigenvalues --   -9.88599  -9.88450  -9.18173  -6.94538  -6.93730
 Alpha  occ. eigenvalues --   -6.93669  -0.74877  -0.68517  -0.67256  -0.57316
 Alpha  occ. eigenvalues --   -0.52284  -0.48488  -0.44601  -0.39862  -0.33953
 Alpha  occ. eigenvalues --   -0.28445  -0.24636  -0.20050  -0.19139  -0.17848
 Alpha  occ. eigenvalues --   -0.17626  -0.15419  -0.14335  -0.12789  -0.10941
 Alpha  occ. eigenvalues --   -0.10186  -0.08938  -0.08463  -0.06957  -0.06537
 Alpha  occ. eigenvalues --   -0.04400  -0.03146   0.01994   0.02674   0.03954
 Alpha  occ. eigenvalues --    0.06408   0.06674   0.13265
 Alpha virt. eigenvalues --    0.18325   0.19262   0.20841   0.21162   0.22716
 Alpha virt. eigenvalues --    0.22897   0.24223   0.26181   0.27677   0.28064
 Alpha virt. eigenvalues --    0.28372   0.28794   0.29117   0.30184   0.30843

  Beta  occ. eigenvalues -- -101.26740 -18.82235 -18.76564 -18.75604  -9.97721
  Beta  occ. eigenvalues --   -9.93499  -9.92516  -9.92410  -9.91754  -9.89138
  Beta  occ. eigenvalues --   -9.88599  -9.88450  -9.18173  -6.94538  -6.93730
  Beta  occ. eigenvalues --   -6.93669  -0.74877  -0.68517  -0.67256  -0.57316
  Beta  occ. eigenvalues --   -0.52284  -0.48488  -0.44601  -0.39862  -0.33953
  Beta  occ. eigenvalues --   -0.28445  -0.24636  -0.20050  -0.19139  -0.17848
  Beta  occ. eigenvalues --   -0.17626  -0.15419  -0.14335  -0.12789  -0.10941
  Beta  occ. eigenvalues --   -0.10186  -0.08938  -0.08463  -0.06957  -0.06537
  Beta  occ. eigenvalues --   -0.04400  -0.03146   0.01994   0.02674   0.03954
  Beta  occ. eigenvalues --    0.06408   0.06674   0.13265
  Beta virt. eigenvalues --    0.18325   0.19262   0.20841   0.21162   0.22716
  Beta virt. eigenvalues --    0.22897   0.24223   0.26181   0.27677   0.28064
  Beta virt. eigenvalues --    0.28372   0.28794   0.29117   0.30184   0.30843

 Mulliken charges and spin densities:
               1          2
     1  C   -1.313357   0.000000
     2  C    0.348630  -0.000000
     3  C    0.037893   0.000000
     4  C   -0.962453  -0.000000
     5  C    1.407980  -0.000000
     6  C   -0.088773   0.000000
     7  O   -0.475644  -0.000000
     8  O   -0.510715  -0.000000
     9  C    0.024221  -0.000000
    10  C   -0.623395   0.000000
    11  O   -0.331708  -0.000000
    12  H    0.104146   0.000000
    13  H    0.100419   0.000000
    14  H    0.095369   0.000000
    15  H    0.073404  -0.000000
    16  Cl   0.041619   0.000000
    17  H    0.072362  -0.000000
 Sum of Mulliken charges =  -2.00000  -0.00000

 Dipole moment (field-independent basis, Debye):
    X=             -5.8305    Y=             -0.4452    Z=              1.2398  Tot=              5.9774
 Quadrupole moment (field-independent basis, Debye-Ang):
   XX=           -110.8928   YY=           -154.6255   ZZ=            -87.6279
   XY=             -0.1589   XZ=             -4.0595   YZ=              0.4554

  Exact polarizability: 223.516  14.296 189.464  47.653  10.459 116.626
 Approx polarizability: 349.682  25.935 306.787  64.061   6.021 163.538

                      1                      2                      3
                      A                      A                      A
 Frequencies --     50.8673                78.1538               112.8714
 Red. masses --     10.0561                 3.6584                 7.4810
 Frc consts  --      0.0153                 0.0132                 0.0562
 IR Inten    --      4.1164                 0.9491                11.4873

                      4                      5                      6
                      A                      A                      A
 Frequencies --    152.8672               180.5157               215.2535
 Red. masses --      1.5122                 4.6437                 2.9832
 Frc consts  --      0.0208                 0.0892                 0.0814
 IR Inten    --      0.7211                 1.2840                 2.0102

                      7                      8                      9
                      A                      A                      A
 Frequencies --    233.0431               299.6922               316.6244
 Red. masses --     16.2531                 7.6634                 9.9608
 Frc consts  --      0.5201                 0.4055                 0.5883
 IR Inten    --      5.5181                14.4026                 0.8032

                     10                     11                     12
                      A                      A                      A
 Frequencies --    333.7095               391.7935               449.4680
 Red. masses --      8.2510                 5.2585                 9.6580
 Frc consts  --      0.5414                 0.4756                 1.1496
 IR Inten    --      0.2061                 8.5314                12.6929

                     13                     14                     15
                      A                      A                      A
 Frequencies --    478.6217               497.1264               553.4435
 Red. masses --      9.8884                 5.0882                 4.7236
 Frc consts  --      1.3346                 0.7409                 0.8525
 IR Inten    --      2.9001                 7.1724                 5.6127

                     16                     17                     18
                      A                      A                      A
 Frequencies --    576.8864               628.4463               639.2633
 Red. masses --      2.5905                 4.1009                 2.8125
 Frc consts  --      0.5079                 0.9543                 0.6772
 IR Inten    --      9.6350                 6.4685                 0.5576

                     19                     20                     21
                      A                      A                      A
 Frequencies --    724.3176               738.9417               813.1636
 Red. masses --      7.2964                 5.8880                 2.2656
 Frc consts  --      2.2554                 1.8943                 0.8827
 IR Inten    --      1.6274                 0.7659                30.7893

                     22                     23                     24
                      A                      A                      A
 Frequencies --    835.3864               907.6955               913.9701
 Red. masses --      9.1731                 5.9834                 1.3091
 Frc consts  --      3.7717                 2.9045                 0.6443
 IR Inten    --    113.2518                38.2416                 7.4234

                     25                     26                     27
                      A                      A                      A
 Frequencies --    957.1786              1016.4629              1055.2911
 Red. masses --      2.4875                 1.6902                 2.2770
 Frc consts  --      1.3427                 1.0289                 1.4940
 IR Inten    --     21.8949                 4.6008                36.4027

                     28                     29                     30
                      A                      A                      A
 Frequencies --   1091.2368              1166.6237              1236.4152
 Red. masses --      2.0010                 1.9306                 5.1405
 Frc consts  --      1.4039                 1.5481                 4.6300
 IR Inten    --     18.4797               217.9075                81.4929

                     31                     32                     33
                      A                      A                      A
 Frequencies --   1279.8778              1340.8220              1347.9756
 Red. masses --      3.5716                 3.0836                 1.3497
 Frc consts  --      3.4471                 3.2663                 1.4450
 IR Inten    --     37.3214               223.8027                42.9251

                     34                     35                     36
                      A                      A                      A
 Frequencies --   1401.7353              1440.6009              1462.8472
 Red. masses --      5.3822                 8.0835                 1.0970
 Frc consts  --      6.2307                 9.8841                 1.3832
 IR Inten    --    314.8178               152.1907                29.7982

                     37                     38                     39
                      A                      A                      A
 Frequencies --   1472.5392              1479.6616              1595.6873
 Red. masses --      1.0520                 5.5308                 7.8416
 Frc consts  --      1.3440                 7.1345                11.7638
 IR Inten    --     16.2366               510.4042               623.7914

                     40                     41                     42
                      A                      A                      A
 Frequencies --   1646.5637              2994.0861              3044.1239
 Red. masses --      9.5194                 1.0378                 1.0995
 Frc consts  --     15.2061                 5.4817                 6.0032
 IR Inten    --    349.6494               144.7733                85.0078

                     43                     44                     45
                      A                      A                      A
 Frequencies --   3076.5288              3107.1594              3117.3411
 Red. masses --      1.0831                 1.0931                 1.0975
 Frc consts  --      6.0403                 6.2178                 6.2838
 IR Inten    --     50.7432               146.0305                29.6613

 - Thermochemistry -
 -------------------
 Temperature   298.150 Kelvin.  Pressure   1.00000 Atm.
 Atom     1 has atomic number  6 and mass  12.00000

 Molecular mass:   183.99272 amu.
 Principal axes and moments of inertia in atomic units:
                           1         2         3
     Eigenvalues --  1751.101102167.432883689.07963
           X            0.12581   0.94590  -0.29908
           Y            0.98572  -0.15321  -0.06988
           Z            0.11193   0.28602   0.95166
 This molecule is an asymmetric top.
 Rotational symmetry number  1.
 Warning -- assumption of classical behavior for rotation
           may cause significant error
 Rotational temperatures (Kelvin)      0.04946     0.03996     0.02348
 Rotational constants (GHZ):           1.03063     0.83266     0.48921
 Zero-point vibrational energy     283831.3 (Joules/Mol)
                                   67.83730 (Kcal/Mol)
 Warning -- explicit consideration of  16 degrees of freedom as
           vibrations may cause significant error
 Vibrational temperatures:     73.19   112.45   162.40   219.94   259.72
          (Kelvin)            309.70   335.30   431.19   455.55   480.13
                              563.70   646.68   688.63   715.25   796.28
                              830.01   904.19   919.76  1042.13  1063.17
                             1169.96  1201.93  1305.97  1315.00  1377.17
                             1462.46  1518.33  1570.05  1678.51  1778.93
                             1841.46  1929.14  1939.44  2016.78  2072.70
                             2104.71  2118.66  2128.90  2295.84  2369.04
                             4307.82  4379.82  4426.44  4470.51  4485.16

 Zero-point correction=                           0.108106 (Hartree/Particle)
 Thermal correction to Energy=                    0.119113
 Thermal correction to Enthalpy=                  0.120057
 Thermal correction to Gibbs Free Energy=         0.070620
 Sum of electronic and zero-point Energies=           -993.763485
 Sum of electronic and thermal Energies=              -993.752477
 Sum of electronic and thermal Enthalpies=            -993.751533
 Sum of electronic and thermal Free Energies=         -993.800970

                     E (Thermal)             CV                S
                      KCal/Mol        Cal/Mol-Kelvin    Cal/Mol-Kelvin
 Total                   74.745             40.175            104.050
 Electronic               0.000              0.000              0.000
 Translational            0.889              2.981             41.535
 Rotational               0.889              2.981             31.016
 Vibrational             72.967             34.213             31.498
 Vibration     1          0.595              1.977              4.783
 Vibration     2          0.599              1.964              3.937
 Vibration     3          0.607              1.939              3.219
 Vibration     4          0.619              1.899              2.636
 Vibration     5          0.629              1.866              2.323
 Vibration     6          0.645              1.818              1.999
 Vibration     7          0.654              1.790              1.855
 Vibration     8          0.692              1.674              1.419
 Vibration     9          0.704              1.642              1.327
 Vibration    10          0.715              1.608              1.242
 Vibration    11          0.759              1.488              0.993
 Vibration    12          0.808              1.362              0.797
 Vibration    13          0.835              1.297              0.714
 Vibration    14          0.853              1.256              0.665
 Vibration    15          0.909              1.132              0.537
 Vibration    16          0.933              1.081              0.491

                           ! Non-Optimized Parameters !
 Normal termination of Gaussian 16 at Sun Dec 17 21:30:24 2023.
