 Q-Chem 5.4, Q-Chem, Inc., Pleasanton, CA (2021)
 Q-Chem 5.4.0 for Intel X86 EM64T Linux

User input:
--------------------------------------------------------------
$molecule
-1 2
C                 -0.3038570000      1.1747840000     -0.2733370000
C                 -1.3689470000      0.3007860000     -0.7430280000
C                 -1.3104270000     -1.0574160000     -0.6541120000
C                 -0.1716090000     -1.7565660000     -0.0786180000
C                  0.8941540000     -0.9099310000      0.3925660000
C                  0.8438250000      0.4737450000      0.3064090000
O                 -0.3735040000      2.4214770000     -0.3624900000
O                 -0.1244590000     -3.0162220000      0.0005430000
C                  1.9381580000      1.2470580000      0.7945160000
N                  2.8465690000      1.8414020000      1.2016070000
H                 -2.2299390000      0.8010080000     -1.1768840000
H                 -2.1252490000     -1.6788700000     -1.0155380000
H                  1.7584050000     -1.4005860000      0.8274060000
$end

$rem
BASIS  =  6-311++G(d,p)
GUI  =  2
JOB_TYPE  =  SP
METHOD  =  B3LYP
SCF_CONVERGENCE  = 8
SOLVENT_METHOD = sm12
$end

$smx
solvent dimethylformamide
charges CM5
$end

--------------------------------------------------------------

             Standard Nuclear Orientation (Angstroms)
    I     Atom           X                Y                Z
 ----------------------------------------------------------------
    1      C      -0.3038570000     1.1747840000    -0.2733370000
    2      C      -1.3689470000     0.3007860000    -0.7430280000
    3      C      -1.3104270000    -1.0574160000    -0.6541120000
    4      C      -0.1716090000    -1.7565660000    -0.0786180000
    5      C       0.8941540000    -0.9099310000     0.3925660000
    6      C       0.8438250000     0.4737450000     0.3064090000
    7      O      -0.3735040000     2.4214770000    -0.3624900000
    8      O      -0.1244590000    -3.0162220000     0.0005430000
    9      C       1.9381580000     1.2470580000     0.7945160000
   10      N       2.8465690000     1.8414020000     1.2016070000
   11      H      -2.2299390000     0.8010080000    -1.1768840000
   12      H      -2.1252490000    -1.6788700000    -1.0155380000
   13      H       1.7584050000    -1.4005860000     0.8274060000
 ----------------------------------------------------------------

   18    -473.9248325604      7.27e-09  Convergence criterion met
 Total energy in the final basis set =     -474.0029719052

                    Orbital Energies (a.u.)
 --------------------------------------------------------------

 Alpha MOs
 -- Occupied --
-19.0965 -19.0944 -14.3280 -10.2495 -10.2380 -10.2314 -10.2151 -10.1978
-10.1891 -10.1877  -1.0227  -1.0139  -0.9288  -0.8516  -0.7847  -0.7135
 -0.6508  -0.6061  -0.5254  -0.4998  -0.4834  -0.4493  -0.4364  -0.4220
 -0.4036  -0.3956  -0.3947  -0.3846  -0.3782  -0.3561  -0.3001  -0.2837
 -0.2595  -0.2550  -0.1853

 Beta MOs
 -- Occupied --
-19.0901 -19.0860 -14.3274 -10.2490 -10.2375 -10.2315 -10.2139 -10.1950
-10.1887 -10.1869  -1.0119  -0.9994  -0.9277  -0.8453  -0.7820  -0.7030
 -0.6468  -0.6024  -0.5215  -0.4977  -0.4797  -0.4474  -0.4220  -0.4147
 -0.4000  -0.3920  -0.3827  -0.3765  -0.3606  -0.3551  -0.2748  -0.2651
 -0.2533  -0.2473

          Ground-State Mulliken Net Atomic Charges

     Atom                 Charge (a.u.)    Spin (a.u.)
  --------------------------------------------------------
      1 C                    -1.766323       0.009043
      2 C                     0.837288       0.069683
      3 C                     0.651970       0.037411
      4 C                    -0.510644       0.058868
      5 C                    -0.217553       0.200725
      6 C                     1.972968       0.076926
      7 O                    -0.387577       0.232203
      8 O                    -0.363371       0.301443
      9 C                    -1.603591       0.002571
     10 N                    -0.475422       0.033238
     11 H                     0.308792      -0.004951
     12 H                     0.303854      -0.003086
     13 H                     0.249610      -0.014075
  --------------------------------------------------------
  Sum of atomic charges =    -1.000000

                    Cartesian Multipole Moments
 -----------------------------------------------------------------
    Charge (ESU x 10^10)
                -4.8032
    Dipole Moment (Debye)
         X      -4.2391      Y      -2.1557      Z      -1.5659
       Tot       5.0069
    Quadrupole Moments (Debye-Ang)
        XX     -73.7522     XY      -9.7760     YY    -100.6569
        XZ      -5.7183     YZ      -2.6911     ZZ     -62.6851

 Total job time:  139.28s(wall), 972.72s(cpu)
        *  Thank you very much for using Q-Chem.  Have a nice day.  *
