 Q-Chem 5.4, Q-Chem, Inc., Pleasanton, CA (2021)
 Q-Chem 5.4.0 for Intel X86 EM64T Linux

User input:
--------------------------------------------------------------
$molecule
-2 1
C                 -3.1564300000     -3.2101950000     -0.9354310000
C                 -2.1401340000     -2.1708650000     -0.9729510000
C                 -2.4889360000     -0.8292320000     -0.7311020000
C                 -3.8066580000     -0.3631610000     -0.4247160000
C                 -4.7957540000     -1.4125850000     -0.3901270000
C                 -4.4842130000     -2.7350020000     -0.6335800000
O                 -2.9241790000     -4.4575380000     -1.1309870000
O                 -4.0972020000      0.8742870000     -0.2147860000
C                 -0.7160980000     -2.4917090000     -1.1973390000
C                 -0.0820070000     -3.4721540000     -2.0676890000
C                  0.3308540000     -1.7961350000     -0.6257490000
C                  1.3294160000     -3.2784220000     -1.9887170000
N                  1.5539110000     -2.2553440000     -1.1000520000
C                 -0.5643760000     -4.4781000000     -2.9222710000
C                  0.3386260000     -5.2310120000     -3.6650480000
C                  1.7301060000     -5.0187410000     -3.5681140000
C                  2.2427000000     -4.0421450000     -2.7235990000
H                 -1.7222390000     -0.0615620000     -0.8120900000
H                 -5.8215490000     -1.1165910000     -0.1703940000
H                 -5.2582200000     -3.5006780000     -0.5955180000
H                  0.2938130000     -0.9891670000      0.0888570000
H                  2.4599030000     -1.9009310000     -0.8339520000
H                 -1.6294410000     -4.6750900000     -2.9306060000
H                 -0.0318290000     -6.0146800000     -4.3207530000
H                  2.4129640000     -5.6277680000     -4.1546440000
H                  3.3140100000     -3.8716020000     -2.6423940000
$end

$rem
BASIS  =  6-311++G(d,p)
GUI  =  2
JOB_TYPE  =  SP
METHOD  =  B3LYP
SCF_CONVERGENCE  = 8
SOLVENT_METHOD = sm12
$end

$smx
solvent dimethylformamide
charges CM5
$end

--------------------------------------------------------------

             Standard Nuclear Orientation (Angstroms)
    I     Atom           X                Y                Z
 ----------------------------------------------------------------
    1      C      -3.1564300000    -3.2101950000    -0.9354310000
    2      C      -2.1401340000    -2.1708650000    -0.9729510000
    3      C      -2.4889360000    -0.8292320000    -0.7311020000
    4      C      -3.8066580000    -0.3631610000    -0.4247160000
    5      C      -4.7957540000    -1.4125850000    -0.3901270000
    6      C      -4.4842130000    -2.7350020000    -0.6335800000
    7      O      -2.9241790000    -4.4575380000    -1.1309870000
    8      O      -4.0972020000     0.8742870000    -0.2147860000
    9      C      -0.7160980000    -2.4917090000    -1.1973390000
   10      C      -0.0820070000    -3.4721540000    -2.0676890000
   11      C       0.3308540000    -1.7961350000    -0.6257490000
   12      C       1.3294160000    -3.2784220000    -1.9887170000
   13      N       1.5539110000    -2.2553440000    -1.1000520000
   14      C      -0.5643760000    -4.4781000000    -2.9222710000
   15      C       0.3386260000    -5.2310120000    -3.6650480000
   16      C       1.7301060000    -5.0187410000    -3.5681140000
   17      C       2.2427000000    -4.0421450000    -2.7235990000
   18      H      -1.7222390000    -0.0615620000    -0.8120900000
   19      H      -5.8215490000    -1.1165910000    -0.1703940000
   20      H      -5.2582200000    -3.5006780000    -0.5955180000
   21      H       0.2938130000    -0.9891670000     0.0888570000
   22      H       2.4599030000    -1.9009310000    -0.8339520000
   23      H      -1.6294410000    -4.6750900000    -2.9306060000
   24      H      -0.0318290000    -6.0146800000    -4.3207530000
   25      H       2.4129640000    -5.6277680000    -4.1546440000
   26      H       3.3140100000    -3.8716020000    -2.6423940000
 ----------------------------------------------------------------

   32    -744.2350591089      8.81e-10  Convergence criterion met
 Total energy in the final basis set =     -744.5514731857

                    Orbital Energies (a.u.)
 --------------------------------------------------------------

 Alpha MOs
 -- Occupied --
-19.0214 -19.0193 -14.3645 -10.2139 -10.2044 -10.1863 -10.1842 -10.1827
-10.1824 -10.1776 -10.1749 -10.1740 -10.1719 -10.1519 -10.1454 -10.1442
-10.1377  -0.9876  -0.9403  -0.9354  -0.8497  -0.8075  -0.7821  -0.7443
 -0.7381  -0.7073  -0.6568  -0.6320  -0.6080  -0.5982  -0.5641  -0.5507
 -0.5261  -0.4875  -0.4802  -0.4527  -0.4451  -0.4382  -0.4354  -0.4300
 -0.4249  -0.4017  -0.3942  -0.3720  -0.3633  -0.3627  -0.3490  -0.3459
 -0.3361  -0.3333  -0.3186  -0.2929  -0.2480  -0.2369  -0.2346  -0.2033
 -0.1978  -0.1943  -0.1232

          Ground-State Mulliken Net Atomic Charges

     Atom                 Charge (a.u.)
  ----------------------------------------
      1 C                    -1.903227
      2 C                     1.446149
      3 C                    -2.807391
      4 C                    -1.160044
      5 C                    -0.898093
      6 C                    -0.365948
      7 O                    -0.287691
      8 O                    -0.416933
      9 C                    -3.274567
     10 C                    -0.511919
     11 C                     1.609407
     12 C                     1.990016
     13 N                     0.219244
     14 C                    -2.999501
     15 C                     0.489889
     16 C                     1.968879
     17 C                     2.843051
     18 H                    -0.182318
     19 H                    -0.008034
     20 H                     0.017370
     21 H                     0.461551
     22 H                     0.644041
     23 H                    -0.080519
     24 H                     0.338857
     25 H                     0.468626
     26 H                     0.399107
  ----------------------------------------
  Sum of atomic charges =    -2.000000

                    Cartesian Multipole Moments
 -----------------------------------------------------------------
    Charge (ESU x 10^10)
                -9.6064
    Dipole Moment (Debye)
         X      33.6280      Y      18.7422      Z       8.5160
       Tot      39.4288
    Quadrupole Moments (Debye-Ang)
        XX    -228.1281     XY     -43.6783     YY    -204.4790
        XZ     -16.4339     YZ     -26.3825     ZZ    -125.6108

 Total job time:  1038.78s(wall), 8065.00s(cpu)
        *  Thank you very much for using Q-Chem.  Have a nice day.  *
