 Gaussian 16, Revision A.03,
 Gaussian 16:  ES64L-G16RevA.03 25-Dec-2016

 --------------------------------------
 #P UB3LYP/6-311++G(d,p) nosym opt freq
 --------------------------------------

 -------
 Reduced
 -------
 Symbolic Z-matrix:
 Charge = -2 Multiplicity = 1

 SCF Done:  E(UB3LYP) =  -744.265212307     A.U. after   49 cycles
 Optimization completed.
    -- Stationary point found.
 Normal termination of Gaussian 16 at Wed Jan 10 18:05:57 2024.

 ----------------------------------------------------------------------
 #P Geom=AllCheck Guess=TCheck SCRF=Check GenChk UB3LYP/6-311++G(d,p) F
 req
 ----------------------------------------------------------------------

 Structure from the checkpoint file:  "114-an.chk"
 -------
 Reduced
 -------
 Charge = -2 Multiplicity = 1

                          Input orientation:
 ---------------------------------------------------------------------
 Center     Atomic      Atomic             Coordinates (Angstroms)
 Number     Number       Type             X           Y           Z
 ---------------------------------------------------------------------
      1          6           0       -3.156430   -3.210195   -0.935431
      2          6           0       -2.140134   -2.170865   -0.972951
      3          6           0       -2.488936   -0.829232   -0.731102
      4          6           0       -3.806658   -0.363161   -0.424716
      5          6           0       -4.795754   -1.412585   -0.390127
      6          6           0       -4.484213   -2.735002   -0.633580
      7          8           0       -2.924179   -4.457538   -1.130987
      8          8           0       -4.097202    0.874287   -0.214786
      9          6           0       -0.716098   -2.491709   -1.197339
     10          6           0       -0.082007   -3.472154   -2.067689
     11          6           0        0.330854   -1.796135   -0.625749
     12          6           0        1.329416   -3.278422   -1.988717
     13          7           0        1.553911   -2.255344   -1.100052
     14          6           0       -0.564376   -4.478100   -2.922271
     15          6           0        0.338626   -5.231012   -3.665048
     16          6           0        1.730106   -5.018741   -3.568114
     17          6           0        2.242700   -4.042145   -2.723599
     18          1           0       -1.722239   -0.061562   -0.812090
     19          1           0       -5.821549   -1.116591   -0.170394
     20          1           0       -5.258220   -3.500678   -0.595518
     21          1           0        0.293813   -0.989167    0.088857
     22          1           0        2.459903   -1.900931   -0.833952
     23          1           0       -1.629441   -4.675090   -2.930606
     24          1           0       -0.031829   -6.014680   -4.320753
     25          1           0        2.412964   -5.627768   -4.154644
     26          1           0        3.314010   -3.871602   -2.642394
 ---------------------------------------------------------------------

 SCF Done:  E(UB3LYP) =  -744.265212307     A.U. after    3 cycles

 Alpha  occ. eigenvalues --  -18.79618 -18.79103 -14.14672  -9.99726  -9.98169
 Alpha  occ. eigenvalues --   -9.97192  -9.97107  -9.96162  -9.95676  -9.95473
 Alpha  occ. eigenvalues --   -9.95395  -9.94910  -9.94798  -9.91893  -9.90763
 Alpha  occ. eigenvalues --   -9.90643  -9.89908  -0.76945  -0.71194  -0.70163
 Alpha  occ. eigenvalues --   -0.63438  -0.58298  -0.55204  -0.52926  -0.51533
 Alpha  occ. eigenvalues --   -0.47712  -0.42286  -0.41682  -0.38618  -0.37570
 Alpha  occ. eigenvalues --   -0.33430  -0.32862  -0.29943  -0.27218  -0.26315
 Alpha  occ. eigenvalues --   -0.23028  -0.22268  -0.21520  -0.20749  -0.20261
 Alpha  occ. eigenvalues --   -0.19097  -0.18407  -0.15771  -0.15257  -0.13586
 Alpha  occ. eigenvalues --   -0.13132  -0.12840  -0.12342  -0.10272  -0.09639
 Alpha  occ. eigenvalues --   -0.08464  -0.06940  -0.02102  -0.01802   0.00241
 Alpha  occ. eigenvalues --    0.02720   0.03340   0.03698   0.11824
 Alpha virt. eigenvalues --    0.13155   0.14391   0.16082   0.17583   0.18022
 Alpha virt. eigenvalues --    0.18322   0.19789   0.19971   0.21281   0.21483
 Alpha virt. eigenvalues --    0.22188   0.22685   0.23414   0.23869   0.24936

  Beta  occ. eigenvalues --  -18.79618 -18.79103 -14.14672  -9.99726  -9.98169
  Beta  occ. eigenvalues --   -9.97192  -9.97107  -9.96162  -9.95676  -9.95473
  Beta  occ. eigenvalues --   -9.95395  -9.94910  -9.94798  -9.91893  -9.90763
  Beta  occ. eigenvalues --   -9.90643  -9.89908  -0.76945  -0.71194  -0.70163
  Beta  occ. eigenvalues --   -0.63438  -0.58298  -0.55204  -0.52926  -0.51533
  Beta  occ. eigenvalues --   -0.47712  -0.42286  -0.41682  -0.38618  -0.37570
  Beta  occ. eigenvalues --   -0.33430  -0.32862  -0.29943  -0.27218  -0.26315
  Beta  occ. eigenvalues --   -0.23028  -0.22268  -0.21520  -0.20749  -0.20261
  Beta  occ. eigenvalues --   -0.19097  -0.18407  -0.15771  -0.15257  -0.13586
  Beta  occ. eigenvalues --   -0.13132  -0.12840  -0.12342  -0.10272  -0.09639
  Beta  occ. eigenvalues --   -0.08464  -0.06940  -0.02102  -0.01802   0.00241
  Beta  occ. eigenvalues --    0.02720   0.03340   0.03698   0.11824
  Beta virt. eigenvalues --    0.13155   0.14391   0.16082   0.17583   0.18022
  Beta virt. eigenvalues --    0.18322   0.19789   0.19971   0.21281   0.21483
  Beta virt. eigenvalues --    0.22188   0.22685   0.23414   0.23869   0.24936

 Mulliken charges and spin densities:
               1          2
     1  C   -1.528084   0.000000
     2  C    1.564241   0.000000
     3  C   -0.498353  -0.000000
     4  C   -0.798030   0.000000
     5  C    0.089061   0.000000
     6  C    0.301596  -0.000000
     7  O   -0.474025   0.000000
     8  O   -0.535051   0.000000
     9  C    0.946955  -0.000000
    10  C    1.899917  -0.000000
    11  C   -0.320432   0.000000
    12  C    0.525433  -0.000000
    13  N   -0.195082   0.000000
    14  C   -1.094885   0.000000
    15  C   -0.852987  -0.000000
    16  C    0.608760   0.000000
    17  C   -0.547628   0.000000
    18  H    0.089791   0.000000
    19  H    0.086156   0.000000
    20  H    0.094783  -0.000000
    21  H    0.034656   0.000000
    22  H   -0.186386   0.000000
    23  H    0.185433   0.000000
    24  H    0.103349  -0.000000
    25  H   -0.136866  -0.000000
    26  H   -1.362322  -0.000000
 Sum of Mulliken charges =  -2.00000  -0.00000

 Dipole moment (field-independent basis, Debye):
    X=             14.5124    Y=             22.3154    Z=             11.9334  Tot=             29.1718
 Quadrupole moment (field-independent basis, Debye-Ang):
   XX=           -239.1275   YY=           -224.7326   ZZ=           -144.3304
   XY=              4.7451   XZ=             10.0925   YZ=            -45.2521

  Exact polarizability:1619.663-312.2251069.634-314.431 792.750 892.275
 Approx polarizability:****************1303.544******** 895.5681049.827

                      1                      2                      3
                      A                      A                      A
 Frequencies --     37.4139                76.7348                93.8017
 Red. masses --      7.4088                 4.2915                 5.9212
 Frc consts  --      0.0061                 0.0149                 0.0307
 IR Inten    --      1.9066                 3.9619                 6.5079

                      4                      5                      6
                      A                      A                      A
 Frequencies --    138.1828               174.7622               210.2844
 Red. masses --      9.0782                 3.9201                 5.7908
 Frc consts  --      0.1021                 0.0705                 0.1509
 IR Inten    --     10.6752                11.7662                 1.8673

                      7                      8                      9
                      A                      A                      A
 Frequencies --    216.5184               245.9676               276.1329
 Red. masses --      3.3743                 2.6658                 8.0701
 Frc consts  --      0.0932                 0.0950                 0.3625
 IR Inten    --      1.2619                 1.3412                 6.7730

                     10                     11                     12
                      A                      A                      A
 Frequencies --    332.0865               368.0911               404.3486
 Red. masses --      4.6965                 2.8849                 8.7351
 Frc consts  --      0.3052                 0.2303                 0.8415
 IR Inten    --      3.7809                 0.2641                80.4160

                     13                     14                     15
                      A                      A                      A
 Frequencies --    431.8558               456.1155               464.9413
 Red. masses --      2.9445                 3.9651                 9.6031
 Frc consts  --      0.3235                 0.4860                 1.2231
 IR Inten    --     13.6638                43.9870               764.1505

                     16                     17                     18
                      A                      A                      A
 Frequencies --    484.7816               548.9308               568.1502
 Red. masses --      3.2909                 5.8177                 3.9181
 Frc consts  --      0.4557                 1.0328                 0.7452
 IR Inten    --     26.0433                 6.8490                12.2468

                     19                     20                     21
                      A                      A                      A
 Frequencies --    588.2571               600.3328               631.8016
 Red. masses --      3.4666                 3.3641                 5.9462
 Frc consts  --      0.7068                 0.7143                 1.3985
 IR Inten    --     18.8868                 3.0204                27.9528

                     22                     23                     24
                      A                      A                      A
 Frequencies --    650.5904               684.7282               733.0328
 Red. masses --      2.6265                 6.0944                 2.2482
 Frc consts  --      0.6550                 1.6835                 0.7118
 IR Inten    --     25.9602                34.7504                 6.2518

                     25                     26                     27
                      A                      A                      A
 Frequencies --    737.0902               764.6738               773.9675
 Red. masses --      1.4790                 1.7677                 5.1576
 Frc consts  --      0.4734                 0.6090                 1.8203
 IR Inten    --     12.4752                 8.6035                36.0308

                     28                     29                     30
                      A                      A                      A
 Frequencies --    779.3984               813.9145               819.5933
 Red. masses --      2.7507                 2.7964                 4.8106
 Frc consts  --      0.9845                 1.0914                 1.9039
 IR Inten    --     30.5629                33.5910                27.9977

                     31                     32                     33
                      A                      A                      A
 Frequencies --    845.3643               850.4817               862.6324
 Red. masses --      1.9978                 1.4307                 4.3973
 Frc consts  --      0.8412                 0.6097                 1.9279
 IR Inten    --      5.4591               144.3933                80.7686

                     34                     35                     36
                      A                      A                      A
 Frequencies --    886.0972               910.5754               944.1753
 Red. masses --      5.2044                 1.2961                 1.2828
 Frc consts  --      2.4076                 0.6332                 0.6738
 IR Inten    --     18.4639                 1.8717               218.6843

                     37                     38                     39
                      A                      A                      A
 Frequencies --    956.3298               984.7897              1026.0587
 Red. masses --      1.3363                 2.9538                 2.0943
 Frc consts  --      0.7201                 1.6878                 1.2991
 IR Inten    --     55.0657                16.9987                63.1658

                     40                     41                     42
                      A                      A                      A
 Frequencies --   1069.4586              1083.4519              1104.6326
 Red. masses --      2.5244                 1.6380                 1.7548
 Frc consts  --      1.7011                 1.1329                 1.2616
 IR Inten    --    171.8625               197.8548               270.9517

                     43                     44                     45
                      A                      A                      A
 Frequencies --   1141.4542              1163.6729              1184.0458
 Red. masses --      1.4364                 1.1704                 2.7256
 Frc consts  --      1.1027                 0.9338                 2.2514
 IR Inten    --    245.7399                19.4071               102.2400

                     46                     47                     48
                      A                      A                      A
 Frequencies --   1224.6204              1245.6605              1260.4254
 Red. masses --      1.5786                 2.0599                 2.3256
 Frc consts  --      1.3948                 1.8832                 2.1768
 IR Inten    --    536.2888                17.7156                28.8054

                     49                     50                     51
                      A                      A                      A
 Frequencies --   1302.1504              1318.8034              1335.8220
 Red. masses --      2.4826                 2.5398                 2.3678
 Frc consts  --      2.4802                 2.6026                 2.4894
 IR Inten    --    106.3653                18.5164               130.8190

                     52                     53                     54
                      A                      A                      A
 Frequencies --   1361.7114              1391.7136              1409.9446
 Red. masses --      5.3304                 8.3245                 4.6761
 Frc consts  --      5.8235                 9.4997                 5.4770
 IR Inten    --      2.1999              1604.1756               697.7165

                     55                     56                     57
                      A                      A                      A
 Frequencies --   1441.9207              1461.2664              1470.6571
 Red. masses --      2.7776                 4.1390                 3.0300
 Frc consts  --      3.4025                 5.2072                 3.8612
 IR Inten    --      6.9798                33.6227                57.9456

                     58                     59                     60
                      A                      A                      A
 Frequencies --   1486.9441              1509.1091              1542.0541
 Red. masses --      4.1093                 2.9083                 5.2958
 Frc consts  --      5.3532                 3.9024                 7.4197
 IR Inten    --    361.0711                22.0837                39.0987

                     61                     62                     63
                      A                      A                      A
 Frequencies --   1584.6022              1596.8913              1636.0109
 Red. masses --      5.8005                 5.7329                 6.0856
 Frc consts  --      8.5814                 8.6134                 9.5969
 IR Inten    --   3240.9584              1068.8301               128.7801

                     64                     65                     66
                      A                      A                      A
 Frequencies --   3086.5652              3114.0424              3118.0275
 Red. masses --      1.0836                 1.0923                 1.0841
 Frc consts  --      6.0824                 6.2407                 6.2098
 IR Inten    --     72.1606               437.4374                36.6793

                     67                     68                     69
                      A                      A                      A
 Frequencies --   3120.6191              3127.8673              3144.0263
 Red. masses --      1.0875                 1.0901                 1.0943
 Frc consts  --      6.2395                 6.2837                 6.3733
 IR Inten    --    236.6966               151.2665               320.9143

                     70                     71                     72
                      A                      A                      A
 Frequencies --   3189.1034              3242.9234              3592.3437
 Red. masses --      1.0937                 1.0945                 1.0795
 Frc consts  --      6.5540                 6.7818                 8.2075
 IR Inten    --     64.7408                 2.8167              2263.5582

 - Thermochemistry -
 -------------------
 Temperature   298.150 Kelvin.  Pressure   1.00000 Atm.
 Atom     1 has atomic number  6 and mass  12.00000

 Molecular mass:   223.06333 amu.
 Principal axes and moments of inertia in atomic units:
                           1         2         3
     Eigenvalues --  1641.938646195.978357476.46495
           X            0.80024   0.58265   0.14190
           Y           -0.48763   0.76997  -0.41155
           Z           -0.34904   0.26015   0.90027
 This molecule is an asymmetric top.
 Rotational symmetry number  1.
 Warning -- assumption of classical behavior for rotation
           may cause significant error
 Rotational temperatures (Kelvin)      0.05275     0.01398     0.01158
 Rotational constants (GHZ):           1.09915     0.29128     0.24139
 Zero-point vibrational energy     499055.3 (Joules/Mol)
                                  119.27707 (Kcal/Mol)
 Warning -- explicit consideration of  20 degrees of freedom as
           vibrations may cause significant error
 Vibrational temperatures:     53.83   110.40   134.96   198.81   251.44
          (Kelvin)            302.55   311.52   353.89   397.29   477.80
                              529.60   581.77   621.34   656.25   668.95
                              697.49   789.79   817.44   846.37   863.75
                              909.02   936.05   985.17  1054.67  1060.51
                             1100.20  1113.57  1121.38  1171.04  1179.21
                             1216.29  1223.65  1241.14  1274.90  1310.11
                             1358.46  1375.95  1416.89  1476.27  1538.71
                             1558.85  1589.32  1642.30  1674.27  1703.58
                             1761.96  1792.23  1813.47  1873.50  1897.46
                             1921.95  1959.20  2002.37  2028.60  2074.60
                             2102.44  2115.95  2139.38  2171.27  2218.67
                             2279.89  2297.57  2353.85  4440.88  4480.41
                             4486.15  4489.87  4500.30  4523.55  4588.41
                             4665.84  5168.58

 Zero-point correction=                           0.190080 (Hartree/Particle)
 Thermal correction to Energy=                    0.203080
 Thermal correction to Enthalpy=                  0.204024
 Thermal correction to Gibbs Free Energy=         0.150225
 Sum of electronic and zero-point Energies=           -744.075132
 Sum of electronic and thermal Energies=              -744.062132
 Sum of electronic and thermal Enthalpies=            -744.061188
 Sum of electronic and thermal Free Energies=         -744.114988

                     E (Thermal)             CV                S
                      KCal/Mol        Cal/Mol-Kelvin    Cal/Mol-Kelvin
 Total                  127.435             52.501            113.231
 Electronic               0.000              0.000              0.000
 Translational            0.889              2.981             42.109
 Rotational               0.889              2.981             32.697
 Vibrational            125.657             46.539             38.425
 Vibration     1          0.594              1.982              5.392
 Vibration     2          0.599              1.965              3.973
 Vibration     3          0.603              1.954              3.579
 Vibration     4          0.614              1.915              2.829
 Vibration     5          0.627              1.873              2.384
 Vibration     6          0.642              1.825              2.041
 Vibration     7          0.645              1.816              1.988
 Vibration     8          0.660              1.769              1.759
 Vibration     9          0.678              1.718              1.558
 Vibration    10          0.714              1.611              1.250
 Vibration    11          0.741              1.538              1.088
 Vibration    12          0.770              1.461              0.947
 Vibration    13          0.793              1.401              0.853
 Vibration    14          0.814              1.347              0.777
 Vibration    15          0.822              1.328              0.752
 Vibration    16          0.841              1.284              0.697
 Vibration    17          0.904              1.142              0.546
 Vibration    18          0.924              1.100              0.508
 Vibration    19          0.945              1.057              0.470
 Vibration    20          0.958              1.031              0.449

                           ! Non-Optimized Parameters !
 Normal termination of Gaussian 16 at Wed Jan 10 19:24:24 2024.
