 Q-Chem 5.4, Q-Chem, Inc., Pleasanton, CA (2021)
 Q-Chem 5.4.0 for Intel X86 EM64T Linux

User input:
--------------------------------------------------------------
$molecule
0 1
C                 -1.3010380000      2.0391240000      0.5582730000
C                 -2.6162510000      1.3963040000      0.2175340000
C                 -2.6964830000      0.1630750000     -0.2984740000
C                 -1.4775300000     -0.6383320000     -0.5618950000
C                 -0.1662460000     -0.0349590000     -0.2374800000
C                 -0.0834270000      1.1982830000      0.2785650000
O                 -1.5555160000     -1.7604670000     -1.0318090000
H                 -3.6398960000     -0.3067520000     -0.5465830000
O                 -1.2195490000      3.1490120000      1.0230870000
Cl                 1.4374260000      1.9291220000      0.6676510000
Br                -4.1600940000      2.4379230000      0.5626360000
H                  0.7089130000     -0.6399610000     -0.4388340000
$end
$rem
MAX_SCF_CYCLES=200
BASIS  =  6-311++G(d,p)
GUI  =  2
JOB_TYPE  =  SP
METHOD  =  B3LYP
SOLVENT_METHOD = COSMO
$end
$solvent
dielectric 37.219
opticaldielectric 1.43
$end

--------------------------------------------------------------

             Standard Nuclear Orientation (Angstroms)
    I     Atom           X                Y                Z
 ----------------------------------------------------------------
    1      C       0.3415964582    -0.7867729180     0.0002473588
    2      C      -0.7137884698     0.2833992618     0.0001324776
    3      C      -0.4091189885     1.5875203082     0.0001258826
    4      C       1.0008520158     2.0452013845    -0.0000102393
    5      C       2.0646667030     1.0170632158    -0.0001338872
    6      C       1.7624671634    -0.2878209496    -0.0000217233
    7      O       1.2733325937     3.2334110746     0.0000840650
    8      H      -1.1634531049     2.3642465245     0.0001122908
    9      O       0.0762551754    -1.9632668093     0.0003544113
   10      Cl      2.9867110079    -1.5124573880    -0.0001201036
   11      Br     -2.5078144872    -0.3240440170    -0.0000952034
   12      H       3.0861215778     1.3763737283    -0.0002854373
 ----------------------------------------------------------------

   10   -3414.7174447388      4.17e-06  Convergence criterion met
 Total energy in the final basis set =    -3414.7174447388
    5   -3414.7304437162      6.61e-06  Convergence criterion met
 Total energy in the final basis set =    -3414.7304437162

                    Orbital Energies (a.u.)
 --------------------------------------------------------------

 Alpha MOs
 -- Occupied --
********-101.5831 -62.5084 -56.3290 -56.3251 -56.3247 -19.1664 -19.1556
-10.3190 -10.3039 -10.2832 -10.2761 -10.2268 -10.2259  -9.4976  -8.7172
 -7.2624  -7.2527  -7.2515  -6.5492  -6.5358  -6.5348  -2.6602  -2.6562
 -2.6554  -2.6450  -2.6450  -1.1042  -1.0865  -0.9193  -0.8824  -0.8232
 -0.7728  -0.7230  -0.6403  -0.6216  -0.5543  -0.5278  -0.4981  -0.4775
 -0.4743  -0.4656  -0.4514  -0.4402  -0.4242  -0.3908  -0.3624  -0.3447
 -0.3171  -0.3156  -0.3062  -0.2979  -0.2859

          Ground-State Mulliken Net Atomic Charges

     Atom                 Charge (a.u.)
  ----------------------------------------
      1 C                    -1.735848
      2 C                     1.021513
      3 C                    -0.104374
      4 C                    -0.416204
      5 C                    -0.324777
      6 C                     1.210866
      7 O                    -0.298713
      8 H                     0.297749
      9 O                    -0.168197
     10 Cl                    0.317987
     11 Br                   -0.074384
     12 H                     0.274382
  ----------------------------------------
  Sum of atomic charges =     0.000000

                    Cartesian Multipole Moments
 -----------------------------------------------------------------
    Charge (ESU x 10^10)
                 0.0000
    Dipole Moment (Debye)
         X       0.0753      Y       1.0943      Z      -0.0010
       Tot       1.0969
    Quadrupole Moments (Debye-Ang)
        XX     -70.5551     XY      -4.1101     YY     -93.4863
        XZ      -0.0003     YZ       0.0003     ZZ     -74.8798

 Total job time:  16.72s(wall), 115.83s(cpu)
        *  Thank you very much for using Q-Chem.  Have a nice day.  *
