 Gaussian 16, Revision A.03,
 Gaussian 16:  ES64L-G16RevA.03 25-Dec-2016

 --------------------------------------
 #P UB3LYP/6-311++G(d,p) nosym opt freq
 --------------------------------------

 --------
 Oxidized
 --------
 Symbolic Z-matrix:
 Charge =  0 Multiplicity = 1

 SCF Done:  E(UB3LYP) =  -3414.71954385     A.U. after   17 cycles
 SCF Done:  E(UB3LYP) =  -3414.71954356     A.U. after   10 cycles
 SCF Done:  E(UB3LYP) =  -3414.71954390     A.U. after    9 cycles
 Optimization completed.
    -- Stationary point found.
 Normal termination of Gaussian 16 at Sat Jan  6 05:39:56 2024.

 ----------------------------------------------------------------------
 #P Geom=AllCheck Guess=TCheck SCRF=Check GenChk UB3LYP/6-311++G(d,p) F
 req
 ----------------------------------------------------------------------

 Structure from the checkpoint file:  "008.chk"
 --------
 Oxidized
 --------
 Charge =  0 Multiplicity = 1

                          Input orientation:
 ---------------------------------------------------------------------
 Center     Atomic      Atomic             Coordinates (Angstroms)
 Number     Number       Type             X           Y           Z
 ---------------------------------------------------------------------
      1          6           0       -1.301038    2.039124    0.558273
      2          6           0       -2.616251    1.396304    0.217534
      3          6           0       -2.696483    0.163075   -0.298474
      4          6           0       -1.477530   -0.638332   -0.561895
      5          6           0       -0.166246   -0.034959   -0.237480
      6          6           0       -0.083427    1.198283    0.278565
      7          8           0       -1.555516   -1.760467   -1.031809
      8          1           0       -3.639896   -0.306752   -0.546583
      9          8           0       -1.219549    3.149012    1.023087
     10         17           0        1.437426    1.929122    0.667651
     11         35           0       -4.160094    2.437923    0.562636
     12          1           0        0.708913   -0.639961   -0.438834
 ---------------------------------------------------------------------

 SCF Done:  E(UB3LYP) =  -3414.71954390     A.U. after    2 cycles

 Alpha  occ. eigenvalues -- -482.86297-101.59008 -62.51564 -56.33617 -56.33220
 Alpha  occ. eigenvalues --  -56.33178 -19.17002 -19.15890 -10.32306 -10.30863
 Alpha  occ. eigenvalues --  -10.29352 -10.28650 -10.23857 -10.23770  -9.50452
 Alpha  occ. eigenvalues --   -8.72530  -7.26939  -7.25955  -7.25848  -6.55724
 Alpha  occ. eigenvalues --   -6.54397  -6.54272  -2.66810  -2.66450  -2.66356
 Alpha  occ. eigenvalues --   -2.65300  -2.65298  -1.10705  -1.08944  -0.92836
 Alpha  occ. eigenvalues --   -0.89195  -0.83202  -0.78315  -0.73162  -0.64972
 Alpha  occ. eigenvalues --   -0.63093  -0.56239  -0.53458  -0.50146  -0.48572
 Alpha  occ. eigenvalues --   -0.48251  -0.47329  -0.45618  -0.44466  -0.43243
 Alpha  occ. eigenvalues --   -0.39958  -0.36931  -0.35040  -0.32257  -0.31774
 Alpha  occ. eigenvalues --   -0.31372  -0.30085  -0.29583
 Alpha virt. eigenvalues --   -0.15911  -0.06148  -0.04504  -0.02517  -0.01191
 Alpha virt. eigenvalues --   -0.00432   0.00530   0.01843   0.03006   0.03099
 Alpha virt. eigenvalues --    0.05043   0.05509   0.05816   0.06925   0.06976

  Beta  occ. eigenvalues -- -482.86297-101.59008 -62.51564 -56.33617 -56.33220
  Beta  occ. eigenvalues --  -56.33178 -19.17002 -19.15890 -10.32306 -10.30863
  Beta  occ. eigenvalues --  -10.29352 -10.28650 -10.23857 -10.23770  -9.50452
  Beta  occ. eigenvalues --   -8.72530  -7.26939  -7.25955  -7.25848  -6.55724
  Beta  occ. eigenvalues --   -6.54397  -6.54272  -2.66810  -2.66450  -2.66356
  Beta  occ. eigenvalues --   -2.65300  -2.65298  -1.10705  -1.08944  -0.92836
  Beta  occ. eigenvalues --   -0.89195  -0.83202  -0.78315  -0.73162  -0.64972
  Beta  occ. eigenvalues --   -0.63093  -0.56239  -0.53458  -0.50146  -0.48572
  Beta  occ. eigenvalues --   -0.48251  -0.47329  -0.45618  -0.44466  -0.43243
  Beta  occ. eigenvalues --   -0.39958  -0.36931  -0.35040  -0.32257  -0.31774
  Beta  occ. eigenvalues --   -0.31372  -0.30085  -0.29583
  Beta virt. eigenvalues --   -0.15911  -0.06148  -0.04504  -0.02517  -0.01191
  Beta virt. eigenvalues --   -0.00432   0.00530   0.01843   0.03006   0.03099
  Beta virt. eigenvalues --    0.05043   0.05509   0.05816   0.06925   0.06976

 Mulliken charges and spin densities:
               1          2
     1  C   -1.463691   0.000000
     2  C    0.704411   0.000000
     3  C    0.036743  -0.000000
     4  C   -0.584117   0.000000
     5  C   -0.328544   0.000000
     6  C    1.139246  -0.000000
     7  O   -0.219512  -0.000000
     8  H    0.270763   0.000000
     9  O   -0.098765   0.000000
    10  Cl   0.348162   0.000000
    11  Br  -0.038745   0.000000
    12  H    0.234049  -0.000000
 Sum of Mulliken charges =  -0.00000   0.00000

 Dipole moment (field-independent basis, Debye):
    X=             -0.1669    Y=             -0.4831    Z=             -0.2093  Tot=              0.5523
 Quadrupole moment (field-independent basis, Debye-Ang):
   XX=            -70.1457   YY=            -89.2717   ZZ=            -77.4381
   XY=             -1.4981   XZ=             -0.3108   YZ=             -5.8903

  Exact polarizability: 124.746  -4.503 134.823   1.999  32.331  69.778
 Approx polarizability: 165.789   0.778 277.364   4.793  79.164 119.699

                      1                      2                      3
                      A                      A                      A
 Frequencies --     54.1517               126.6114               155.5885
 Red. masses --     17.4413                 9.9499                23.2829
 Frc consts  --      0.0301                 0.0940                 0.3321
 IR Inten    --      2.4993                 7.7381                 0.0341

                      4                      5                      6
                      A                      A                      A
 Frequencies --    167.8865               245.0871               273.2894
 Red. masses --      4.9394                17.0283                16.9691
 Frc consts  --      0.0820                 0.6026                 0.7467
 IR Inten    --      0.1551                 0.1139                 0.5959

                      7                      8                      9
                      A                      A                      A
 Frequencies --    300.1308               351.9459               441.3178
 Red. masses --      5.7801                18.3710                 8.3907
 Frc consts  --      0.3068                 1.3407                 0.9628
 IR Inten    --      0.2811                 1.4457                30.9490

                     10                     11                     12
                      A                      A                      A
 Frequencies --    442.2598               476.5099               624.8784
 Red. masses --      5.4906                13.2953                 5.7391
 Frc consts  --      0.6327                 1.7787                 1.3203
 IR Inten    --      0.0498                 0.4247                 1.5663

                     13                     14                     15
                      A                      A                      A
 Frequencies --    668.9782               741.1773               782.5372
 Red. masses --      3.9781                11.8207                10.8188
 Frc consts  --      1.0489                 3.8259                 3.9034
 IR Inten    --      0.7832               106.9202                 1.7969

                     16                     17                     18
                      A                      A                      A
 Frequencies --    782.5605               877.0160               884.6861
 Red. masses --      6.7189                 4.6529                 1.3261
 Frc consts  --      2.4243                 2.1086                 0.6115
 IR Inten    --      3.0086                 5.9780                 0.0758

                     19                     20                     21
                      A                      A                      A
 Frequencies --    920.4338              1016.7563              1132.5929
 Red. masses --      1.4999                 4.9838                 2.6465
 Frc consts  --      0.7487                 3.0356                 2.0002
 IR Inten    --     47.5918               132.9205                 1.0461

                     22                     23                     24
                      A                      A                      A
 Frequencies --   1274.3622              1292.2610              1314.4294
 Red. masses --      5.7335                 1.5239                 2.0940
 Frc consts  --      5.4860                 1.4994                 2.1316
 IR Inten    --    199.1485                28.3879                 6.9828

                     25                     26                     27
                      A                      A                      A
 Frequencies --   1620.6497              1661.5537              1715.2348
 Red. masses --      9.0262                 8.7812                11.0319
 Frc consts  --     13.9680                14.2835                19.1226
 IR Inten    --    139.6255                23.6889               278.5903

                     28                     29                     30
                      A                      A                      A
 Frequencies --   1761.1803              3204.5004              3205.2499
 Red. masses --     13.2410                 1.0933                 1.0941
 Frc consts  --     24.1980                 6.6146                 6.6224
 IR Inten    --    190.5134                 0.4451                 0.9487

 - Thermochemistry -
 -------------------
 Temperature   298.150 Kelvin.  Pressure   1.00000 Atm.
 Atom     1 has atomic number  6 and mass  12.00000

 Molecular mass:   219.89267 amu.
 Principal axes and moments of inertia in atomic units:
                           1         2         3
     Eigenvalues --  1523.550483403.755374927.30581
           X            0.95676   0.28617  -0.05208
           Y           -0.28381   0.87925  -0.38259
           Z           -0.06370   0.38083   0.92245
 This molecule is an asymmetric top.
 Rotational symmetry number  1.
 Warning -- assumption of classical behavior for rotation
           may cause significant error
 Rotational temperatures (Kelvin)      0.05685     0.02545     0.01758
 Rotational constants (GHZ):           1.18456     0.53022     0.36627
 Zero-point vibrational energy     170562.5 (Joules/Mol)
                                   40.76541 (Kcal/Mol)
 Warning -- explicit consideration of  11 degrees of freedom as
           vibrations may cause significant error
 Vibrational temperatures:     77.91   182.17   223.86   241.55   352.63
          (Kelvin)            393.20   431.82   506.37   634.96   636.31
                              685.59   899.06   962.51  1066.39  1125.90
                             1125.93  1261.83  1272.87  1324.30  1462.89
                             1629.55  1833.52  1859.28  1891.17  2331.75
                             2390.61  2467.84  2533.95  4610.56  4611.64

 Zero-point correction=                           0.064964 (Hartree/Particle)
 Thermal correction to Energy=                    0.073868
 Thermal correction to Enthalpy=                  0.074812
 Thermal correction to Gibbs Free Energy=         0.028814
 Sum of electronic and zero-point Energies=          -3414.654580
 Sum of electronic and thermal Energies=             -3414.645676
 Sum of electronic and thermal Enthalpies=           -3414.644732
 Sum of electronic and thermal Free Energies=        -3414.690730

                     E (Thermal)             CV                S
                      KCal/Mol        Cal/Mol-Kelvin    Cal/Mol-Kelvin
 Total                   46.353             31.170             96.811
 Electronic               0.000              0.000              0.000
 Translational            0.889              2.981             42.067
 Rotational               0.889              2.981             31.614
 Vibrational             44.575             25.209             23.131
 Vibration     1          0.596              1.976              4.660
 Vibration     2          0.611              1.927              2.997
 Vibration     3          0.620              1.896              2.603
 Vibration     4          0.625              1.882              2.459
 Vibration     5          0.660              1.771              1.766
 Vibration     6          0.676              1.723              1.575
 Vibration     7          0.693              1.673              1.416
 Vibration     8          0.728              1.571              1.157
 Vibration     9          0.801              1.380              0.822
 Vibration    10          0.802              1.378              0.820
 Vibration    11          0.833              1.302              0.720

 Optimization completed.
    -- Stationary point found.
 Normal termination of Gaussian 16 at Sat Jan  6 05:44:08 2024.
