 Q-Chem 5.4, Q-Chem, Inc., Pleasanton, CA (2021)
 Q-Chem 5.4.0 for Intel X86 EM64T Linux

User input:
--------------------------------------------------------------
$molecule
0 1
C                 -1.0743710000      1.5710550000      1.0141940000
C                 -2.3931890000      0.9035660000      0.9207090000
C                 -2.7191880000     -0.0453960000      0.0224490000
C                 -1.6521990000     -0.4540800000     -0.9603910000
C                 -0.3206070000      0.2018430000     -0.8860520000
C                 -0.0386070000      1.1411940000      0.0232270000
Br                 1.6586090000      1.9796260000      0.1212870000
C                 -4.0968450000     -0.7105610000     -0.0404350000
C                 -4.7429910000     -0.4406610000     -1.4229250000
C                 -5.0381760000     -0.1553040000      1.0443210000
C                 -3.9495720000     -2.2367020000      0.1849460000
O                 -0.8610750000      2.4202130000      1.8561760000
O                 -1.8335390000     -1.3026450000     -1.8177300000
H                 -3.0952980000      1.2586910000      1.6636740000
H                  0.3989410000     -0.1379210000     -1.6205880000
H                 -4.8529710000      0.6334400000     -1.5990070000
H                 -5.7413430000     -0.8865710000     -1.4476820000
H                 -4.1561560000     -0.8698630000     -2.2334360000
H                 -5.2116520000      0.9181510000      0.9281310000
H                 -4.6565010000     -0.3375430000      2.0527830000
H                 -6.0069160000     -0.6541910000      0.9653710000
H                 -3.3459190000     -2.7030670000     -0.5919800000
H                 -4.9402550000     -2.6999170000      0.1752400000
H                 -3.4934210000     -2.4450070000      1.1572280000
$end
$rem
MAX_SCF_CYCLES=200
BASIS  =  6-311++G(d,p)
GUI  =  2
JOB_TYPE  =  SP
METHOD  =  B3LYP
SOLVENT_METHOD = PCM
$end
$pcm
theory = CPCM
$end
$solvent
dielectric 37.219
opticaldielectric 1.43
$end

--------------------------------------------------------------

             Standard Nuclear Orientation (Angstroms)
    I     Atom           X                Y                Z
 ----------------------------------------------------------------
    1      C      -1.0743710000     1.5710550000     1.0141940000
    2      C      -2.3931890000     0.9035660000     0.9207090000
    3      C      -2.7191880000    -0.0453960000     0.0224490000
    4      C      -1.6521990000    -0.4540800000    -0.9603910000
    5      C      -0.3206070000     0.2018430000    -0.8860520000
    6      C      -0.0386070000     1.1411940000     0.0232270000
    7      Br      1.6586090000     1.9796260000     0.1212870000
    8      C      -4.0968450000    -0.7105610000    -0.0404350000
    9      C      -4.7429910000    -0.4406610000    -1.4229250000
   10      C      -5.0381760000    -0.1553040000     1.0443210000
   11      C      -3.9495720000    -2.2367020000     0.1849460000
   12      O      -0.8610750000     2.4202130000     1.8561760000
   13      O      -1.8335390000    -1.3026450000    -1.8177300000
   14      H      -3.0952980000     1.2586910000     1.6636740000
   15      H       0.3989410000    -0.1379210000    -1.6205880000
   16      H      -4.8529710000     0.6334400000    -1.5990070000
   17      H      -5.7413430000    -0.8865710000    -1.4476820000
   18      H      -4.1561560000    -0.8698630000    -2.2334360000
   19      H      -5.2116520000     0.9181510000     0.9281310000
   20      H      -4.6565010000    -0.3375430000     2.0527830000
   21      H      -6.0069160000    -0.6541910000     0.9653710000
   22      H      -3.3459190000    -2.7030670000    -0.5919800000
   23      H      -4.9402550000    -2.6999170000     0.1752400000
   24      H      -3.4934210000    -2.4450070000     1.1572280000
 ----------------------------------------------------------------

    9   -3112.4103608973      2.92e-06  Convergence criterion met
 Total energy in the final basis set =    -3112.4103608973

                    Orbital Energies (a.u.)
 --------------------------------------------------------------

 Alpha MOs
 -- Occupied --
******** -62.5041 -56.3247 -56.3208 -56.3204 -19.1505 -19.1475 -10.2990
-10.2954 -10.2655 -10.2224 -10.2191 -10.2071 -10.2037 -10.1591 -10.1585
-10.1585  -8.7129  -6.5445  -6.5316  -6.5306  -2.6554  -2.6518  -2.6512
 -2.6408  -2.6408  -1.0844  -1.0796  -0.8847  -0.8503  -0.8063  -0.7646
 -0.7103  -0.6903  -0.6886  -0.6405  -0.6133  -0.5570  -0.5363  -0.5039
 -0.4892  -0.4698  -0.4637  -0.4550  -0.4450  -0.4418  -0.4328  -0.4269
 -0.4067  -0.3885  -0.3820  -0.3684  -0.3600  -0.3565  -0.3425  -0.3389
 -0.3113  -0.3035  -0.2979  -0.2822  -0.2809

          Ground-State Mulliken Net Atomic Charges

     Atom                 Charge (a.u.)
  ----------------------------------------
      1 C                    -0.862037
      2 C                    -0.417838
      3 C                     1.215409
      4 C                    -0.594387
      5 C                    -0.478889
      6 C                     1.032068
      7 Br                   -0.108878
      8 C                     0.584737
      9 C                    -0.712413
     10 C                    -0.518212
     11 C                    -0.711242
     12 O                    -0.241368
     13 O                    -0.245492
     14 H                     0.266201
     15 H                     0.287801
     16 H                     0.156451
     17 H                     0.175531
     18 H                     0.174561
     19 H                     0.149895
     20 H                     0.150115
     21 H                     0.191482
     22 H                     0.174358
     23 H                     0.175641
     24 H                     0.156508
  ----------------------------------------
  Sum of atomic charges =     0.000000

                    Cartesian Multipole Moments
 -----------------------------------------------------------------
    Charge (ESU x 10^10)
                -0.0000
    Dipole Moment (Debye)
         X      -2.4943      Y      -1.4553      Z      -0.3955
       Tot       2.9147
    Quadrupole Moments (Debye-Ang)
        XX     -74.8319     XY      -0.6114     YY    -100.8979
        XZ      -4.8672     YZ     -10.2925     ZZ     -98.3254

 Total job time:  31.70s(wall), 230.78s(cpu)
        *  Thank you very much for using Q-Chem.  Have a nice day.  *
