 Gaussian 16, Revision A.03,
 Gaussian 16:  ES64L-G16RevA.03 25-Dec-2016

 ----------------------------------------------------------------------
 #P UB3LYP/6-311++G(d,p) nosym opt freq SCRF=(PCM,Solvent=n,n-DiMethylF
 ormamide)
 ----------------------------------------------------------------------

 --------
 Oxidized
 --------
 Symbolic Z-matrix:
 Charge =  0 Multiplicity = 1

 SCF Done:  E(UB3LYP) =  -842.858456657     A.U. after   14 cycles
 SCF Done:  E(UB3LYP) =  -842.858584410     A.U. after   10 cycles
 SCF Done:  E(UB3LYP) =  -842.858594818     A.U. after   11 cycles
 SCF Done:  E(UB3LYP) =  -842.858603478     A.U. after   10 cycles
 SCF Done:  E(UB3LYP) =  -842.858604473     A.U. after   10 cycles
 SCF Done:  E(UB3LYP) =  -842.858605217     A.U. after    9 cycles
 SCF Done:  E(UB3LYP) =  -842.858605954     A.U. after    9 cycles
 SCF Done:  E(UB3LYP) =  -842.858606433     A.U. after    9 cycles
 SCF Done:  E(UB3LYP) =  -842.858606604     A.U. after    9 cycles
 Optimization completed.
    -- Stationary point found.
 Normal termination of Gaussian 16 at Sat Feb 10 22:33:01 2024.

 ----------------------------------------------------------------------
 #P Geom=AllCheck Guess=TCheck SCRF=Check GenChk UB3LYP/6-311++G(d,p) F
 req
 ----------------------------------------------------------------------

 Structure from the checkpoint file:  "214.chk"
 --------
 Oxidized
 --------
 Charge =  0 Multiplicity = 1

                          Input orientation:
 ---------------------------------------------------------------------
 Center     Atomic      Atomic             Coordinates (Angstroms)
 Number     Number       Type             X           Y           Z
 ---------------------------------------------------------------------
      1          6           0        5.048438   -2.238937    0.732980
      2          6           0        5.882934   -1.410494   -0.009672
      3          6           0        5.343006   -0.560195   -0.977954
      4          6           0        3.667005   -2.226687    0.516666
      5          6           0        3.122834   -1.369639   -0.459062
      6          6           0        3.970192   -0.540789   -1.200590
      7          6           0        2.796356   -3.125155    1.326305
      8          6           0        1.328962   -3.080149    1.070262
      9          6           0        0.787548   -2.223012    0.094019
     10          6           0        1.655258   -1.328067   -0.716860
     11          6           0        0.483169   -3.908277    1.811549
     12          6           0       -0.594312   -2.218244   -0.117198
     13          6           0       -1.423142   -3.047334    0.627700
     14          8           0        3.270670   -3.872989    2.172108
     15          8           0        1.182711   -0.582129   -1.566185
     16          1           0        5.453117   -2.902810    1.486280
     17          1           0        6.952491   -1.425466    0.163728
     18          1           0        5.993321    0.085237   -1.556555
     19          1           0       -2.492590   -3.035807    0.446686
     20          1           0        3.538344    0.113091   -1.947518
     21          1           0        0.923804   -4.563740    2.553530
     22          1           0       -1.006041   -1.560855   -0.872499
     23          6           0       -0.897876   -3.905212    1.605596
     24          6           0       -1.806828   -4.780303    2.435095
     25          6           0       -2.286869   -4.067694    3.700912
     26          8           0       -3.143530   -4.969866    4.410801
     27          1           0       -1.283065   -5.694553    2.726798
     28          1           0       -2.681566   -5.072968    1.847762
     29          1           0       -2.830356   -3.153478    3.434364
     30          1           0       -1.428245   -3.786226    4.321879
     31          1           0       -3.447969   -4.532812    5.213502
 ---------------------------------------------------------------------

 SCF Done:  E(UB3LYP) =  -842.858606604     A.U. after    1 cycles

 Alpha  occ. eigenvalues --  -19.13385 -19.13267 -19.13165 -10.28494 -10.28412
 Alpha  occ. eigenvalues --  -10.22657 -10.21077 -10.21028 -10.21022 -10.20976
 Alpha  occ. eigenvalues --  -10.20844 -10.20026 -10.19981 -10.19926 -10.19915
 Alpha  occ. eigenvalues --  -10.19904 -10.19792 -10.19746 -10.18350  -1.06578
 Alpha  occ. eigenvalues --   -1.06361  -1.03214  -0.89698  -0.88543  -0.82518
 Alpha  occ. eigenvalues --   -0.79365  -0.78039  -0.77652  -0.74591  -0.69075
 Alpha  occ. eigenvalues --   -0.67091  -0.64891  -0.62399  -0.61153  -0.58820
 Alpha  occ. eigenvalues --   -0.56225  -0.55236  -0.52546  -0.50841  -0.49850
 Alpha  occ. eigenvalues --   -0.48839  -0.47092  -0.46996  -0.45896  -0.45704
 Alpha  occ. eigenvalues --   -0.45351  -0.44980  -0.44303  -0.43447  -0.43157
 Alpha  occ. eigenvalues --   -0.41990  -0.39389  -0.39113  -0.38283  -0.37344
 Alpha  occ. eigenvalues --   -0.37121  -0.36877  -0.36168  -0.34979  -0.29189
 Alpha  occ. eigenvalues --   -0.28949  -0.28913  -0.28118  -0.27798  -0.27731
 Alpha  occ. eigenvalues --   -0.27229
 Alpha virt. eigenvalues --   -0.12042  -0.07620  -0.03831  -0.02866  -0.00804
 Alpha virt. eigenvalues --   -0.00319   0.00521   0.01010   0.01556   0.01844
 Alpha virt. eigenvalues --    0.02718   0.03173   0.03489   0.03532   0.03816

  Beta  occ. eigenvalues --  -19.13385 -19.13267 -19.13165 -10.28494 -10.28412
  Beta  occ. eigenvalues --  -10.22657 -10.21077 -10.21028 -10.21022 -10.20976
  Beta  occ. eigenvalues --  -10.20844 -10.20026 -10.19981 -10.19926 -10.19915
  Beta  occ. eigenvalues --  -10.19904 -10.19792 -10.19746 -10.18350  -1.06578
  Beta  occ. eigenvalues --   -1.06361  -1.03214  -0.89698  -0.88543  -0.82518
  Beta  occ. eigenvalues --   -0.79365  -0.78039  -0.77652  -0.74591  -0.69075
  Beta  occ. eigenvalues --   -0.67091  -0.64891  -0.62399  -0.61153  -0.58820
  Beta  occ. eigenvalues --   -0.56225  -0.55236  -0.52546  -0.50841  -0.49850
  Beta  occ. eigenvalues --   -0.48839  -0.47092  -0.46996  -0.45896  -0.45704
  Beta  occ. eigenvalues --   -0.45351  -0.44980  -0.44303  -0.43447  -0.43157
  Beta  occ. eigenvalues --   -0.41990  -0.39389  -0.39113  -0.38283  -0.37344
  Beta  occ. eigenvalues --   -0.37121  -0.36877  -0.36168  -0.34979  -0.29189
  Beta  occ. eigenvalues --   -0.28949  -0.28913  -0.28118  -0.27798  -0.27731
  Beta  occ. eigenvalues --   -0.27229
  Beta virt. eigenvalues --   -0.12042  -0.07620  -0.03831  -0.02866  -0.00804
  Beta virt. eigenvalues --   -0.00319   0.00521   0.01010   0.01556   0.01844
  Beta virt. eigenvalues --    0.02718   0.03173   0.03489   0.03532   0.03816

 Mulliken charges and spin densities:
               1          2
     1  C    0.150780   0.000000
     2  C   -0.415793  -0.000000
     3  C   -0.421497  -0.000000
     4  C    0.333785  -0.000000
     5  C    0.095190  -0.000000
     6  C    0.193512  -0.000000
     7  C   -0.727210   0.000000
     8  C    0.347338   0.000000
     9  C    0.065547  -0.000000
    10  C   -0.752147   0.000000
    11  C   -0.108312   0.000000
    12  C    0.147732  -0.000000
    13  C   -0.514757   0.000000
    14  O   -0.268632   0.000000
    15  O   -0.276770  -0.000000
    16  H    0.184889  -0.000000
    17  H    0.209403  -0.000000
    18  H    0.208508   0.000000
    19  H    0.209852   0.000000
    20  H    0.187064  -0.000000
    21  H    0.190025   0.000000
    22  H    0.195367  -0.000000
    23  C    0.614169  -0.000000
    24  C    0.048673  -0.000000
    25  C   -0.526720   0.000000
    26  O   -0.347518  -0.000000
    27  H    0.180250  -0.000000
    28  H    0.177982  -0.000000
    29  H    0.168289  -0.000000
    30  H    0.167452  -0.000000
    31  H    0.283548   0.000000
 Sum of Mulliken charges =  -0.00000   0.00000

 Dipole moment (field-independent basis, Debye):
    X=              0.1421    Y=              1.6594    Z=              0.9561  Tot=              1.9205
 Quadrupole moment (field-independent basis, Debye-Ang):
   XX=            -87.3314   YY=           -129.5315   ZZ=           -107.7588
   XY=              6.2204   XZ=            -11.4810   YZ=              6.4903

  Exact polarizability: 368.310  40.646 233.950 -15.124 -94.531 243.540
 Approx polarizability: 400.664  23.324 281.639   8.123-119.970 293.855

                      1                      2                      3
                      A                      A                      A
 Frequencies --     26.3518                28.7484                59.9175
 Red. masses --      5.9835                 4.0715                 6.7459
 Frc consts  --      0.0024                 0.0020                 0.0143
 IR Inten    --      4.8253                 2.0637                 7.2621

                      4                      5                      6
                      A                      A                      A
 Frequencies --     90.6360               108.6223               120.9528
 Red. masses --      2.6773                 4.3615                 4.8671
 Frc consts  --      0.0130                 0.0303                 0.0420
 IR Inten    --     20.4577                 0.1811                 0.7759

                      7                      8                      9
                      A                      A                      A
 Frequencies --    157.3140               189.6500               211.6372
 Red. masses --      6.9835                 4.0234                 5.3127
 Frc consts  --      0.1018                 0.0853                 0.1402
 IR Inten    --      1.9123                 2.1208                 0.4517

                     10                     11                     12
                      A                      A                      A
 Frequencies --    229.2752               265.9551               288.9530
 Red. masses --      1.0669                 5.7143                 6.8124
 Frc consts  --      0.0330                 0.2381                 0.3351
 IR Inten    --    179.7196                 1.1897                 1.8100

                     13                     14                     15
                      A                      A                      A
 Frequencies --    322.7730               374.7741               383.3753
 Red. masses --      4.4810                 4.1534                 6.5831
 Frc consts  --      0.2751                 0.3437                 0.5701
 IR Inten    --      6.6806                 4.0525                 7.3677

                     16                     17                     18
                      A                      A                      A
 Frequencies --    401.5332               412.4739               439.0991
 Red. masses --      8.1519                 3.4308                 5.5621
 Frc consts  --      0.7744                 0.3439                 0.6318
 IR Inten    --     57.9476                 1.3890                 7.5041

                     19                     20                     21
                      A                      A                      A
 Frequencies --    440.9135               458.3943               481.5158
 Red. masses --      3.5609                 4.5123                10.4260
 Frc consts  --      0.4079                 0.5586                 1.4243
 IR Inten    --      1.5415                 1.7541                 3.0093

                     22                     23                     24
                      A                      A                      A
 Frequencies --    553.8944               620.5190               645.7293
 Red. masses --      4.6149                 5.9663                 6.7738
 Frc consts  --      0.8342                 1.3535                 1.6641
 IR Inten    --     14.1930                 4.3758                15.5459

                     25                     26                     27
                      A                      A                      A
 Frequencies --    672.8951               688.0692               699.3985
 Red. masses --      4.7583                 5.1239                 6.4682
 Frc consts  --      1.2694                 1.4293                 1.8642
 IR Inten    --      9.0353                14.3193                 0.1578

                     28                     29                     30
                      A                      A                      A
 Frequencies --    725.1613               734.2603               768.5805
 Red. masses --      2.8365                 3.0595                 4.7455
 Frc consts  --      0.8788                 0.9718                 1.6516
 IR Inten    --     83.5917                43.4282                 4.0117

                     31                     32                     33
                      A                      A                      A
 Frequencies --    804.2688               806.6667               809.0561
 Red. masses --      1.6153                 1.9629                 2.0505
 Frc consts  --      0.6156                 0.7526                 0.7908
 IR Inten    --      0.0059                 0.6412                 7.5207

                     34                     35                     36
                      A                      A                      A
 Frequencies --    859.8500               876.1970               914.9786
 Red. masses --      3.7422                 1.8371                 1.4111
 Frc consts  --      1.6301                 0.8310                 0.6960
 IR Inten    --     10.6469                23.0405                 0.6016

                     37                     38                     39
                      A                      A                      A
 Frequencies --    940.1685               940.8830               991.2305
 Red. masses --      1.5210                 6.9197                 3.4796
 Frc consts  --      0.7921                 3.6092                 2.0143
 IR Inten    --      6.6412               137.6899                95.6201

                     40                     41                     42
                      A                      A                      A
 Frequencies --   1001.9205              1005.6389              1010.6707
 Red. masses --      1.4085                 1.7115                 1.8287
 Frc consts  --      0.8331                 1.0198                 1.1006
 IR Inten    --      0.9790                12.2675                21.3005

                     43                     44                     45
                      A                      A                      A
 Frequencies --   1023.8977              1035.4720              1055.8913
 Red. masses --      1.3329                 6.5912                 1.9381
 Frc consts  --      0.8233                 4.1638                 1.2731
 IR Inten    --      0.0013               177.5563                 0.9429

                     46                     47                     48
                      A                      A                      A
 Frequencies --   1064.5064              1110.6499              1122.9270
 Red. masses --      1.6097                 2.5734                 2.3279
 Frc consts  --      1.0747                 1.8703                 1.7295
 IR Inten    --      0.6499                 0.6082                 4.3766

                     49                     50                     51
                      A                      A                      A
 Frequencies --   1161.7659              1177.4361              1192.8730
 Red. masses --      1.4790                 1.2278                 2.0908
 Frc consts  --      1.1761                 1.0029                 1.7529
 IR Inten    --     22.1811                28.1067                 7.1929

                     52                     53                     54
                      A                      A                      A
 Frequencies --   1217.9710              1223.8045              1230.1431
 Red. masses --      1.2608                 2.6389                 1.1877
 Frc consts  --      1.1019                 2.3286                 1.0589
 IR Inten    --      0.8061                33.8822                28.9456

                     55                     56                     57
                      A                      A                      A
 Frequencies --   1237.2739              1285.8489              1297.4035
 Red. masses --      1.6995                 1.5609                 4.7238
 Frc consts  --      1.5329                 1.5205                 4.6848
 IR Inten    --      6.5875                59.2399              1170.6329

                     58                     59                     60
                      A                      A                      A
 Frequencies --   1308.3197              1322.2132              1335.9524
 Red. masses --      1.2783                 1.7596                 1.6555
 Frc consts  --      1.2892                 1.8125                 1.7408
 IR Inten    --      5.8750                40.2025                64.7151

                     61                     62                     63
                      A                      A                      A
 Frequencies --   1354.3104              1365.4749              1440.7525
 Red. masses --      6.6760                 6.4277                 1.3810
 Frc consts  --      7.2144                 7.0611                 1.6889
 IR Inten    --    107.1515                 0.2512                14.6012

                     64                     65                     66
                      A                      A                      A
 Frequencies --   1447.1702              1480.4474              1491.0508
 Red. masses --      3.3083                 2.4042                 1.1057
 Frc consts  --      4.0822                 3.1046                 1.4483
 IR Inten    --     21.1210                 5.1229                 2.4557

                     67                     68                     69
                      A                      A                      A
 Frequencies --   1501.2102              1517.7102              1519.0114
 Red. masses --      2.6483                 2.8121                 1.0941
 Frc consts  --      3.5164                 3.8165                 1.4874
 IR Inten    --     19.2424                 3.6369                 6.3021

                     70                     71                     72
                      A                      A                      A
 Frequencies --   1597.1151              1610.5781              1618.3260
 Red. masses --      6.8654                 6.9432                 6.0777
 Frc consts  --     10.3179                10.6114                 9.3782
 IR Inten    --     43.4719                59.7796               404.9395

                     73                     74                     75
                      A                      A                      A
 Frequencies --   1630.8651              1691.6429              1701.6154
 Red. masses --      5.9415                12.2674                11.3860
 Frc consts  --      9.3107                20.6833                19.4242
 IR Inten    --     68.5647                21.7644               690.4875

                     76                     77                     78
                      A                      A                      A
 Frequencies --   2998.9792              3034.5020              3042.1920
 Red. masses --      1.0547                 1.1082                 1.0586
 Frc consts  --      5.5890                 6.0123                 5.7721
 IR Inten    --     56.7725                41.3842                47.7542

                     79                     80                     81
                      A                      A                      A
 Frequencies --   3088.1912              3173.0531              3178.5148
 Red. masses --      1.1063                 1.0900                 1.0875
 Frc consts  --      6.2165                 6.4657                 6.4733
 IR Inten    --     41.1255                13.4906                 3.2540

                     82                     83                     84
                      A                      A                      A
 Frequencies --   3187.8029              3190.7892              3202.2323
 Red. masses --      1.0906                 1.0914                 1.0928
 Frc consts  --      6.5295                 6.5470                 6.6020
 IR Inten    --      5.6426                10.7595                 8.3673

                     85                     86                     87
                      A                      A                      A
 Frequencies --   3203.0863              3206.0718              3826.9693
 Red. masses --      1.0925                 1.0955                 1.0668
 Frc consts  --      6.6043                 6.6344                 9.2053
 IR Inten    --      3.6056                19.1688                77.7600

 - Thermochemistry -
 -------------------
 Temperature   298.150 Kelvin.  Pressure   1.00000 Atm.
 Atom     1 has atomic number  6 and mass  12.00000

 Molecular mass:   252.07864 amu.
 Principal axes and moments of inertia in atomic units:
                           1         2         3
     Eigenvalues --  1949.340389160.46722**********
           X            0.81566   0.57607  -0.05328
           Y            0.38741  -0.47549   0.78983
           Z           -0.42966   0.66487   0.61101
 This molecule is an asymmetric top.
 Rotational symmetry number  1.
 Warning -- assumption of classical behavior for rotation
           may cause significant error
 Rotational temperatures (Kelvin)      0.04443     0.00946     0.00798
 Rotational constants (GHZ):           0.92582     0.19701     0.16633
 Zero-point vibrational energy     629636.0 (Joules/Mol)
                                  150.48661 (Kcal/Mol)
 Warning -- explicit consideration of  23 degrees of freedom as
           vibrations may cause significant error
 Vibrational temperatures:     37.91    41.36    86.21   130.41   156.28
          (Kelvin)            174.02   226.34   272.86   304.50   329.88
                              382.65   415.74   464.40   539.22   551.59
                              577.72   593.46   631.77   634.38   659.53
                              692.79   796.93   892.79   929.06   968.15
                              989.98  1006.28  1043.35  1056.44  1105.82
                             1157.16  1160.61  1164.05  1237.13  1260.65
                             1316.45  1352.69  1353.72  1426.16  1441.54
                             1446.89  1454.13  1473.16  1489.81  1519.19
                             1531.59  1597.98  1615.64  1671.52  1694.07
                             1716.28  1752.39  1760.78  1769.90  1780.16
                             1850.05  1866.67  1882.38  1902.37  1922.14
                             1948.55  1964.61  2072.92  2082.16  2130.03
                             2145.29  2159.91  2183.65  2185.52  2297.89
                             2317.26  2328.41  2346.45  2433.90  2448.25
                             4314.86  4365.97  4377.04  4443.22  4565.32
                             4573.17  4586.54  4590.83  4607.30  4608.53
                             4612.82  5506.16

 Zero-point correction=                           0.239816 (Hartree/Particle)
 Thermal correction to Energy=                    0.255427
 Thermal correction to Enthalpy=                  0.256371
 Thermal correction to Gibbs Free Energy=         0.195290
 Sum of electronic and zero-point Energies=           -842.618791
 Sum of electronic and thermal Energies=              -842.603179
 Sum of electronic and thermal Enthalpies=            -842.602235
 Sum of electronic and thermal Free Energies=         -842.663316

                     E (Thermal)             CV                S
                      KCal/Mol        Cal/Mol-Kelvin    Cal/Mol-Kelvin
 Total                  160.283             60.311            128.557
 Electronic               0.000              0.000              0.000
 Translational            0.889              2.981             42.474
 Rotational               0.889              2.981             33.626
 Vibrational            158.506             54.350             52.456
 Vibration     1          0.593              1.985              6.087
 Vibration     2          0.593              1.984              5.914
 Vibration     3          0.597              1.973              4.460
 Vibration     4          0.602              1.956              3.646
 Vibration     5          0.606              1.942              3.293
 Vibration     6          0.609              1.932              3.085
 Vibration     7          0.621              1.894              2.582
 Vibration     8          0.633              1.854              2.231
 Vibration     9          0.643              1.823              2.030
 Vibration    10          0.652              1.796              1.885
 Vibration    11          0.672              1.736              1.622
 Vibration    12          0.686              1.694              1.480
 Vibration    13          0.708              1.630              1.296
 Vibration    14          0.746              1.524              1.060
 Vibration    15          0.753              1.506              1.026
 Vibration    16          0.767              1.467              0.957
 Vibration    17          0.776              1.443              0.918
 Vibration    18          0.799              1.385              0.829
 Vibration    19          0.801              1.381              0.824
 Vibration    20          0.816              1.342              0.771
 Vibration    21          0.838              1.291              0.706
 Vibration    22          0.909              1.131              0.536
 Vibration    23          0.981              0.989              0.416

 Optimization completed.
    -- Stationary point found.
 Normal termination of Gaussian 16 at Sat Feb 10 23:19:37 2024.
