 Gaussian 16, Revision A.03,
 Gaussian 16:  ES64L-G16RevA.03 25-Dec-2016

 --------------------------------------
 #P UB3LYP/6-311++G(d,p) nosym opt freq
 --------------------------------------

 --------
 Oxidized
 --------
 Symbolic Z-matrix:
 Charge =  0 Multiplicity = 1

 SCF Done:  E(UB3LYP) =  -696.113952433     A.U. after   15 cycles
 SCF Done:  E(UB3LYP) =  -696.142723162     A.U. after   13 cycles
 SCF Done:  E(UB3LYP) =  -696.149684167     A.U. after   13 cycles
 SCF Done:  E(UB3LYP) =  -696.152435267     A.U. after   12 cycles
 SCF Done:  E(UB3LYP) =  -696.154595261     A.U. after   12 cycles
 SCF Done:  E(UB3LYP) =  -696.156694702     A.U. after   13 cycles
 SCF Done:  E(UB3LYP) =  -696.157229732     A.U. after   12 cycles
 SCF Done:  E(UB3LYP) =  -696.157438213     A.U. after   12 cycles
 SCF Done:  E(UB3LYP) =  -696.157554082     A.U. after   11 cycles
 SCF Done:  E(UB3LYP) =  -696.157645863     A.U. after   11 cycles
 SCF Done:  E(UB3LYP) =  -696.157647891     A.U. after   10 cycles
 SCF Done:  E(UB3LYP) =  -696.157652650     A.U. after    9 cycles
 SCF Done:  E(UB3LYP) =  -696.157653143     A.U. after    9 cycles
 SCF Done:  E(UB3LYP) =  -696.157653214     A.U. after    8 cycles
 SCF Done:  E(UB3LYP) =  -696.157653255     A.U. after    8 cycles
 SCF Done:  E(UB3LYP) =  -696.157653302     A.U. after    8 cycles
 SCF Done:  E(UB3LYP) =  -696.157653327     A.U. after    8 cycles
 SCF Done:  E(UB3LYP) =  -696.157653336     A.U. after    7 cycles
 Optimization completed.
    -- Stationary point found.
 Normal termination of Gaussian 16 at Sun Dec 17 23:38:43 2023.

 ----------------------------------------------------------------------
 #P Geom=AllCheck Guess=TCheck SCRF=Check GenChk UB3LYP/6-311++G(d,p) F
 req
 ----------------------------------------------------------------------

 Structure from the checkpoint file:  "046.chk"
 --------
 Oxidized
 --------
 Charge =  0 Multiplicity = 1

                          Input orientation:
 ---------------------------------------------------------------------
 Center     Atomic      Atomic             Coordinates (Angstroms)
 Number     Number       Type             X           Y           Z
 ---------------------------------------------------------------------
      1          6           0        2.645910   -0.344982   -1.940327
      2          6           0        2.626567   -0.004955   -0.428672
      3          6           0        2.829046    1.517739   -0.225034
      4          6           0        3.815815   -0.729502    0.231001
      5          6           0        1.294028   -0.446580    0.193222
      6          6           0        1.215705   -1.351542    1.185687
      7          6           0       -0.062557   -1.776603    1.783230
      8          8           0       -0.091613   -2.603282    2.685579
      9          6           0       -1.304822   -1.178125    1.263353
     10          6           0       -1.319152   -0.266539    0.273963
     11          6           0        0.005486    0.155236   -0.323998
     12          8           0        0.034544    0.980301   -1.222621
     13          6           0       -2.614216    0.356578   -0.266435
     14          6           0       -2.773312    0.028664   -1.772490
     15          6           0       -3.848710   -0.200308    0.468640
     16          6           0       -2.592585    1.891795   -0.057344
     17          1           0        3.619001   -0.073173   -2.359681
     18          1           0        2.502878   -1.417963   -2.099522
     19          1           0        1.874662    0.195268   -2.486104
     20          1           0        2.061709    2.099018   -0.732870
     21          1           0        3.804036    1.809715   -0.626031
     22          1           0        2.816723    1.772925    0.838833
     23          1           0        3.760296   -1.813912    0.101746
     24          1           0        3.888851   -0.511989    1.300145
     25          1           0        4.743089   -0.390338   -0.236914
     26          1           0        2.088582   -1.828447    1.611805
     27          1           0       -2.206995   -1.532852    1.744164
     28          1           0       -3.723815    0.433302   -2.132287
     29          1           0       -2.789087   -1.053141   -1.935410
     30          1           0       -1.970263    0.460066   -2.367118
     31          1           0       -3.824770    0.020518    1.539327
     32          1           0       -4.747663    0.265284    0.057651
     33          1           0       -3.951125   -1.281458    0.340788
     34          1           0       -3.541397    2.316519   -0.397957
     35          1           0       -2.478921    2.138439    1.002530
     36          1           0       -1.785924    2.364326   -0.614646
 ---------------------------------------------------------------------

 SCF Done:  E(UB3LYP) =  -696.157653336     A.U. after    1 cycles

 Alpha  occ. eigenvalues --  -19.13885 -19.13084 -10.28874 -10.27542 -10.21888
 Alpha  occ. eigenvalues --  -10.21887 -10.20847 -10.20847 -10.20180 -10.20180
 Alpha  occ. eigenvalues --  -10.17020 -10.17020 -10.16461 -10.16461 -10.16461
 Alpha  occ. eigenvalues --  -10.16460  -1.07390  -1.05924  -0.87256  -0.84989
 Alpha  occ. eigenvalues --   -0.81212  -0.76835  -0.70716  -0.69992  -0.69499
 Alpha  occ. eigenvalues --   -0.69453  -0.69200  -0.64328  -0.61509  -0.56094
 Alpha  occ. eigenvalues --   -0.54917  -0.52547  -0.50642  -0.48138  -0.48083
 Alpha  occ. eigenvalues --   -0.46056  -0.45162  -0.45133  -0.44516  -0.44493
 Alpha  occ. eigenvalues --   -0.43891  -0.41930  -0.41916  -0.40979  -0.40141
 Alpha  occ. eigenvalues --   -0.39458  -0.38860  -0.38798  -0.37581  -0.37258
 Alpha  occ. eigenvalues --   -0.36116  -0.36107  -0.34949  -0.34727  -0.34638
 Alpha  occ. eigenvalues --   -0.33917  -0.30124  -0.28852  -0.27916  -0.26783
 Alpha virt. eigenvalues --   -0.12986  -0.02669  -0.01382  -0.00578  -0.00522
 Alpha virt. eigenvalues --    0.00990   0.01133   0.01296   0.01756   0.02176
 Alpha virt. eigenvalues --    0.02980   0.03286   0.03292   0.03972   0.04673

  Beta  occ. eigenvalues --  -19.13885 -19.13084 -10.28874 -10.27542 -10.21888
  Beta  occ. eigenvalues --  -10.21887 -10.20847 -10.20847 -10.20180 -10.20180
  Beta  occ. eigenvalues --  -10.17020 -10.17020 -10.16461 -10.16461 -10.16461
  Beta  occ. eigenvalues --  -10.16460  -1.07390  -1.05924  -0.87256  -0.84989
  Beta  occ. eigenvalues --   -0.81212  -0.76835  -0.70716  -0.69992  -0.69499
  Beta  occ. eigenvalues --   -0.69453  -0.69200  -0.64328  -0.61509  -0.56094
  Beta  occ. eigenvalues --   -0.54917  -0.52547  -0.50642  -0.48138  -0.48083
  Beta  occ. eigenvalues --   -0.46056  -0.45162  -0.45133  -0.44516  -0.44493
  Beta  occ. eigenvalues --   -0.43891  -0.41930  -0.41916  -0.40979  -0.40141
  Beta  occ. eigenvalues --   -0.39458  -0.38860  -0.38798  -0.37581  -0.37258
  Beta  occ. eigenvalues --   -0.36116  -0.36107  -0.34949  -0.34727  -0.34638
  Beta  occ. eigenvalues --   -0.33917  -0.30124  -0.28852  -0.27916  -0.26783
  Beta virt. eigenvalues --   -0.12986  -0.02669  -0.01382  -0.00578  -0.00522
  Beta virt. eigenvalues --    0.00990   0.01133   0.01296   0.01756   0.02176
  Beta virt. eigenvalues --    0.02980   0.03286   0.03292   0.03972   0.04673

 Mulliken charges and spin densities:
               1          2
     1  C   -0.675733   0.000000
     2  C    0.616778  -0.000000
     3  C   -0.675830  -0.000000
     4  C   -0.416251  -0.000000
     5  C    0.729629  -0.000000
     6  C   -0.247947   0.000000
     7  C   -0.742184  -0.000000
     8  O   -0.222168   0.000000
     9  C   -0.247820  -0.000000
    10  C    0.729351  -0.000000
    11  C   -0.815955   0.000000
    12  O   -0.159057  -0.000000
    13  C    0.616603  -0.000000
    14  C   -0.675873  -0.000000
    15  C   -0.416127   0.000000
    16  C   -0.675755   0.000000
    17  H    0.157476  -0.000000
    18  H    0.144563   0.000000
    19  H    0.184630  -0.000000
    20  H    0.184696  -0.000000
    21  H    0.157480  -0.000000
    22  H    0.144577   0.000000
    23  H    0.133074   0.000000
    24  H    0.133037   0.000000
    25  H    0.171576  -0.000000
    26  H    0.228056  -0.000000
    27  H    0.228061  -0.000000
    28  H    0.157482  -0.000000
    29  H    0.144581   0.000000
    30  H    0.184626  -0.000000
    31  H    0.133041   0.000000
    32  H    0.171561   0.000000
    33  H    0.133070  -0.000000
    34  H    0.157490  -0.000000
    35  H    0.144605   0.000000
    36  H    0.184657  -0.000000
 Sum of Mulliken charges =  -0.00000   0.00000

 Dipole moment (field-independent basis, Debye):
    X=              0.0415    Y=              1.1823    Z=             -1.2935  Tot=              1.7529
 Quadrupole moment (field-independent basis, Debye-Ang):
   XX=            -89.1902   YY=           -108.0726   ZZ=           -109.3700
   XY=             -1.0113   XZ=              0.0125   YZ=              9.3612

  Exact polarizability: 187.379  -2.844 162.533  -3.065 -35.890 168.591
 Approx polarizability: 229.729   0.568 280.462  -4.444 -94.523 296.782

                      1                      2                      3
                      A                      A                      A
 Frequencies --     22.6042                61.5997                80.6550
 Red. masses --      3.8615                 2.7202                 4.6582
 Frc consts  --      0.0012                 0.0061                 0.0179
 IR Inten    --      1.9265                 0.0004                 0.0677

                      4                      5                      6
                      A                      A                      A
 Frequencies --    136.4701               141.0793               148.4644
 Red. masses --      2.8878                 4.7484                 3.7311
 Frc consts  --      0.0317                 0.0557                 0.0485
 IR Inten    --      0.0027                 7.6598                 0.1835

                      7                      8                      9
                      A                      A                      A
 Frequencies --    203.9297               213.3409               235.5814
 Red. masses --      1.3431                 1.1790                 2.5114
 Frc consts  --      0.0329                 0.0316                 0.0821
 IR Inten    --      0.8678                 0.0001                 0.0000

                     10                     11                     12
                      A                      A                      A
 Frequencies --    244.9644               251.3574               268.0678
 Red. masses --      1.1570                 1.2622                 2.3870
 Frc consts  --      0.0409                 0.0470                 0.1011
 IR Inten    --      0.0605                 0.0253                 0.0768

                     13                     14                     15
                      A                      A                      A
 Frequencies --    271.0991               281.7696               283.7879
 Red. masses --      3.4705                 2.7659                 2.4964
 Frc consts  --      0.1503                 0.1294                 0.1185
 IR Inten    --      0.4140                 0.1340                 0.0000

                     16                     17                     18
                      A                      A                      A
 Frequencies --    309.7316               330.5172               333.5227
 Red. masses --      2.3703                 1.0832                 1.0549
 Frc consts  --      0.1340                 0.0697                 0.0691
 IR Inten    --      0.0012                 0.0269                 0.0001

                     19                     20                     21
                      A                      A                      A
 Frequencies --    358.2364               372.8188               388.7420
 Red. masses --      4.3923                 2.2164                 2.2025
 Frc consts  --      0.3321                 0.1815                 0.1961
 IR Inten    --      6.5699                 0.5819                 0.0000

                     22                     23                     24
                      A                      A                      A
 Frequencies --    400.4029               432.1769               448.1293
 Red. masses --      2.7138                 2.6938                 3.3121
 Frc consts  --      0.2563                 0.2964                 0.3919
 IR Inten    --      0.6378                 0.0023                 0.1786

                     25                     26                     27
                      A                      A                      A
 Frequencies --    461.5399               465.7706               504.3139
 Red. masses --      5.5639                 7.6519                 2.8797
 Frc consts  --      0.6983                 0.9781                 0.4315
 IR Inten    --     26.4464                 0.0597                 0.0265

                     28                     29                     30
                      A                      A                      A
 Frequencies --    557.7107               590.3302               674.6483
 Red. masses --      2.8756                 4.0463                 4.7929
 Frc consts  --      0.5270                 0.8308                 1.2853
 IR Inten    --      0.5376                 0.0000                 0.0658

                     31                     32                     33
                      A                      A                      A
 Frequencies --    697.0034               737.4025               787.6317
 Red. masses --      3.9808                 4.9045                 5.2556
 Frc consts  --      1.1394                 1.5713                 1.9210
 IR Inten    --      2.5472                 4.5481                 0.4742

                     34                     35                     36
                      A                      A                      A
 Frequencies --    806.5394               836.3637               878.9987
 Red. masses --      3.3954                 8.7205                 2.5811
 Frc consts  --      1.3013                 3.5940                 1.1750
 IR Inten    --      0.3362                 5.2257                41.9595

                     37                     38                     39
                      A                      A                      A
 Frequencies --    900.8828               922.5785               928.9649
 Red. masses --      1.4755                 3.3239                 1.8644
 Frc consts  --      0.7056                 1.6669                 0.9480
 IR Inten    --      0.0005                 0.5706                 1.1249

                     40                     41                     42
                      A                      A                      A
 Frequencies --    933.6728               937.4818               938.2894
 Red. masses --      1.6654                 1.7277                 1.7785
 Frc consts  --      0.8554                 0.8946                 0.9225
 IR Inten    --      0.0204                 5.5970                 0.3521

                     43                     44                     45
                      A                      A                      A
 Frequencies --    948.6883               964.1760               965.1032
 Red. masses --      1.5083                 1.1981                 1.1982
 Frc consts  --      0.7998                 0.6562                 0.6575
 IR Inten    --     32.0586                 0.0525                 0.1264

                     46                     47                     48
                      A                      A                      A
 Frequencies --   1040.2258              1047.1343              1047.6396
 Red. masses --      1.6682                 1.3835                 1.3762
 Frc consts  --      1.0635                 0.8938                 0.8900
 IR Inten    --     17.9349                 0.7458                 0.0539

                     49                     50                     51
                      A                      A                      A
 Frequencies --   1048.9754              1081.8127              1168.0600
 Red. masses --      1.3884                 2.2555                 2.3957
 Frc consts  --      0.9001                 1.5553                 1.9258
 IR Inten    --      0.0571                34.0376                41.6337

                     52                     53                     54
                      A                      A                      A
 Frequencies --   1216.2895              1217.3654              1224.1013
 Red. masses --      2.6802                 2.6921                 2.8544
 Frc consts  --      2.3361                 2.3506                 2.5200
 IR Inten    --      0.0143                 4.7849                 5.8069

                     55                     56                     57
                      A                      A                      A
 Frequencies --   1224.4388              1261.3494              1272.0351
 Red. masses --      2.3613                 2.4643                 2.5171
 Frc consts  --      2.0858                 2.3100                 2.3996
 IR Inten    --      0.3143                69.3839                 0.0184

                     58                     59                     60
                      A                      A                      A
 Frequencies --   1321.7399              1328.2567              1352.0299
 Red. masses --      3.6440                 1.7108                 2.6508
 Frc consts  --      3.7508                 1.7784                 2.8549
 IR Inten    --    107.2661                10.7286                 2.0178

                     61                     62                     63
                      A                      A                      A
 Frequencies --   1391.8256              1392.3052              1397.8551
 Red. masses --      1.1974                 1.1973                 1.2303
 Frc consts  --      1.3666                 1.3674                 1.4164
 IR Inten    --      0.8109                17.5648                11.8400

                     64                     65                     66
                      A                      A                      A
 Frequencies --   1398.0556              1427.7273              1427.8994
 Red. masses --      1.2276                 1.2193                 1.2176
 Frc consts  --      1.4137                 1.4643                 1.4626
 IR Inten    --     14.8653                13.5808                 1.7688

                     67                     68                     69
                      A                      A                      A
 Frequencies --   1480.4731              1480.8230              1495.4484
 Red. masses --      1.0463                 1.0464                 1.0480
 Frc consts  --      1.3512                 1.3519                 1.3809
 IR Inten    --      0.0003                 0.0031                 0.0457

                     70                     71                     72
                      A                      A                      A
 Frequencies --   1496.3199              1497.9428              1499.4448
 Red. masses --      1.0487                 1.0450                 1.0447
 Frc consts  --      1.3835                 1.3815                 1.3839
 IR Inten    --      2.1747                 0.0005                 1.4434

                     73                     74                     75
                      A                      A                      A
 Frequencies --   1502.8835              1503.2203              1512.5946
 Red. masses --      1.0513                 1.0538                 1.0488
 Frc consts  --      1.3990                 1.4030                 1.4138
 IR Inten    --      7.6694                18.7754                 0.1979

                     76                     77                     78
                      A                      A                      A
 Frequencies --   1513.3637              1528.8733              1530.3594
 Red. masses --      1.0491                 1.0585                 1.0592
 Frc consts  --      1.4156                 1.4577                 1.4616
 IR Inten    --     14.0711                21.8541                14.2344

                     79                     80                     81
                      A                      A                      A
 Frequencies --   1639.5422              1674.1883              1709.1119
 Red. masses --      8.3547                10.0536                11.7563
 Frc consts  --     13.2320                16.6027                20.2331
 IR Inten    --     63.1188                 1.2714               185.2480

                     82                     83                     84
                      A                      A                      A
 Frequencies --   1712.8854              3023.3181              3023.4424
 Red. masses --      8.7161                 1.0358                 1.0358
 Frc consts  --     15.0670                 5.5784                 5.5789
 IR Inten    --    278.1442                 4.0934                22.0053

                     85                     86                     87
                      A                      A                      A
 Frequencies --   3025.3907              3025.6286              3031.0974
 Red. masses --      1.0385                 1.0386                 1.0389
 Frc consts  --      5.6005                 5.6016                 5.6235
 IR Inten    --      4.4689                69.2959                56.7638

                     88                     89                     90
                      A                      A                      A
 Frequencies --   3031.5374              3080.9298              3081.2020
 Red. masses --      1.0389                 1.1022                 1.1021
 Frc consts  --      5.6256                 6.1640                 6.1650
 IR Inten    --      2.6161                 0.1621                14.1299

                     91                     92                     93
                      A                      A                      A
 Frequencies --   3082.4905              3082.6943              3090.6309
 Red. masses --      1.1016                 1.1016                 1.1023
 Frc consts  --      6.1671                 6.1678                 6.2035
 IR Inten    --     22.8267                21.4581                12.1502

                     94                     95                     96
                      A                      A                      A
 Frequencies --   3090.8191              3095.2435              3095.5289
 Red. masses --      1.1023                 1.1007                 1.1005
 Frc consts  --      6.2041                 6.2130                 6.2133
 IR Inten    --     51.9496                56.7061                48.7873

                     97                     98                     99
                      A                      A                      A
 Frequencies --   3137.5957              3137.8020              3139.9590
 Red. masses --      1.0978                 1.0977                 1.0972
 Frc consts  --      6.3674                 6.3680                 6.3733
 IR Inten    --      0.0063                 0.0092                16.4497

                    100                    101                    102
                      A                      A                      A
 Frequencies --   3140.3913              3204.1313              3205.5743
 Red. masses --      1.0971                 1.0904                 1.0909
 Frc consts  --      6.3747                 6.5959                 6.6047
 IR Inten    --     14.7505                 2.5642                 0.8344

 - Thermochemistry -
 -------------------
 Temperature   298.150 Kelvin.  Pressure   1.00000 Atm.
 Atom     1 has atomic number  6 and mass  12.00000

 Molecular mass:   220.14633 amu.
 Principal axes and moments of inertia in atomic units:
                           1         2         3
     Eigenvalues --  2341.932324573.532726108.37551
           X            0.99715  -0.02378   0.07155
           Y           -0.06879  -0.67548   0.73416
           Z           -0.03087   0.73699   0.67520
 This molecule is an asymmetric top.
 Rotational symmetry number  1.
 Warning -- assumption of classical behavior for rotation
           may cause significant error
 Rotational temperatures (Kelvin)      0.03698     0.01894     0.01418
 Rotational constants (GHZ):           0.77062     0.39461     0.29545
 Zero-point vibrational energy     810752.0 (Joules/Mol)
                                  193.77437 (Kcal/Mol)
 Warning -- explicit consideration of  29 degrees of freedom as
           vibrations may cause significant error
 Vibrational temperatures:     32.52    88.63   116.04   196.35   202.98
          (Kelvin)            213.61   293.41   306.95   338.95   352.45
                              361.65   385.69   390.05   405.40   408.31
                              445.63   475.54   479.86   515.42   536.40
                              559.31   576.09   621.81   644.76   664.05
                              670.14   725.60   802.42   849.35   970.67
                             1002.83  1060.96  1133.23  1160.43  1203.34
                             1264.68  1296.17  1327.38  1336.57  1343.35
                             1348.83  1349.99  1364.95  1387.23  1388.57
                             1496.65  1506.59  1507.32  1509.24  1556.49
                             1680.58  1749.97  1751.52  1761.21  1761.69
                             1814.80  1830.17  1901.69  1911.07  1945.27
                             2002.53  2003.22  2011.20  2011.49  2054.18
                             2054.43  2130.07  2130.57  2151.62  2152.87
                             2155.21  2157.37  2162.31  2162.80  2176.29
                             2177.39  2199.71  2201.85  2358.94  2408.78
                             2459.03  2464.46  4349.88  4350.06  4352.86
                             4353.20  4361.07  4361.71  4432.77  4433.16
                             4435.02  4435.31  4446.73  4447.00  4453.37
                             4453.78  4514.30  4514.60  4517.70  4518.32
                             4610.03  4612.11

 Zero-point correction=                           0.308799 (Hartree/Particle)
 Thermal correction to Energy=                    0.326015
 Thermal correction to Enthalpy=                  0.326959
 Thermal correction to Gibbs Free Energy=         0.265263
 Sum of electronic and zero-point Energies=           -695.848854
 Sum of electronic and thermal Energies=              -695.831639
 Sum of electronic and thermal Enthalpies=            -695.830695
 Sum of electronic and thermal Free Energies=         -695.892390

                     E (Thermal)             CV                S
                      KCal/Mol        Cal/Mol-Kelvin    Cal/Mol-Kelvin
 Total                  204.577             67.199            129.850
 Electronic               0.000              0.000              0.000
 Translational            0.889              2.981             42.070
 Rotational               0.889              2.981             32.548
 Vibrational            202.800             61.238             55.232
 Vibration     1          0.593              1.985              6.391
 Vibration     2          0.597              1.973              4.405
 Vibration     3          0.600              1.962              3.875
 Vibration     4          0.614              1.917              2.853
 Vibration     5          0.615              1.912              2.789
 Vibration     6          0.618              1.904              2.692
 Vibration     7          0.640              1.834              2.097
 Vibration     8          0.644              1.821              2.015
 Vibration     9          0.655              1.786              1.836
 Vibration    10          0.660              1.771              1.767
 Vibration    11          0.663              1.760              1.721
 Vibration    12          0.673              1.732              1.609
 Vibration    13          0.675              1.726              1.589
 Vibration    14          0.681              1.707              1.523
 Vibration    15          0.682              1.704              1.511
 Vibration    16          0.699              1.655              1.364
 Vibration    17          0.713              1.615              1.258
 Vibration    18          0.715              1.609              1.243
 Vibration    19          0.733              1.558              1.130
 Vibration    20          0.744              1.528              1.068
 Vibration    21          0.757              1.494              1.005
 Vibration    22          0.766              1.469              0.961
 Vibration    23          0.793              1.400              0.852
 Vibration    24          0.807              1.365              0.801
 Vibration    25          0.819              1.335              0.762
 Vibration    26          0.823              1.326              0.749
 Vibration    27          0.860              1.240              0.647
 Vibration    28          0.913              1.123              0.528
 Vibration    29          0.948              1.052              0.467

 Optimization completed.
    -- Stationary point found.
 Normal termination of Gaussian 16 at Mon Dec 18 01:17:55 2023.
