 Gaussian 16, Revision A.03,
 Gaussian 16:  ES64L-G16RevA.03 25-Dec-2016

 --------------------------------------
 #P UB3LYP/6-311++G(d,p) nosym opt freq
 --------------------------------------

 -------
 Reduced
 -------
 Symbolic Z-matrix:
 Charge = -2 Multiplicity = 1

 SCF Done:  E(UB3LYP) =  -843.795526276     A.U. after   20 cycles
 SCF Done:  E(UB3LYP) =  -843.795526319     A.U. after   13 cycles
 SCF Done:  E(UB3LYP) =  -843.795526426     A.U. after   11 cycles
 SCF Done:  E(UB3LYP) =  -843.795527020     A.U. after   14 cycles
 SCF Done:  E(UB3LYP) =  -843.748842066     A.U. after   27 cycles
 SCF Done:  E(UB3LYP) =  -843.794114464     A.U. after   22 cycles
 SCF Done:  E(UB3LYP) =  -843.795562523     A.U. after   17 cycles
 SCF Done:  E(UB3LYP) =  -843.772519808     A.U. after   20 cycles
 SCF Done:  E(UB3LYP) =  -843.795197653     A.U. after   23 cycles
 SCF Done:  E(UB3LYP) =  -843.795632262     A.U. after   17 cycles
 SCF Done:  E(UB3LYP) =  -843.795763740     A.U. after   19 cycles
 SCF Done:  E(UB3LYP) =  -843.795775705     A.U. after   18 cycles
 SCF Done:  E(UB3LYP) =  -843.795762888     A.U. after   18 cycles
 SCF Done:  E(UB3LYP) =  -843.795788651     A.U. after   17 cycles
 SCF Done:  E(UB3LYP) =  -843.795788832     A.U. after   17 cycles
 SCF Done:  E(UB3LYP) =  -843.795789559     A.U. after   15 cycles
 SCF Done:  E(UB3LYP) =  -843.795789716     A.U. after   12 cycles
 SCF Done:  E(UB3LYP) =  -843.795790413     A.U. after   17 cycles
 SCF Done:  E(UB3LYP) =  -843.795790416     A.U. after   10 cycles
 Optimization completed.
    -- Stationary point found.
 Normal termination of Gaussian 16 at Wed Jan 10 09:06:19 2024.

 ----------------------------------------------------------------------
 #P Geom=AllCheck Guess=TCheck SCRF=Check GenChk UB3LYP/6-311++G(d,p) F
 req
 ----------------------------------------------------------------------

 Structure from the checkpoint file:  "064-an.chk"
 -------
 Reduced
 -------
 Charge = -2 Multiplicity = 1

                          Input orientation:
 ---------------------------------------------------------------------
 Center     Atomic      Atomic             Coordinates (Angstroms)
 Number     Number       Type             X           Y           Z
 ---------------------------------------------------------------------
      1          8           0        1.452229    2.276053   -0.807510
      2          6           0        0.808322    1.197170   -0.504710
      3          6           0       -0.614563    1.172314   -0.497349
      4          6           0       -1.438814    0.070814   -0.194064
      5          6           0       -0.808285   -1.197197    0.183589
      6          8           0       -1.452166   -2.276089    0.486428
      7          6           0        0.614589   -1.172328    0.176256
      8          6           0        1.438827   -0.070850   -0.127092
      9          6           0        2.901390   -0.210088   -0.042451
     10          6           0        3.520564   -1.319628    0.596138
     11          6           0        4.901639   -1.469105    0.657135
     12          6           0        5.755119   -0.515283    0.090854
     13          6           0        5.172183    0.595823   -0.529755
     14          6           0        3.790833    0.752707   -0.594597
     15          6           0       -2.901389    0.210094   -0.278555
     16          6           0       -3.520620    1.319632   -0.917099
     17          6           0       -4.901700    1.469118   -0.977973
     18          6           0       -5.755141    0.515312   -0.411611
     19          6           0       -5.172159   -0.595812    0.208918
     20          6           0       -3.790806   -0.752709    0.273644
     21          1           0       -1.059719    2.132726   -0.738398
     22          1           0        1.059775   -2.132707    0.417388
     23          1           0        2.900093   -2.071424    1.067545
     24          1           0        5.318795   -2.338376    1.162580
     25          1           0        6.835027   -0.629844    0.142118
     26          1           0        5.809185    1.359662   -0.973021
     27          1           0        3.334496    1.625250   -1.046890
     28          1           0       -2.900207    2.071418   -1.388594
     29          1           0       -5.318891    2.338393   -1.483383
     30          1           0       -6.835053    0.629880   -0.462788
     31          1           0       -5.809127   -1.359657    0.652224
     32          1           0       -3.334428   -1.625270    0.725868
 ---------------------------------------------------------------------

 SCF Done:  E(UB3LYP) =  -843.795790416     A.U. after    2 cycles

 Alpha  occ. eigenvalues --  -18.77731 -18.77731  -9.96325  -9.96325  -9.95962
 Alpha  occ. eigenvalues --   -9.95962  -9.95841  -9.95841  -9.95161  -9.95160
 Alpha  occ. eigenvalues --   -9.94782  -9.94782  -9.94151  -9.94150  -9.93311
 Alpha  occ. eigenvalues --   -9.93310  -9.91054  -9.91053  -9.88623  -9.88622
 Alpha  occ. eigenvalues --   -0.69531  -0.69165  -0.63228  -0.63216  -0.56050
 Alpha  occ. eigenvalues --   -0.54461  -0.52398  -0.52391  -0.51091  -0.46165
 Alpha  occ. eigenvalues --   -0.41622  -0.39834  -0.38311  -0.37962  -0.36415
 Alpha  occ. eigenvalues --   -0.32810  -0.30861  -0.29676  -0.27297  -0.24255
 Alpha  occ. eigenvalues --   -0.23810  -0.23270  -0.22105  -0.20390  -0.20200
 Alpha  occ. eigenvalues --   -0.19513  -0.19285  -0.17908  -0.15826  -0.15272
 Alpha  occ. eigenvalues --   -0.14909  -0.14767  -0.12507  -0.11746  -0.11429
 Alpha  occ. eigenvalues --   -0.11422  -0.10888  -0.09585  -0.08141  -0.07501
 Alpha  occ. eigenvalues --   -0.05192  -0.03952  -0.03581  -0.03370   0.02142
 Alpha  occ. eigenvalues --    0.03621   0.04782   0.04921   0.11721
 Alpha virt. eigenvalues --    0.14279   0.14284   0.16126   0.16137   0.17666
 Alpha virt. eigenvalues --    0.17684   0.17800   0.20439   0.20499   0.20511
 Alpha virt. eigenvalues --    0.20839   0.21336   0.22003   0.22191   0.22641

  Beta  occ. eigenvalues --  -18.77731 -18.77731  -9.96325  -9.96325  -9.95962
  Beta  occ. eigenvalues --   -9.95962  -9.95841  -9.95841  -9.95161  -9.95160
  Beta  occ. eigenvalues --   -9.94782  -9.94782  -9.94151  -9.94150  -9.93311
  Beta  occ. eigenvalues --   -9.93310  -9.91054  -9.91053  -9.88623  -9.88622
  Beta  occ. eigenvalues --   -0.69531  -0.69165  -0.63228  -0.63216  -0.56050
  Beta  occ. eigenvalues --   -0.54461  -0.52398  -0.52391  -0.51091  -0.46165
  Beta  occ. eigenvalues --   -0.41622  -0.39834  -0.38311  -0.37962  -0.36415
  Beta  occ. eigenvalues --   -0.32810  -0.30861  -0.29676  -0.27297  -0.24255
  Beta  occ. eigenvalues --   -0.23810  -0.23270  -0.22105  -0.20390  -0.20200
  Beta  occ. eigenvalues --   -0.19513  -0.19285  -0.17908  -0.15826  -0.15272
  Beta  occ. eigenvalues --   -0.14909  -0.14767  -0.12507  -0.11746  -0.11429
  Beta  occ. eigenvalues --   -0.11422  -0.10888  -0.09585  -0.08141  -0.07501
  Beta  occ. eigenvalues --   -0.05192  -0.03952  -0.03581  -0.03370   0.02142
  Beta  occ. eigenvalues --    0.03621   0.04782   0.04921   0.11721
  Beta virt. eigenvalues --    0.14279   0.14284   0.16126   0.16137   0.17666
  Beta virt. eigenvalues --    0.17684   0.17800   0.20439   0.20499   0.20511
  Beta virt. eigenvalues --    0.20839   0.21336   0.22003   0.22191   0.22641

 Mulliken charges and spin densities:
               1          2
     1  O   -0.509539   0.000000
     2  C   -0.902589  -0.000000
     3  C   -0.833600  -0.000000
     4  C    1.413753  -0.000000
     5  C   -0.902389  -0.000000
     6  O   -0.509540   0.000000
     7  C   -0.833375  -0.000000
     8  C    1.413700   0.000000
     9  C    1.339525   0.000000
    10  C   -0.513871   0.000000
    11  C   -0.490567  -0.000000
    12  C   -0.367971   0.000000
    13  C   -0.515124   0.000000
    14  C   -0.203904   0.000000
    15  C    1.339497   0.000000
    16  C   -0.514098  -0.000000
    17  C   -0.490490   0.000000
    18  C   -0.367983   0.000000
    19  C   -0.515164   0.000000
    20  C   -0.203654  -0.000000
    21  H    0.036075  -0.000000
    22  H    0.036064  -0.000000
    23  H    0.075431   0.000000
    24  H    0.109710  -0.000000
    25  H    0.067703   0.000000
    26  H    0.115574  -0.000000
    27  H    0.179197  -0.000000
    28  H    0.075442  -0.000000
    29  H    0.109706   0.000000
    30  H    0.067702   0.000000
    31  H    0.115577   0.000000
    32  H    0.179200  -0.000000
 Sum of Mulliken charges =  -2.00000  -0.00000

 Dipole moment (field-independent basis, Debye):
    X=             -0.0001    Y=              0.0001    Z=              1.5419  Tot=              1.5419
 Quadrupole moment (field-independent basis, Debye-Ang):
   XX=           -225.0454   YY=           -161.1410   ZZ=           -134.4900
   XY=             -9.2724   XZ=              0.8795   YZ=              5.9921

  Exact polarizability: 679.428 -66.790 253.514  26.349 -46.951 163.219
 Approx polarizability:1034.393-142.802 476.898  50.584-105.561 266.340

                      1                      2                      3
                      A                      A                      A
 Frequencies --     24.2753                32.3385                41.7782
 Red. masses --      5.2933                 4.2955                 4.7856
 Frc consts  --      0.0018                 0.0026                 0.0049
 IR Inten    --      3.7888                 3.6123                 0.0000

                      4                      5                      6
                      A                      A                      A
 Frequencies --     95.9557               101.2691               130.1459
 Red. masses --      5.2949                 4.9073                 8.1300
 Frc consts  --      0.0287                 0.0297                 0.0811
 IR Inten    --      3.1766                 0.0000                 8.8675

                      7                      8                      9
                      A                      A                      A
 Frequencies --    178.9472               208.1090               231.2067
 Red. masses --      5.1687                 5.0946                 6.3682
 Frc consts  --      0.0975                 0.1300                 0.2006
 IR Inten    --      0.0000                 0.6920                 0.0000

                     10                     11                     12
                      A                      A                      A
 Frequencies --    246.4245               326.4558               338.2282
 Red. masses --      5.0990                 7.1801                 6.0799
 Frc consts  --      0.1824                 0.4508                 0.4098
 IR Inten    --      0.0000                 0.0000                 9.5993

                     13                     14                     15
                      A                      A                      A
 Frequencies --    345.2859               392.1328               419.1881
 Red. masses --      8.4630                 6.2139                 3.1694
 Frc consts  --      0.5945                 0.5630                 0.3281
 IR Inten    --     10.2033                 0.0000                 0.0000

                     16                     17                     18
                      A                      A                      A
 Frequencies --    419.6849               438.1372               475.6887
 Red. masses --      3.1701                 3.4814                 7.7915
 Frc consts  --      0.3290                 0.3938                 1.0388
 IR Inten    --      1.8785                 6.8647                23.0460

                     19                     20                     21
                      A                      A                      A
 Frequencies --    477.9654               509.3284               539.4403
 Red. masses --     12.6138                 2.5162                 3.4328
 Frc consts  --      1.6978                 0.3846                 0.5886
 IR Inten    --      0.0000                15.8824                 0.0000

                     22                     23                     24
                      A                      A                      A
 Frequencies --    603.8881               631.8953               632.3422
 Red. masses --      6.8172                 6.3385                 6.2863
 Frc consts  --      1.4648                 1.4912                 1.4810
 IR Inten    --      0.0000                 1.4929                 0.0000

                     25                     26                     27
                      A                      A                      A
 Frequencies --    673.6871               681.9750               685.4990
 Red. masses --      2.1551                 2.1118                 2.0585
 Frc consts  --      0.5763                 0.5787                 0.5699
 IR Inten    --      0.0000                88.9089                64.6272

                     28                     29                     30
                      A                      A                      A
 Frequencies --    685.5643               698.0141               707.9091
 Red. masses --      2.4095                 6.3786                 3.0895
 Frc consts  --      0.6672                 1.8311                 0.9122
 IR Inten    --      0.0015                64.0325                 0.0000

                     31                     32                     33
                      A                      A                      A
 Frequencies --    717.1541               734.7605               753.7603
 Red. masses --      5.0309                 1.8978                 2.8873
 Frc consts  --      1.5245                 0.6036                 0.9665
 IR Inten    --      0.0000                 0.0000                16.3085

                     34                     35                     36
                      A                      A                      A
 Frequencies --    820.1291               821.8077               833.9322
 Red. masses --      1.3675                 1.3181                 2.1389
 Frc consts  --      0.5419                 0.5245                 0.8764
 IR Inten    --     15.3687                 0.0000                 0.0000

                     37                     38                     39
                      A                      A                      A
 Frequencies --    837.3279               844.8710               867.1626
 Red. masses --      2.8781                 2.1933                 1.5829
 Frc consts  --      1.1889                 0.9224                 0.7013
 IR Inten    --     79.6551                51.1312                13.6354

                     40                     41                     42
                      A                      A                      A
 Frequencies --    867.9745               924.6235               936.3010
 Red. masses --      1.6083                 6.6766                 1.2547
 Frc consts  --      0.7139                 3.3631                 0.6481
 IR Inten    --      0.0000                 0.0000                 2.7613

                     43                     44                     45
                      A                      A                      A
 Frequencies --    937.1232               987.1499               987.8356
 Red. masses --      1.2640                 1.3084                 1.3378
 Frc consts  --      0.6540                 0.7512                 0.7691
 IR Inten    --      0.0000                 9.2740                 0.0007

                     46                     47                     48
                      A                      A                      A
 Frequencies --    991.3849              1002.3951              1018.4346
 Red. masses --      5.4687                 5.1922                 4.1805
 Frc consts  --      3.1668                 3.0738                 2.5547
 IR Inten    --    573.1308                 0.0000                13.1149

                     49                     50                     51
                      A                      A                      A
 Frequencies --   1041.3469              1042.1026              1075.7734
 Red. masses --      2.0362                 2.1187                 1.6045
 Frc consts  --      1.3010                 1.3556                 1.0940
 IR Inten    --     57.8121                 0.0000               164.9581

                     52                     53                     54
                      A                      A                      A
 Frequencies --   1082.1236              1146.0591              1159.1780
 Red. masses --      1.6140                 1.8010                 1.0874
 Frc consts  --      1.1136                 1.3938                 0.8609
 IR Inten    --      0.0000               760.3200                 0.0000

                     55                     56                     57
                      A                      A                      A
 Frequencies --   1166.3739              1181.1600              1194.1319
 Red. masses --      1.4980                 1.2244                 1.4326
 Frc consts  --      1.2007                 1.0065                 1.2036
 IR Inten    --    266.7413                 0.0000                18.2143

                     58                     59                     60
                      A                      A                      A
 Frequencies --   1240.1555              1249.9263              1261.7356
 Red. masses --      2.2025                 4.1006                 4.5192
 Frc consts  --      1.9958                 3.7746                 4.2389
 IR Inten    --    295.0488                 0.0000                78.6903

                     61                     62                     63
                      A                      A                      A
 Frequencies --   1269.2902              1299.7509              1322.2620
 Red. masses --      1.3592                 2.4990                 4.2062
 Frc consts  --      1.2902                 2.4873                 4.3329
 IR Inten    --      0.0002                 0.0000                62.9929

                     64                     65                     66
                      A                      A                      A
 Frequencies --   1342.4920              1350.6523              1363.7659
 Red. masses --      2.6465                 1.8859                 5.7463
 Frc consts  --      2.8103                 2.0270                 6.2968
 IR Inten    --      0.0000                57.6660                 0.0000

                     67                     68                     69
                      A                      A                      A
 Frequencies --   1408.8727              1428.2006              1454.8236
 Red. masses --      4.0360                 3.3293                 2.6169
 Frc consts  --      4.7201                 4.0011                 3.2633
 IR Inten    --      0.0000               549.9047               292.7997

                     70                     71                     72
                      A                      A                      A
 Frequencies --   1467.2617              1480.2015              1505.7973
 Red. masses --      2.8571                 3.7240                 2.1164
 Frc consts  --      3.6240                 4.8073                 2.8273
 IR Inten    --      0.0000               342.7121                 0.0020

                     73                     74                     75
                      A                      A                      A
 Frequencies --   1507.4388              1564.5747              1565.0995
 Red. masses --      2.0930                 4.8744                 4.7620
 Frc consts  --      2.8022                 7.0302                 6.8726
 IR Inten    --    394.0999                 0.0005                18.4222

                     76                     77                     78
                      A                      A                      A
 Frequencies --   1598.9886              1607.4263              1616.1870
 Red. masses --      5.6920                 5.2616                 5.3550
 Frc consts  --      8.5745                 8.0100                 8.2412
 IR Inten    --      0.0000              1038.8179                 0.0000

                     79                     80                     81
                      A                      A                      A
 Frequencies --   3098.0582              3098.3764              3107.7824
 Red. masses --      1.0821                 1.0822                 1.0883
 Frc consts  --      6.1192                 6.1210                 6.1931
 IR Inten    --     49.9338                 0.0026                 0.6013

                     82                     83                     84
                      A                      A                      A
 Frequencies --   3107.8078              3135.4341              3136.0397
 Red. masses --      1.0883                 1.0936                 1.0942
 Frc consts  --      6.1932                 6.3341                 6.3401
 IR Inten    --    189.9036               301.2588                 0.0034

                     85                     86                     87
                      A                      A                      A
 Frequencies --   3139.7767              3142.3289              3165.5124
 Red. masses --      1.0875                 1.0877                 1.0932
 Frc consts  --      6.3162                 6.3279                 6.4542
 IR Inten    --     46.0170                 0.0001                26.0016

                     88                     89                     90
                      A                      A                      A
 Frequencies --   3165.9369              3185.0039              3185.3068
 Red. masses --      1.0932                 1.0885                 1.0884
 Frc consts  --      6.4560                 6.5057                 6.5064
 IR Inten    --      0.0269                47.7747                 0.0196

 - Thermochemistry -
 -------------------
 Temperature   298.150 Kelvin.  Pressure   1.00000 Atm.
 Atom     1 has atomic number  8 and mass  15.99491

 Molecular mass:   260.08373 amu.
 Principal axes and moments of inertia in atomic units:
                           1         2         3
     Eigenvalues --  1618.66032********************
           X            0.99814   0.05968  -0.01208
           Y           -0.05108   0.92868   0.36735
           Z            0.03314  -0.36606   0.93000
 This molecule is an asymmetric top.
 Rotational symmetry number  1.
 Warning -- assumption of classical behavior for rotation
           may cause significant error
 Rotational temperatures (Kelvin)      0.05351     0.00740     0.00652
 Rotational constants (GHZ):           1.11496     0.15421     0.13591
 Zero-point vibrational energy     631134.2 (Joules/Mol)
                                  150.84470 (Kcal/Mol)
 Warning -- explicit consideration of  22 degrees of freedom as
           vibrations may cause significant error
 Vibrational temperatures:     34.93    46.53    60.11   138.06   145.70
          (Kelvin)            187.25   257.47   299.42   332.65   354.55
                              469.70   486.63   496.79   564.19   603.12
                              603.83   630.38   684.41   687.69   732.81
                              776.13   868.86   909.16   909.80   969.29
                              981.21   986.28   986.37  1004.29  1018.52
                             1031.82  1057.16  1084.49  1179.98  1182.40
                             1199.84  1204.73  1215.58  1247.65  1248.82
                             1330.33  1347.13  1348.31  1420.29  1421.28
                             1426.38  1442.22  1465.30  1498.27  1499.35
                             1547.80  1556.93  1648.92  1667.80  1678.15
                             1699.43  1718.09  1784.31  1798.37  1815.36
                             1826.23  1870.05  1902.44  1931.55  1943.29
                             1962.16  2027.05  2054.86  2093.17  2111.06
                             2129.68  2166.51  2168.87  2251.07  2251.83
                             2300.59  2312.73  2325.33  4457.41  4457.87
                             4471.41  4471.44  4511.19  4512.06  4517.44
                             4521.11  4554.47  4555.08  4582.51  4582.95

 Zero-point correction=                           0.240386 (Hartree/Particle)
 Thermal correction to Energy=                    0.255952
 Thermal correction to Enthalpy=                  0.256896
 Thermal correction to Gibbs Free Energy=         0.195900
 Sum of electronic and zero-point Energies=           -843.555404
 Sum of electronic and thermal Energies=              -843.539839
 Sum of electronic and thermal Enthalpies=            -843.538895
 Sum of electronic and thermal Free Energies=         -843.599891

                     E (Thermal)             CV                S
                      KCal/Mol        Cal/Mol-Kelvin    Cal/Mol-Kelvin
 Total                  160.612             62.848            128.377
 Electronic               0.000              0.000              0.000
 Translational            0.889              2.981             42.567
 Rotational               0.889              2.981             33.886
 Vibrational            158.835             56.887             51.924
 Vibration     1          0.593              1.985              6.250
 Vibration     2          0.594              1.983              5.681
 Vibration     3          0.594              1.980              5.173
 Vibration     4          0.603              1.952              3.535
 Vibration     5          0.604              1.948              3.430
 Vibration     6          0.612              1.923              2.944
 Vibration     7          0.629              1.868              2.339
 Vibration     8          0.641              1.828              2.060
 Vibration     9          0.653              1.793              1.870
 Vibration    10          0.661              1.769              1.756
 Vibration    11          0.710              1.623              1.278
 Vibration    12          0.719              1.599              1.220
 Vibration    13          0.724              1.585              1.188
 Vibration    14          0.760              1.487              0.992
 Vibration    15          0.782              1.429              0.895
 Vibration    16          0.782              1.427              0.893
 Vibration    17          0.798              1.387              0.832
 Vibration    18          0.832              1.304              0.722
 Vibration    19          0.834              1.299              0.716
 Vibration    20          0.864              1.229              0.635
 Vibration    21          0.894              1.163              0.566
 Vibration    22          0.962              1.024              0.443

 Optimization completed.
    -- Stationary point found.
 Normal termination of Gaussian 16 at Wed Jan 10 10:28:19 2024.
