 Q-Chem 5.4, Q-Chem, Inc., Pleasanton, CA (2021)
 Q-Chem 5.4.0 for Intel X86 EM64T Linux

User input:
--------------------------------------------------------------
$molecule
-2 1
O                  1.4522290000      2.2760530000     -0.8075100000
C                  0.8083220000      1.1971700000     -0.5047100000
C                 -0.6145630000      1.1723140000     -0.4973490000
C                 -1.4388140000      0.0708140000     -0.1940640000
C                 -0.8082850000     -1.1971970000      0.1835890000
O                 -1.4521660000     -2.2760890000      0.4864280000
C                  0.6145890000     -1.1723280000      0.1762560000
C                  1.4388270000     -0.0708500000     -0.1270920000
C                  2.9013900000     -0.2100880000     -0.0424510000
C                  3.5205640000     -1.3196280000      0.5961380000
C                  4.9016390000     -1.4691050000      0.6571350000
C                  5.7551190000     -0.5152830000      0.0908540000
C                  5.1721830000      0.5958230000     -0.5297550000
C                  3.7908330000      0.7527070000     -0.5945970000
C                 -2.9013890000      0.2100940000     -0.2785550000
C                 -3.5206200000      1.3196320000     -0.9170990000
C                 -4.9017000000      1.4691180000     -0.9779730000
C                 -5.7551410000      0.5153120000     -0.4116110000
C                 -5.1721590000     -0.5958120000      0.2089180000
C                 -3.7908060000     -0.7527090000      0.2736440000
H                 -1.0597190000      2.1327260000     -0.7383980000
H                  1.0597750000     -2.1327070000      0.4173880000
H                  2.9000930000     -2.0714240000      1.0675450000
H                  5.3187950000     -2.3383760000      1.1625800000
H                  6.8350270000     -0.6298440000      0.1421180000
H                  5.8091850000      1.3596620000     -0.9730210000
H                  3.3344960000      1.6252500000     -1.0468900000
H                 -2.9002070000      2.0714180000     -1.3885940000
H                 -5.3188910000      2.3383930000     -1.4833830000
H                 -6.8350530000      0.6298800000     -0.4627880000
H                 -5.8091270000     -1.3596570000      0.6522240000
H                 -3.3344280000     -1.6252700000      0.7258680000
$end

$rem
BASIS  =  6-311++G(d,p)
GUI  =  2
JOB_TYPE  =  SP
METHOD  =  B3LYP
SCF_CONVERGENCE  = 8
SOLVENT_METHOD = sm12
$end

$smx
solvent dimethylformamide
charges CM5
$end

--------------------------------------------------------------

             Standard Nuclear Orientation (Angstroms)
    I     Atom           X                Y                Z
 ----------------------------------------------------------------
    1      O       1.4522290000     2.2760530000    -0.8075100000
    2      C       0.8083220000     1.1971700000    -0.5047100000
    3      C      -0.6145630000     1.1723140000    -0.4973490000
    4      C      -1.4388140000     0.0708140000    -0.1940640000
    5      C      -0.8082850000    -1.1971970000     0.1835890000
    6      O      -1.4521660000    -2.2760890000     0.4864280000
    7      C       0.6145890000    -1.1723280000     0.1762560000
    8      C       1.4388270000    -0.0708500000    -0.1270920000
    9      C       2.9013900000    -0.2100880000    -0.0424510000
   10      C       3.5205640000    -1.3196280000     0.5961380000
   11      C       4.9016390000    -1.4691050000     0.6571350000
   12      C       5.7551190000    -0.5152830000     0.0908540000
   13      C       5.1721830000     0.5958230000    -0.5297550000
   14      C       3.7908330000     0.7527070000    -0.5945970000
   15      C      -2.9013890000     0.2100940000    -0.2785550000
   16      C      -3.5206200000     1.3196320000    -0.9170990000
   17      C      -4.9017000000     1.4691180000    -0.9779730000
   18      C      -5.7551410000     0.5153120000    -0.4116110000
   19      C      -5.1721590000    -0.5958120000     0.2089180000
   20      C      -3.7908060000    -0.7527090000     0.2736440000
   21      H      -1.0597190000     2.1327260000    -0.7383980000
   22      H       1.0597750000    -2.1327070000     0.4173880000
   23      H       2.9000930000    -2.0714240000     1.0675450000
   24      H       5.3187950000    -2.3383760000     1.1625800000
   25      H       6.8350270000    -0.6298440000     0.1421180000
   26      H       5.8091850000     1.3596620000    -0.9730210000
   27      H       3.3344960000     1.6252500000    -1.0468900000
   28      H      -2.9002070000     2.0714180000    -1.3885940000
   29      H      -5.3188910000     2.3383930000    -1.4833830000
   30      H      -6.8350530000     0.6298800000    -0.4627880000
   31      H      -5.8091270000    -1.3596570000     0.6522240000
   32      H      -3.3344280000    -1.6252700000     0.7258680000
 ----------------------------------------------------------------

   16    -843.7795955851      8.73e-09  Convergence criterion met
 Total energy in the final basis set =     -844.0606116786

                    Orbital Energies (a.u.)
 --------------------------------------------------------------

 Alpha MOs
 -- Occupied --
-19.0247 -19.0247 -10.1890 -10.1890 -10.1864 -10.1864 -10.1832 -10.1832
-10.1808 -10.1808 -10.1800 -10.1800 -10.1765 -10.1765 -10.1644 -10.1644
-10.1565 -10.1565 -10.1369 -10.1369  -0.9429  -0.9399  -0.8589  -0.8588
 -0.8017  -0.7774  -0.7488  -0.7487  -0.7440  -0.7000  -0.6618  -0.6291
 -0.6106  -0.6057  -0.5920  -0.5640  -0.5475  -0.5189  -0.5003  -0.4724
 -0.4670  -0.4616  -0.4499  -0.4357  -0.4264  -0.4235  -0.4214  -0.4188
 -0.3984  -0.3846  -0.3800  -0.3756  -0.3648  -0.3577  -0.3514  -0.3443
 -0.3397  -0.3392  -0.3270  -0.3214  -0.2887  -0.2705  -0.2611  -0.2610
 -0.2233  -0.2071  -0.1985  -0.1973  -0.1306

          Ground-State Mulliken Net Atomic Charges

     Atom                 Charge (a.u.)
  ----------------------------------------
      1 O                    -0.342513
      2 C                    -2.157694
      3 C                    -1.961169
      4 C                    -0.614963
      5 C                    -2.157423
      6 O                    -0.342512
      7 C                    -1.960887
      8 C                    -0.615166
      9 C                    -0.958588
     10 C                    -0.673281
     11 C                     1.221548
     12 C                     2.811528
     13 C                     0.963171
     14 C                    -0.747460
     15 C                    -0.958620
     16 C                    -0.673238
     17 C                     1.221814
     18 C                     2.811519
     19 C                     0.963086
     20 C                    -0.747575
     21 H                    -0.125425
     22 H                    -0.125434
     23 H                     0.262580
     24 H                     0.369590
     25 H                     0.513416
     26 H                     0.316341
     27 H                     0.122711
     28 H                     0.262606
     29 H                     0.369588
     30 H                     0.513411
     31 H                     0.316341
     32 H                     0.122699
  ----------------------------------------
  Sum of atomic charges =    -2.000000

                    Cartesian Multipole Moments
 -----------------------------------------------------------------
    Charge (ESU x 10^10)
                -9.6064
    Dipole Moment (Debye)
         X      -0.0002      Y       0.0001      Z       1.5421
       Tot       1.5421
    Quadrupole Moments (Debye-Ang)
        XX    -183.5565     XY     -15.0642     YY    -161.3528
        XZ       3.8228     YZ       5.0569     ZZ    -134.4232

 Total job time:  915.95s(wall), 7173.03s(cpu)
        *  Thank you very much for using Q-Chem.  Have a nice day.  *
