 Gaussian 16, Revision A.03,
 Gaussian 16:  ES64L-G16RevA.03 25-Dec-2016

 ----------------------------------------------------------------------
 #P UB3LYP/6-311++G(d,p) nosym opt freq SCRF=(PCM,Solvent=n,n-DiMethylF
 ormamide)
 ----------------------------------------------------------------------

 --------
 Oxidized
 --------
 Symbolic Z-matrix:
 Charge =  0 Multiplicity = 1

 SCF Done:  E(UB3LYP) =  -783.663194396     A.U. after   14 cycles
 SCF Done:  E(UB3LYP) =  -783.663309270     A.U. after   12 cycles
 SCF Done:  E(UB3LYP) =  -783.663351555     A.U. after   11 cycles
 SCF Done:  E(UB3LYP) =  -783.663363513     A.U. after   10 cycles
 SCF Done:  E(UB3LYP) =  -783.663364006     A.U. after    9 cycles
 SCF Done:  E(UB3LYP) =  -783.663364438     A.U. after    9 cycles
 Optimization completed.
    -- Stationary point found.
 Normal termination of Gaussian 16 at Sat Feb 10 16:24:29 2024.

 ----------------------------------------------------------------------
 #P Geom=AllCheck Guess=TCheck SCRF=Check GenChk UB3LYP/6-311++G(d,p) F
 req
 ----------------------------------------------------------------------

 Structure from the checkpoint file:  "170.chk"
 --------
 Oxidized
 --------
 Charge =  0 Multiplicity = 1

                          Input orientation:
 ---------------------------------------------------------------------
 Center     Atomic      Atomic             Coordinates (Angstroms)
 Number     Number       Type             X           Y           Z
 ---------------------------------------------------------------------
      1          6           0        3.939430    1.265080   -1.299584
      2          7           0        2.537116    1.057615   -0.983338
      3          6           0        2.048622    0.007274   -0.285699
      4          6           0        2.929020   -0.998934    0.197912
      5          6           0        2.455458   -2.079253    0.910977
      6          6           0        1.089077   -2.219693    1.182297
      7          6           0        0.197187   -1.259560    0.728443
      8          6           0       -1.248591   -1.459326    1.047475
      9          8           0       -1.629420   -2.435169    1.685566
     10          6           0       -2.211615   -0.438019    0.566792
     11          6           0       -3.575285   -0.587001    0.843342
     12          6           0       -4.487810    0.362085    0.398594
     13          6           0       -4.042006    1.470095   -0.327847
     14          6           0       -2.688304    1.624779   -0.606422
     15          6           0       -1.761961    0.674682   -0.163172
     16          6           0       -0.315565    0.868006   -0.478451
     17          8           0        0.024875    1.871265   -1.126738
     18          6           0        0.643762   -0.129586   -0.011201
     19          1           0        4.344280    0.450418   -1.908711
     20          1           0        4.550817    1.359844   -0.396369
     21          1           0        4.023749    2.190232   -1.867499
     22          1           0        1.847651    1.732419   -1.293595
     23          1           0        3.989108   -0.913429    0.001982
     24          1           0        3.154172   -2.828667    1.265207
     25          1           0        0.715621   -3.066386    1.741640
     26          1           0       -3.902112   -1.451486    1.407150
     27          1           0       -5.542972    0.242860    0.614816
     28          1           0       -4.752193    2.211304   -0.675582
     29          1           0       -2.332110    2.478548   -1.167984
 ---------------------------------------------------------------------

 SCF Done:  E(UB3LYP) =  -783.663364438     A.U. after    2 cycles

 Alpha  occ. eigenvalues --  -19.12675 -19.12385 -14.34182 -10.27966 -10.27668
 Alpha  occ. eigenvalues --  -10.24608 -10.20676 -10.20663 -10.20612 -10.20497
 Alpha  occ. eigenvalues --  -10.20161 -10.19730 -10.19698 -10.19660 -10.19600
 Alpha  occ. eigenvalues --  -10.19485 -10.19087 -10.18590  -1.05960  -1.05491
 Alpha  occ. eigenvalues --   -0.95825  -0.88897  -0.86978  -0.80979  -0.77664
 Alpha  occ. eigenvalues --   -0.77098  -0.76805  -0.70586  -0.68728  -0.65971
 Alpha  occ. eigenvalues --   -0.64558  -0.60918  -0.59043  -0.55988  -0.55290
 Alpha  occ. eigenvalues --   -0.52683  -0.50269  -0.49579  -0.48531  -0.47272
 Alpha  occ. eigenvalues --   -0.46404  -0.46133  -0.45432  -0.44943  -0.44564
 Alpha  occ. eigenvalues --   -0.43976  -0.42799  -0.41417  -0.40591  -0.39234
 Alpha  occ. eigenvalues --   -0.38796  -0.38744  -0.37253  -0.36824  -0.36547
 Alpha  occ. eigenvalues --   -0.32122  -0.28809  -0.28426  -0.27690  -0.27493
 Alpha  occ. eigenvalues --   -0.27219  -0.22156
 Alpha virt. eigenvalues --   -0.11633  -0.06610  -0.03516  -0.01497  -0.00785
 Alpha virt. eigenvalues --   -0.00030   0.00627   0.01552   0.01791   0.03064
 Alpha virt. eigenvalues --    0.03121   0.03639   0.03663   0.03972   0.04225

  Beta  occ. eigenvalues --  -19.12675 -19.12385 -14.34182 -10.27966 -10.27668
  Beta  occ. eigenvalues --  -10.24608 -10.20676 -10.20663 -10.20612 -10.20497
  Beta  occ. eigenvalues --  -10.20161 -10.19730 -10.19698 -10.19660 -10.19600
  Beta  occ. eigenvalues --  -10.19485 -10.19087 -10.18590  -1.05960  -1.05491
  Beta  occ. eigenvalues --   -0.95825  -0.88897  -0.86978  -0.80979  -0.77664
  Beta  occ. eigenvalues --   -0.77098  -0.76805  -0.70586  -0.68728  -0.65971
  Beta  occ. eigenvalues --   -0.64558  -0.60918  -0.59043  -0.55988  -0.55290
  Beta  occ. eigenvalues --   -0.52683  -0.50269  -0.49579  -0.48531  -0.47272
  Beta  occ. eigenvalues --   -0.46404  -0.46133  -0.45432  -0.44943  -0.44564
  Beta  occ. eigenvalues --   -0.43976  -0.42799  -0.41417  -0.40591  -0.39234
  Beta  occ. eigenvalues --   -0.38796  -0.38744  -0.37253  -0.36824  -0.36547
  Beta  occ. eigenvalues --   -0.32122  -0.28809  -0.28426  -0.27690  -0.27493
  Beta  occ. eigenvalues --   -0.27219  -0.22156
  Beta virt. eigenvalues --   -0.11633  -0.06610  -0.03516  -0.01497  -0.00785
  Beta virt. eigenvalues --   -0.00030   0.00627   0.01552   0.01791   0.03064
  Beta virt. eigenvalues --    0.03121   0.03639   0.03663   0.03972   0.04225

 Mulliken charges and spin densities:
               1          2
     1  C   -0.356544   0.000000
     2  N   -0.263568   0.000000
     3  C    0.088258  -0.000000
     4  C    0.057875   0.000000
     5  C   -0.439970  -0.000000
     6  C    0.048911  -0.000000
     7  C    0.590467   0.000000
     8  C   -0.591079   0.000000
     9  O   -0.285213  -0.000000
    10  C    0.040865  -0.000000
    11  C    0.108417  -0.000000
    12  C   -0.429725  -0.000000
    13  C   -0.441669  -0.000000
    14  C    0.157582  -0.000000
    15  C    0.001496   0.000000
    16  C   -0.271876   0.000000
    17  O   -0.322241   0.000000
    18  C    0.039007   0.000000
    19  H    0.172209   0.000000
    20  H    0.172415   0.000000
    21  H    0.172725  -0.000000
    22  H    0.396446   0.000000
    23  H    0.194067   0.000000
    24  H    0.215567  -0.000000
    25  H    0.172734  -0.000000
    26  H    0.179810   0.000000
    27  H    0.203608  -0.000000
    28  H    0.206135   0.000000
    29  H    0.183294  -0.000000
 Sum of Mulliken charges =  -0.00000  -0.00000

 Dipole moment (field-independent basis, Debye):
    X=              2.8750    Y=              1.8459    Z=             -1.5023  Tot=              3.7323
 Quadrupole moment (field-independent basis, Debye-Ang):
   XX=            -70.7786   YY=           -109.5478   ZZ=           -109.2346
   XY=             -7.8508   XZ=             -0.4024   YZ=              1.9295

  Exact polarizability: 415.833 -27.114 277.234 -22.936 -84.609 184.035
 Approx polarizability: 443.643 -20.914 345.154 -27.384-112.793 223.934

                      1                      2                      3
                      A                      A                      A
 Frequencies --     36.8773                61.0981               107.8819
 Red. masses --      6.6437                 4.2798                 4.0184
 Frc consts  --      0.0053                 0.0094                 0.0276
 IR Inten    --     10.9969                 1.1348                 0.7950

                      4                      5                      6
                      A                      A                      A
 Frequencies --    125.9426               156.7197               175.4644
 Red. masses --      4.5323                 2.3512                 3.8045
 Frc consts  --      0.0424                 0.0340                 0.0690
 IR Inten    --      2.7603                 1.6449                 0.8407

                      7                      8                      9
                      A                      A                      A
 Frequencies --    177.3833               213.9612               271.2221
 Red. masses --      2.4768                 2.1541                 4.8788
 Frc consts  --      0.0459                 0.0581                 0.2115
 IR Inten    --      0.5462                 0.0313                 1.2691

                     10                     11                     12
                      A                      A                      A
 Frequencies --    272.9087               322.3493               344.2446
 Red. masses --      4.1727                 4.7384                 7.4038
 Frc consts  --      0.1831                 0.2901                 0.5169
 IR Inten    --      1.7830                 1.8112                 1.2201

                     13                     14                     15
                      A                      A                      A
 Frequencies --    375.3221               422.2301               424.8645
 Red. masses --      8.2410                12.5773                 3.3741
 Frc consts  --      0.6840                 1.3211                 0.3589
 IR Inten    --     17.1042                42.9071                 1.1299

                     16                     17                     18
                      A                      A                      A
 Frequencies --    433.6192               475.7935               481.1439
 Red. masses --      4.9367                 9.9425                 7.0437
 Frc consts  --      0.5469                 1.3261                 0.9607
 IR Inten    --      0.0083                 6.4242                 3.3088

                     19                     20                     21
                      A                      A                      A
 Frequencies --    489.0081               556.6910               602.6875
 Red. masses --      3.6961                 3.9781                 5.9747
 Frc consts  --      0.5207                 0.7264                 1.2787
 IR Inten    --      6.2944                17.0294                 5.0929

                     22                     23                     24
                      A                      A                      A
 Frequencies --    612.1064               634.3810               672.1055
 Red. masses --      1.1145                 5.3408                 4.1246
 Frc consts  --      0.2460                 1.2664                 1.0978
 IR Inten    --    117.9824                 0.3409                11.7497

                     25                     26                     27
                      A                      A                      A
 Frequencies --    674.4466               703.7671               721.0553
 Red. masses --      5.8789                 6.6758                 2.5636
 Frc consts  --      1.5756                 1.9481                 0.7853
 IR Inten    --     22.9194                 1.4598                62.1273

                     28                     29                     30
                      A                      A                      A
 Frequencies --    742.5706               784.9363               791.5931
 Red. masses --      2.2276                 2.2468                 6.1206
 Frc consts  --      0.7237                 0.8156                 2.2597
 IR Inten    --     89.5259                12.6192                 2.6750

                     31                     32                     33
                      A                      A                      A
 Frequencies --    808.8798               827.9739               867.9264
 Red. masses --      2.5963                 2.3711                 6.1456
 Frc consts  --      1.0009                 0.9577                 2.7276
 IR Inten    --      0.3525                47.7068                38.5603

                     34                     35                     36
                      A                      A                      A
 Frequencies --    909.2487               916.0594               927.3382
 Red. masses --      1.3800                 1.4714                 6.5660
 Frc consts  --      0.6722                 0.7275                 3.3268
 IR Inten    --      0.0487                 0.1106                 4.2356

                     37                     38                     39
                      A                      A                      A
 Frequencies --    994.1550              1000.8092              1004.3639
 Red. masses --      5.5655                 1.3815                 1.3260
 Frc consts  --      3.2409                 0.8153                 0.7881
 IR Inten    --    205.8968                 1.8395                 0.8812

                     40                     41                     42
                      A                      A                      A
 Frequencies --   1021.9290              1055.0944              1091.3858
 Red. masses --      1.3271                 2.0743                 2.1248
 Frc consts  --      0.8166                 1.3605                 1.4912
 IR Inten    --      0.0169                 4.5111                37.7694

                     43                     44                     45
                      A                      A                      A
 Frequencies --   1105.6035              1112.8785              1141.9375
 Red. masses --      2.1355                 2.3703                 1.2812
 Frc consts  --      1.5380                 1.7296                 0.9843
 IR Inten    --      0.8961                 1.1059                 0.2594

                     46                     47                     48
                      A                      A                      A
 Frequencies --   1171.5100              1174.1510              1183.9397
 Red. masses --      1.5579                 2.0883                 1.5353
 Frc consts  --      1.2598                 1.6963                 1.2679
 IR Inten    --      3.0140                21.0083                69.4178

                     49                     50                     51
                      A                      A                      A
 Frequencies --   1201.3903              1211.7797              1258.1283
 Red. masses --      1.2819                 1.7827                 2.1060
 Frc consts  --      1.0901                 1.5424                 1.9640
 IR Inten    --     91.0093                10.2183               198.8142

                     52                     53                     54
                      A                      A                      A
 Frequencies --   1278.8437              1317.2245              1333.5362
 Red. masses --      3.6410                 2.6760                 2.0258
 Frc consts  --      3.5083                 2.7356                 2.1225
 IR Inten    --   1327.5427               216.7567               143.0992

                     55                     56                     57
                      A                      A                      A
 Frequencies --   1356.7230              1383.7619              1427.7368
 Red. masses --      7.9366                 8.1333                 2.6062
 Frc consts  --      8.6073                 9.1757                 3.1300
 IR Inten    --     22.9288                43.0326               142.2234

                     58                     59                     60
                      A                      A                      A
 Frequencies --   1458.9707              1478.2804              1482.0885
 Red. masses --      1.3934                 2.3331                 1.0393
 Frc consts  --      1.7475                 3.0039                 1.3450
 IR Inten    --     20.8689                20.3517                14.1314

                     61                     62                     63
                      A                      A                      A
 Frequencies --   1489.1272              1504.2179              1507.8523
 Red. masses --      2.3571                 1.9114                 1.3073
 Frc consts  --      3.0795                 2.5481                 1.7513
 IR Inten    --      5.7846                 8.4882                15.4537

                     64                     65                     66
                      A                      A                      A
 Frequencies --   1549.0162              1598.2279              1601.7581
 Red. masses --      3.1020                 2.5604                 7.7230
 Frc consts  --      4.3854                 3.8533                11.6744
 IR Inten    --    368.2599               233.9129                65.6471

                     67                     68                     69
                      A                      A                      A
 Frequencies --   1619.1957              1621.5322              1650.4445
 Red. masses --      5.8912                 5.5682                 7.8659
 Frc consts  --      9.1002                 8.6261                12.6242
 IR Inten    --     40.3078               586.0474               447.0563

                     70                     71                     72
                      A                      A                      A
 Frequencies --   1689.6746              3011.1546              3058.2811
 Red. masses --     11.2187                 1.0378                 1.1045
 Frc consts  --     18.8712                 5.5438                 6.0868
 IR Inten    --    319.4160               140.5837                44.6814

                     73                     74                     75
                      A                      A                      A
 Frequencies --   3131.4843              3176.8675              3178.3564
 Red. masses --      1.0980                 1.0874                 1.0892
 Frc consts  --      6.3437                 6.4663                 6.4829
 IR Inten    --     21.4520                 3.8996                18.0872

                     76                     77                     78
                      A                      A                      A
 Frequencies --   3189.6833              3203.6285              3207.8350
 Red. masses --      1.0918                 1.0931                 1.0939
 Frc consts  --      6.5446                 6.6101                 6.6324
 IR Inten    --     15.2010                 8.4043                17.2331

                     79                     80                     81
                      A                      A                      A
 Frequencies --   3210.5173              3213.9818              3509.8567
 Red. masses --      1.0905                 1.0938                 1.0790
 Frc consts  --      6.6225                 6.6567                 7.8317
 IR Inten    --      4.4650                 9.1874               158.0607

 - Thermochemistry -
 -------------------
 Temperature   298.150 Kelvin.  Pressure   1.00000 Atm.
 Atom     1 has atomic number  6 and mass  12.00000

 Molecular mass:   237.07898 amu.
 Principal axes and moments of inertia in atomic units:
                           1         2         3
     Eigenvalues --  2274.782995432.901517696.32265
           X            0.99311  -0.00885   0.11687
           Y           -0.05251   0.85789   0.51114
           Z           -0.10478  -0.51375   0.85152
 This molecule is an asymmetric top.
 Rotational symmetry number  1.
 Warning -- assumption of classical behavior for rotation
           may cause significant error
 Rotational temperatures (Kelvin)      0.03808     0.01594     0.01125
 Rotational constants (GHZ):           0.79337     0.33219     0.23449
 Zero-point vibrational energy     587909.0 (Joules/Mol)
                                  140.51363 (Kcal/Mol)
 Warning -- explicit consideration of  22 degrees of freedom as
           vibrations may cause significant error
 Vibrational temperatures:     53.06    87.91   155.22   181.20   225.48
          (Kelvin)            252.45   255.22   307.84   390.23   392.65
                              463.79   495.29   540.00   607.49   611.29
                              623.88   684.56   692.26   703.57   800.95
                              867.13   880.68   912.73   967.01   970.38
                             1012.56  1037.44  1068.39  1129.35  1138.93
                             1163.80  1191.27  1248.75  1308.21  1318.01
                             1334.23  1430.37  1439.94  1445.06  1470.33
                             1518.05  1570.26  1590.72  1601.18  1642.99
                             1685.54  1689.34  1703.43  1728.53  1743.48
                             1810.17  1839.97  1895.19  1918.66  1952.02
                             1990.92  2054.19  2099.13  2126.92  2132.39
                             2142.52  2164.23  2169.46  2228.69  2299.49
                             2304.57  2329.66  2333.02  2374.62  2431.06
                             4332.38  4400.18  4505.51  4570.80  4572.95
                             4589.24  4609.31  4615.36  4619.22  4624.20
                             5049.90

 Zero-point correction=                           0.223923 (Hartree/Particle)
 Thermal correction to Energy=                    0.237978
 Thermal correction to Enthalpy=                  0.238922
 Thermal correction to Gibbs Free Energy=         0.182850
 Sum of electronic and zero-point Energies=           -783.439442
 Sum of electronic and thermal Energies=              -783.425387
 Sum of electronic and thermal Enthalpies=            -783.424442
 Sum of electronic and thermal Free Energies=         -783.480514

                     E (Thermal)             CV                S
                      KCal/Mol        Cal/Mol-Kelvin    Cal/Mol-Kelvin
 Total                  149.333             56.038            118.013
 Electronic               0.000              0.000              0.000
 Translational            0.889              2.981             42.291
 Rotational               0.889              2.981             32.920
 Vibrational            147.556             50.076             42.802
 Vibration     1          0.594              1.982              5.420
 Vibration     2          0.597              1.973              4.421
 Vibration     3          0.606              1.943              3.307
 Vibration     4          0.611              1.927              3.007
 Vibration     5          0.620              1.895              2.589
 Vibration     6          0.627              1.873              2.376
 Vibration     7          0.628              1.870              2.356
 Vibration     8          0.644              1.820              2.010
 Vibration     9          0.675              1.726              1.588
 Vibration    10          0.676              1.723              1.578
 Vibration    11          0.707              1.631              1.298
 Vibration    12          0.723              1.587              1.192
 Vibration    13          0.746              1.523              1.058
 Vibration    14          0.785              1.422              0.884
 Vibration    15          0.787              1.416              0.876
 Vibration    16          0.794              1.397              0.847
 Vibration    17          0.832              1.304              0.721
 Vibration    18          0.837              1.292              0.707
 Vibration    19          0.845              1.274              0.686
 Vibration    20          0.912              1.125              0.530
 Vibration    21          0.961              1.026              0.445
 Vibration    22          0.971              1.006              0.429

                           ! Non-Optimized Parameters !
 Normal termination of Gaussian 16 at Sat Feb 10 17:47:39 2024.
