 Q-Chem 5.4, Q-Chem, Inc., Pleasanton, CA (2021)
 Q-Chem 5.4.0 for Intel X86 EM64T Linux

User input:
--------------------------------------------------------------
$molecule
-2 1
O                  3.9123840000      2.7713940000      0.9778710000
C                  3.0207080000      1.8996060000      1.0370800000
N                  2.9423720000      0.9427960000      1.9948090000
C                  1.9483320000     -0.1214750000      2.1421160000
O                  2.1391740000     -0.8718440000      3.1319720000
C                  0.9437470000     -0.1284940000      1.1505430000
N                 -0.0949270000     -1.0796780000      1.1474890000
C                 -0.9934490000     -0.9815080000      0.1682210000
C                 -2.0939600000     -1.9012320000      0.0665300000
C                 -3.0490500000     -1.8187510000     -0.9515630000
C                 -2.9851840000     -0.8305040000     -1.9342560000
C                 -1.9065440000      0.0970330000     -1.8661170000
C                 -0.9427260000      0.0442530000     -0.8720850000
N                  0.1014270000      0.9876550000     -0.8536270000
C                  0.9648910000      0.8582640000      0.1276530000
N                  2.0045640000      1.8141620000      0.1234800000
H                  3.6635060000      0.9337820000      2.6992690000
H                 -2.1594690000     -2.6771150000      0.8253850000
H                 -3.8605550000     -2.5480710000     -0.9711260000
H                 -3.7264660000     -0.7670800000     -2.7269440000
H                 -1.8111020000      0.8864890000     -2.6105950000
H                  1.9797280000      2.4933180000     -0.6222680000
$end
$rem
MAX_SCF_CYCLES=200
BASIS  =  6-311++G(d,p)
GUI  =  2
JOB_TYPE  =  SP
METHOD  =  B3LYP
SOLVENT_METHOD = COSMO
$end
$solvent
dielectric 37.219
opticaldielectric 1.43
$end

--------------------------------------------------------------

             Standard Nuclear Orientation (Angstroms)
    I     Atom           X                Y                Z
 ----------------------------------------------------------------
    1      O       4.1428701370    -1.5248947014     0.0021861940
    2      C       3.0967376556    -0.8435675810    -0.0003234077
    3      N       3.0612811106     0.5119904351    -0.0088110943
    4      C       1.8933233319     1.3942114240    -0.0018548680
    5      O       2.1726441464     2.6194729831    -0.0036437854
    6      C       0.6509516514     0.7242075486     0.0061898497
    7      N      -0.5727567782     1.4214455221     0.0052440018
    8      C      -1.6822034807     0.6831635110     0.0016893596
    9      C      -2.9856962657     1.2900092431     0.0032936640
   10      C      -4.1639314069     0.5368405804    -0.0002131509
   11      C      -4.1387891627    -0.8580589940    -0.0046376350
   12      C      -2.8642247709    -1.4936039354    -0.0040916438
   13      C      -1.6773427315    -0.7786738350    -0.0000347325
   14      N      -0.4457289120    -1.4596517471    -0.0000775180
   15      C       0.6236157607    -0.6969451643     0.0017079851
   16      N       1.8469801919    -1.4026719015     0.0044626674
   17      H       3.9447779247     0.9975469529    -0.0019091134
   18      H      -3.0233753970     2.3766198438     0.0054044203
   19      H      -5.1217942776     1.0596493793     0.0004341228
   20      H      -5.0545141104    -1.4439965440    -0.0055759112
   21      H      -2.7906739068    -2.5804270072    -0.0059150249
   22      H       1.7783927267    -2.4093018224     0.0031433166
 ----------------------------------------------------------------

   11    -754.3569967605      5.73e-06  Convergence criterion met
 Total energy in the final basis set =     -754.3569967605
    6    -754.6341753525      5.31e-06  Convergence criterion met
 Total energy in the final basis set =     -754.6341753525

                    Orbital Energies (a.u.)
 --------------------------------------------------------------

 Alpha MOs
 -- Occupied --
-19.0870 -19.0605 -14.3405 -14.3312 -14.2660 -14.2398 -10.2984 -10.2362
-10.2326 -10.1754 -10.1704 -10.1616 -10.1453 -10.1384 -10.1327 -10.1276
 -1.0487  -0.9972  -0.9583  -0.9111  -0.8841  -0.8442  -0.8037  -0.7341
 -0.7099  -0.6629  -0.6426  -0.6148  -0.5702  -0.5599  -0.5287  -0.5250
 -0.4830  -0.4634  -0.4550  -0.4487  -0.4333  -0.4175  -0.4066  -0.3999
 -0.3919  -0.3870  -0.3707  -0.3370  -0.3360  -0.3266  -0.2924  -0.2860
 -0.2750  -0.2739  -0.2645  -0.2435  -0.2177  -0.2164  -0.2035  -0.1037

          Ground-State Mulliken Net Atomic Charges

     Atom                 Charge (a.u.)
  ----------------------------------------
      1 O                    -0.545230
      2 C                     0.439982
      3 N                    -0.485800
      4 C                     0.157044
      5 O                    -0.631264
      6 C                     0.006842
      7 N                    -0.448321
      8 C                     0.022191
      9 C                    -0.337461
     10 C                    -0.371072
     11 C                    -0.378073
     12 C                    -0.293787
     13 C                     0.114453
     14 N                    -0.377225
     15 C                     0.210931
     16 N                    -0.478266
     17 H                     0.404668
     18 H                     0.150322
     19 H                     0.165050
     20 H                     0.163869
     21 H                     0.153016
     22 H                     0.358131
  ----------------------------------------
  Sum of atomic charges =    -2.000000

                    Cartesian Multipole Moments
 -----------------------------------------------------------------
    Charge (ESU x 10^10)
                -9.6064
    Dipole Moment (Debye)
         X      -1.5640      Y      -6.2773      Z      -0.0001
       Tot       6.4692
    Quadrupole Moments (Debye-Ang)
        XX    -163.3792     XY      -0.9232     YY    -137.8984
        XZ       0.0301     YZ       0.0219     ZZ    -102.5728

 Total job time:  44.09s(wall), 327.56s(cpu)
        *  Thank you very much for using Q-Chem.  Have a nice day.  *
