 Gaussian 16, Revision A.03,
 Gaussian 16:  ES64L-G16RevA.03 25-Dec-2016

 --------------------------------------
 #P UB3LYP/6-311++G(d,p) nosym opt freq
 --------------------------------------

 --------
 Oxidized
 --------
 Symbolic Z-matrix:
 Charge =  0 Multiplicity = 1

 SCF Done:  E(UB3LYP) =  -1148.56418568     A.U. after   16 cycles
 SCF Done:  E(UB3LYP) =  -1148.57503466     A.U. after   15 cycles
 SCF Done:  E(UB3LYP) =  -1148.57556462     A.U. after   13 cycles
 SCF Done:  E(UB3LYP) =  -1148.57559889     A.U. after   12 cycles
 SCF Done:  E(UB3LYP) =  -1148.57560112     A.U. after   10 cycles
 Optimization completed.
    -- Stationary point found.
 Normal termination of Gaussian 16 at Thu Dec 21 05:47:40 2023.

 ----------------------------------------------------------------------
 #P Geom=AllCheck Guess=TCheck SCRF=Check GenChk UB3LYP/6-311++G(d,p) F
 req
 ----------------------------------------------------------------------

 Structure from the checkpoint file:  "118.chk"
 --------
 Oxidized
 --------
 Charge =  0 Multiplicity = 1

                          Input orientation:
 ---------------------------------------------------------------------
 Center     Atomic      Atomic             Coordinates (Angstroms)
 Number     Number       Type             X           Y           Z
 ---------------------------------------------------------------------
      1         17           0        5.191286   -1.481940   -0.005929
      2          6           0        3.660536   -0.641240   -0.151633
      3          6           0        3.657505    0.716354   -0.479699
      4          6           0        2.445086    1.381559   -0.594937
      5          6           0        1.238964    0.705247   -0.386102
      6          6           0       -0.045130    1.451244   -0.518102
      7          8           0       -0.060416    2.637227   -0.804630
      8          6           0       -1.307846    0.690597   -0.287232
      9          6           0       -2.531342    1.357284   -0.402853
     10          6           0       -3.722560    0.672651   -0.193144
     11          6           0       -3.702777   -0.685950    0.134466
     12          6           0       -2.491784   -1.357514    0.251786
     13          6           0       -1.288086   -0.677007    0.042567
     14          6           0       -0.004339   -1.423557    0.175283
     15          8           0        0.018321   -2.608682    0.460568
     16          6           0        1.260753   -0.660546   -0.056781
     17          6           0        2.477983   -1.335329    0.060572
     18          1           0        4.593396    1.236062   -0.640515
     19          1           0        2.412279    2.434030   -0.848172
     20          1           0       -2.523676    2.409841   -0.657511
     21          1           0       -4.668630    1.194018   -0.283985
     22          1           0       -4.633366   -1.217538    0.297528
     23          1           0       -2.453313   -2.409783    0.504748
     24          1           0        2.477157   -2.387029    0.314843
 ---------------------------------------------------------------------

 SCF Done:  E(UB3LYP) =  -1148.57560112     A.U. after    1 cycles

 Alpha  occ. eigenvalues -- -101.57175 -19.13489 -19.13288 -10.28734 -10.28562
 Alpha  occ. eigenvalues --  -10.26706 -10.22171 -10.21755 -10.21598 -10.21573
 Alpha  occ. eigenvalues --  -10.21519 -10.21280 -10.21179 -10.20809 -10.20755
 Alpha  occ. eigenvalues --  -10.20503 -10.20473  -9.48633  -7.25096  -7.24123
 Alpha  occ. eigenvalues --   -7.24069  -1.06961  -1.06668  -0.92159  -0.89665
 Alpha  occ. eigenvalues --   -0.87069  -0.81460  -0.79121  -0.78563  -0.76902
 Alpha  occ. eigenvalues --   -0.69739  -0.67678  -0.64944  -0.63002  -0.59566
 Alpha  occ. eigenvalues --   -0.57150  -0.56156  -0.51440  -0.50414  -0.49873
 Alpha  occ. eigenvalues --   -0.49189  -0.46625  -0.46247  -0.45899  -0.45728
 Alpha  occ. eigenvalues --   -0.45463  -0.44847  -0.42233  -0.41756  -0.41647
 Alpha  occ. eigenvalues --   -0.39322  -0.38892  -0.38588  -0.37551  -0.35121
 Alpha  occ. eigenvalues --   -0.33470  -0.29593  -0.29039  -0.28994  -0.28494
 Alpha  occ. eigenvalues --   -0.27840  -0.27532
 Alpha virt. eigenvalues --   -0.12357  -0.08286  -0.04754  -0.03740  -0.01233
 Alpha virt. eigenvalues --   -0.00556   0.00151   0.00967   0.01439   0.02061
 Alpha virt. eigenvalues --    0.02135   0.02894   0.03629   0.04035   0.04354

  Beta  occ. eigenvalues -- -101.57175 -19.13489 -19.13288 -10.28734 -10.28562
  Beta  occ. eigenvalues --  -10.26706 -10.22171 -10.21755 -10.21598 -10.21573
  Beta  occ. eigenvalues --  -10.21519 -10.21280 -10.21179 -10.20809 -10.20755
  Beta  occ. eigenvalues --  -10.20503 -10.20473  -9.48633  -7.25096  -7.24123
  Beta  occ. eigenvalues --   -7.24069  -1.06961  -1.06668  -0.92159  -0.89665
  Beta  occ. eigenvalues --   -0.87069  -0.81460  -0.79121  -0.78563  -0.76902
  Beta  occ. eigenvalues --   -0.69739  -0.67678  -0.64944  -0.63002  -0.59566
  Beta  occ. eigenvalues --   -0.57150  -0.56156  -0.51440  -0.50414  -0.49873
  Beta  occ. eigenvalues --   -0.49189  -0.46625  -0.46247  -0.45899  -0.45728
  Beta  occ. eigenvalues --   -0.45463  -0.44847  -0.42233  -0.41756  -0.41647
  Beta  occ. eigenvalues --   -0.39322  -0.38892  -0.38588  -0.37551  -0.35121
  Beta  occ. eigenvalues --   -0.33470  -0.29593  -0.29039  -0.28994  -0.28494
  Beta  occ. eigenvalues --   -0.27840  -0.27532
  Beta virt. eigenvalues --   -0.12357  -0.08286  -0.04754  -0.03740  -0.01233
  Beta virt. eigenvalues --   -0.00556   0.00151   0.00967   0.01439   0.02061
  Beta virt. eigenvalues --    0.02135   0.02894   0.03629   0.04035   0.04354

 Mulliken charges and spin densities:
               1          2
     1  Cl   0.537483  -0.000000
     2  C    0.590062   0.000000
     3  C   -0.426808  -0.000000
     4  C    0.112762  -0.000000
     5  C    0.087282  -0.000000
     6  C   -0.774729  -0.000000
     7  O   -0.211969  -0.000000
     8  C    0.134749  -0.000000
     9  C    0.193006  -0.000000
    10  C   -0.354350   0.000000
    11  C   -0.349117   0.000000
    12  C    0.169344   0.000000
    13  C    0.240259   0.000000
    14  C   -0.806358  -0.000000
    15  O   -0.207351   0.000000
    16  C   -0.046071   0.000000
    17  C   -0.226938   0.000000
    18  H    0.201745  -0.000000
    19  H    0.193148   0.000000
    20  H    0.187566   0.000000
    21  H    0.179190  -0.000000
    22  H    0.179392   0.000000
    23  H    0.185521  -0.000000
    24  H    0.212180  -0.000000
 Sum of Mulliken charges =  -0.00000   0.00000

 Dipole moment (field-independent basis, Debye):
    X=             -1.7041    Y=              0.7060    Z=             -0.1067  Tot=              1.8476
 Quadrupole moment (field-independent basis, Debye-Ang):
   XX=            -88.3597   YY=           -113.5797   ZZ=           -106.3550
   XY=              4.5968   XZ=             -1.4827   YZ=              1.5263

  Exact polarizability: 279.527 -14.851 187.504  -3.684 -24.197  91.089
 Approx polarizability: 392.556 -19.380 366.553  -4.862 -54.687 150.699

                      1                      2                      3
                      A                      A                      A
 Frequencies --     36.6508                83.7005               116.2574
 Red. masses --      9.2147                 6.9852                 4.9675
 Frc consts  --      0.0073                 0.0288                 0.0396
 IR Inten    --      3.2265                 3.1381                 0.1910

                      4                      5                      6
                      A                      A                      A
 Frequencies --    140.9248               152.1253               188.5167
 Red. masses --      6.6584                10.7515                 6.1377
 Frc consts  --      0.0779                 0.1466                 0.1285
 IR Inten    --      1.2705                 0.1049                 0.0622

                      7                      8                      9
                      A                      A                      A
 Frequencies --    260.9434               278.0302               296.8750
 Red. masses --      7.1537                 6.3392                10.6606
 Frc consts  --      0.2870                 0.2887                 0.5536
 IR Inten    --      0.4932                 0.1895                 0.4452

                     10                     11                     12
                      A                      A                      A
 Frequencies --    358.1755               387.3959               415.6357
 Red. masses --      6.8963                10.7151                 3.7273
 Frc consts  --      0.5213                 0.9475                 0.3794
 IR Inten    --      0.7302                16.9875                 1.8362

                     13                     14                     15
                      A                      A                      A
 Frequencies --    415.7151               447.1989               452.0121
 Red. masses --      6.4566                 4.2550                 3.6600
 Frc consts  --      0.6574                 0.5014                 0.4406
 IR Inten    --      7.0607                 0.2531                 0.5906

                     16                     17                     18
                      A                      A                      A
 Frequencies --    468.9490               518.2988               532.5005
 Red. masses --     12.2746                 8.6142                 4.7956
 Frc consts  --      1.5904                 1.3634                 0.8012
 IR Inten    --      4.6954                22.0825                 5.2208

                     19                     20                     21
                      A                      A                      A
 Frequencies --    645.5560               657.3384               665.7690
 Red. masses --      7.0408                 7.0153                 4.3235
 Frc consts  --      1.7288                 1.7860                 1.1291
 IR Inten    --      9.4175                 4.2735                 4.3809

                     22                     23                     24
                      A                      A                      A
 Frequencies --    697.8739               717.0584               727.0692
 Red. masses --      6.7360                 7.7829                 4.2665
 Frc consts  --      1.9329                 2.3578                 1.3288
 IR Inten    --      0.2521                13.6938                 6.9920

                     25                     26                     27
                      A                      A                      A
 Frequencies --    733.8247               803.4727               809.9145
 Red. masses --      2.2883                 3.6878                 1.9057
 Frc consts  --      0.7260                 1.4027                 0.7365
 IR Inten    --     74.2026                 0.0033                 4.9922

                     28                     29                     30
                      A                      A                      A
 Frequencies --    825.0379               862.6992               917.6312
 Red. masses --      6.9133                 1.5447                 1.3792
 Frc consts  --      2.7726                 0.6774                 0.6843
 IR Inten    --     29.5253                23.6650                 0.5995

                     31                     32                     33
                      A                      A                      A
 Frequencies --    934.9615               941.1888               972.8254
 Red. masses --      1.4255                 7.0579                 6.0986
 Frc consts  --      0.7342                 3.6837                 3.4005
 IR Inten    --      8.4719                72.8835                16.3843

                     34                     35                     36
                      A                      A                      A
 Frequencies --   1000.9126              1005.4167              1020.2407
 Red. masses --      1.3411                 1.3868                 1.3300
 Frc consts  --      0.7916                 0.8259                 0.8157
 IR Inten    --      0.0294                 2.8254                 0.0002

                     37                     38                     39
                      A                      A                      A
 Frequencies --   1057.3445              1092.0468              1113.0569
 Red. masses --      2.0094                 2.1216                 2.2822
 Frc consts  --      1.3235                 1.4907                 1.6659
 IR Inten    --      1.3087                23.8304                 2.5483

                     40                     41                     42
                      A                      A                      A
 Frequencies --   1128.9941              1177.4737              1185.1337
 Red. masses --      2.1979                 1.5889                 1.8153
 Frc consts  --      1.6506                 1.2979                 1.5022
 IR Inten    --      7.1073                 0.9059                29.8196

                     43                     44                     45
                      A                      A                      A
 Frequencies --   1192.5891              1233.5029              1275.5086
 Red. masses --      1.8500                 1.7277                 1.4987
 Frc consts  --      1.5502                 1.5488                 1.4366
 IR Inten    --      9.6952                 1.9407                44.4596

                     46                     47                     48
                      A                      A                      A
 Frequencies --   1301.2653              1311.3154              1344.1141
 Red. masses --      4.1220                 2.4861                 8.0321
 Frc consts  --      4.1123                 2.5187                 8.5497
 IR Inten    --    669.6420                79.9147                30.3290

                     49                     50                     51
                      A                      A                      A
 Frequencies --   1360.5088              1432.1832              1481.7794
 Red. masses --      8.0690                 4.0408                 2.4059
 Frc consts  --      8.7998                 4.8833                 3.1124
 IR Inten    --     13.5256                 9.3253                 0.4639

                     52                     53                     54
                      A                      A                      A
 Frequencies --   1497.2270              1506.8715              1597.9420
 Red. masses --      2.6937                 2.5689                 7.6013
 Frc consts  --      3.5577                 3.4367                11.4356
 IR Inten    --      2.0340                 8.5224                 7.2657

                     55                     56                     57
                      A                      A                      A
 Frequencies --   1614.6548              1617.0352              1629.4605
 Red. masses --      7.0817                 6.5714                 5.7380
 Frc consts  --     10.8780                10.1238                 8.9763
 IR Inten    --     47.1728               136.0498                33.8067

                     58                     59                     60
                      A                      A                      A
 Frequencies --   1720.3352              1730.6726              3171.3494
 Red. masses --     12.6475                12.2055                 1.0871
 Frc consts  --     22.0536                21.5396                 6.4418
 IR Inten    --     12.7652               320.3175                 3.0547

                     61                     62                     63
                      A                      A                      A
 Frequencies --   3185.4951              3193.9499              3200.5477
 Red. masses --      1.0918                 1.0886                 1.0926
 Frc consts  --      6.5273                 6.5429                 6.5940
 IR Inten    --      9.2776                 0.2558                 0.1808

                     64                     65                     66
                      A                      A                      A
 Frequencies --   3203.1283              3206.4673              3211.8800
 Red. masses --      1.0951                 1.0952                 1.0918
 Frc consts  --      6.6197                 6.6342                 6.6362
 IR Inten    --     11.9709                 1.4750                 4.6732

 - Thermochemistry -
 -------------------
 Temperature   298.150 Kelvin.  Pressure   1.00000 Atm.
 Atom     1 has atomic number 17 and mass  34.96885

 Molecular mass:   242.01346 amu.
 Principal axes and moments of inertia in atomic units:
                           1         2         3
     Eigenvalues --  1749.749597044.166838793.91630
           X            0.98810   0.14948   0.03637
           Y           -0.15384   0.95980   0.23477
           Z            0.00019  -0.23757   0.97137
 This molecule is an asymmetric top.
 Rotational symmetry number  1.
 Warning -- assumption of classical behavior for rotation
           may cause significant error
 Rotational temperatures (Kelvin)      0.04950     0.01230     0.00985
 Rotational constants (GHZ):           1.03143     0.25620     0.20523
 Zero-point vibrational energy     445384.8 (Joules/Mol)
                                  106.44953 (Kcal/Mol)
 Warning -- explicit consideration of  18 degrees of freedom as
           vibrations may cause significant error
 Vibrational temperatures:     52.73   120.43   167.27   202.76   218.87
          (Kelvin)            271.23   375.44   400.02   427.14   515.33
                              557.38   598.01   598.12   643.42   650.34
                              674.71   745.72   766.15   928.81   945.76
                              957.89  1004.08  1031.69  1046.09  1055.81
                             1156.02  1165.29  1187.05  1241.23  1320.27
                             1345.20  1354.16  1399.68  1440.09  1446.57
                             1467.90  1521.28  1571.21  1601.44  1624.37
                             1694.12  1705.14  1715.87  1774.74  1835.17
                             1872.23  1886.69  1933.88  1957.47  2060.59
                             2131.95  2154.18  2168.05  2299.08  2323.13
                             2326.55  2344.43  2475.18  2490.05  4562.86
                             4583.22  4595.38  4604.87  4608.59  4613.39
                             4621.18

 Zero-point correction=                           0.169638 (Hartree/Particle)
 Thermal correction to Energy=                    0.182131
 Thermal correction to Enthalpy=                  0.183075
 Thermal correction to Gibbs Free Energy=         0.129879
 Sum of electronic and zero-point Energies=          -1148.405963
 Sum of electronic and thermal Energies=             -1148.393470
 Sum of electronic and thermal Enthalpies=           -1148.392526
 Sum of electronic and thermal Free Energies=        -1148.445722

                     E (Thermal)             CV                S
                      KCal/Mol        Cal/Mol-Kelvin    Cal/Mol-Kelvin
 Total                  114.289             49.504            111.961
 Electronic               0.000              0.000              0.000
 Translational            0.889              2.981             42.353
 Rotational               0.889              2.981             33.049
 Vibrational            112.511             43.542             36.559
 Vibration     1          0.594              1.982              5.432
 Vibration     2          0.601              1.960              3.802
 Vibration     3          0.608              1.936              3.162
 Vibration     4          0.615              1.912              2.791
 Vibration     5          0.619              1.900              2.645
 Vibration     6          0.633              1.856              2.242
 Vibration     7          0.669              1.744              1.655
 Vibration     8          0.679              1.714              1.546
 Vibration     9          0.691              1.680              1.434
 Vibration    10          0.733              1.558              1.130
 Vibration    11          0.756              1.497              1.010
 Vibration    12          0.779              1.436              0.907
 Vibration    13          0.779              1.436              0.907
 Vibration    14          0.806              1.367              0.804
 Vibration    15          0.811              1.356              0.790
 Vibration    16          0.826              1.319              0.740
 Vibration    17          0.873              1.209              0.614
 Vibration    18          0.887              1.178              0.582

 Optimization completed.
    -- Stationary point found.
 Normal termination of Gaussian 16 at Thu Dec 21 06:11:06 2023.
