 Q-Chem 5.4, Q-Chem, Inc., Pleasanton, CA (2021)
 Q-Chem 5.4.0 for Intel X86 EM64T Linux

User input:
--------------------------------------------------------------
$molecule
-2 1
O                 -0.3080000000      2.1592900000      0.3710260000
C                 -0.5257480000      0.9163780000      0.1470910000
C                  0.5231160000     -0.0156670000     -0.1669800000
C                  0.2649120000     -1.3725350000     -0.4267590000
O                  1.3185770000     -2.2299730000     -0.7224090000
C                 -1.0380730000     -1.9701560000     -0.4285380000
O                 -1.2518070000     -3.2067130000     -0.6717730000
C                 -2.1126580000     -1.0345300000     -0.1175560000
C                 -3.4467680000     -1.5048310000     -0.0754600000
C                 -4.5079910000     -0.6689320000      0.2196170000
C                 -4.2712730000      0.7017990000      0.4907890000
C                 -2.9742530000      1.1865120000      0.4613850000
C                 -1.8734160000      0.3549960000      0.1679700000
C                  1.9242000000      0.5552370000     -0.2934840000
H                 -3.5969040000     -2.5586080000     -0.2882960000
H                 -5.5230320000     -1.0617780000      0.2428710000
H                 -5.1015260000      1.3661910000      0.7219320000
H                 -2.7558320000      2.2301830000      0.6652690000
C                  2.9231020000      0.0534350000      0.7233110000
C                  4.1958160000     -0.3427080000      0.5464410000
C                  4.9118680000     -0.3811020000     -0.7830260000
C                  5.0468460000     -0.8017460000      1.7086380000
H                  2.1283180000     -1.8318960000     -0.3801520000
H                  1.7953010000      1.6356810000     -0.1488450000
H                  2.3089580000      0.4066470000     -1.3122540000
H                  2.5355740000      0.0294180000      1.7414570000
H                  4.2752450000     -0.0907210000     -1.6198820000
H                  5.3061670000     -1.3877990000     -0.9834980000
H                  5.7822980000      0.2886210000     -0.7731600000
H                  4.5082060000     -0.7486230000      2.6586650000
H                  5.9580820000     -0.1948790000      1.8009560000
H                  5.3896850000     -1.8376490000      1.5690300000
$end
$rem
MAX_SCF_CYCLES=200
BASIS  =  6-311++G(d,p)
GUI  =  2
JOB_TYPE  =  SP
METHOD  =  B3LYP
SOLVENT_METHOD = PCM
$end
$pcm
theory = CPCM
$end
$solvent
dielectric 37.219
opticaldielectric 1.43
$end

--------------------------------------------------------------

             Standard Nuclear Orientation (Angstroms)
    I     Atom           X                Y                Z
 ----------------------------------------------------------------
    1      O      -0.3080000000     2.1592900000     0.3710260000
    2      C      -0.5257480000     0.9163780000     0.1470910000
    3      C       0.5231160000    -0.0156670000    -0.1669800000
    4      C       0.2649120000    -1.3725350000    -0.4267590000
    5      O       1.3185770000    -2.2299730000    -0.7224090000
    6      C      -1.0380730000    -1.9701560000    -0.4285380000
    7      O      -1.2518070000    -3.2067130000    -0.6717730000
    8      C      -2.1126580000    -1.0345300000    -0.1175560000
    9      C      -3.4467680000    -1.5048310000    -0.0754600000
   10      C      -4.5079910000    -0.6689320000     0.2196170000
   11      C      -4.2712730000     0.7017990000     0.4907890000
   12      C      -2.9742530000     1.1865120000     0.4613850000
   13      C      -1.8734160000     0.3549960000     0.1679700000
   14      C       1.9242000000     0.5552370000    -0.2934840000
   15      H      -3.5969040000    -2.5586080000    -0.2882960000
   16      H      -5.5230320000    -1.0617780000     0.2428710000
   17      H      -5.1015260000     1.3661910000     0.7219320000
   18      H      -2.7558320000     2.2301830000     0.6652690000
   19      C       2.9231020000     0.0534350000     0.7233110000
   20      C       4.1958160000    -0.3427080000     0.5464410000
   21      C       4.9118680000    -0.3811020000    -0.7830260000
   22      C       5.0468460000    -0.8017460000     1.7086380000
   23      H       2.1283180000    -1.8318960000    -0.3801520000
   24      H       1.7953010000     1.6356810000    -0.1488450000
   25      H       2.3089580000     0.4066470000    -1.3122540000
   26      H       2.5355740000     0.0294180000     1.7414570000
   27      H       4.2752450000    -0.0907210000    -1.6198820000
   28      H       5.3061670000    -1.3877990000    -0.9834980000
   29      H       5.7822980000     0.2886210000    -0.7731600000
   30      H       4.5082060000    -0.7486230000     2.6586650000
   31      H       5.9580820000    -0.1948790000     1.8009560000
   32      H       5.3896850000    -1.8376490000     1.5690300000
 ----------------------------------------------------------------

    9    -806.1595584168      8.44e-06  Convergence criterion met
 Total energy in the final basis set =     -806.1595584168

                    Orbital Energies (a.u.)
 --------------------------------------------------------------

 Alpha MOs
 -- Occupied --
-19.1187 -19.0194 -19.0157 -10.1773 -10.1716 -10.1706 -10.1654 -10.1544
-10.1543 -10.1539 -10.1489 -10.1470 -10.1450 -10.1440 -10.1426 -10.1341
-10.1326 -10.1277  -1.0245  -0.9407  -0.9347  -0.8232  -0.8072  -0.7681
 -0.7324  -0.7202  -0.6894  -0.6835  -0.6472  -0.6184  -0.5834  -0.5669
 -0.5243  -0.5131  -0.5066  -0.4811  -0.4590  -0.4416  -0.4302  -0.4235
 -0.4177  -0.4009  -0.3951  -0.3907  -0.3847  -0.3756  -0.3702  -0.3689
 -0.3638  -0.3606  -0.3499  -0.3458  -0.3313  -0.3268  -0.3155  -0.3130
 -0.3040  -0.2987  -0.2344  -0.2283  -0.2231  -0.2028  -0.1964  -0.1930
 -0.1062

          Ground-State Mulliken Net Atomic Charges

     Atom                 Charge (a.u.)
  ----------------------------------------
      1 O                    -0.689332
      2 C                    -0.859187
      3 C                     1.247022
      4 C                    -0.493614
      5 O                    -0.375023
      6 C                    -0.444906
      7 O                    -0.743171
      8 C                     0.466867
      9 C                    -0.059569
     10 C                    -0.476706
     11 C                    -0.528251
     12 C                    -0.000917
     13 C                    -0.167500
     14 C                    -0.076298
     15 H                     0.138954
     16 H                     0.169834
     17 H                     0.168458
     18 H                     0.144799
     19 C                    -0.707475
     20 C                     0.717015
     21 C                    -0.602748
     22 C                    -0.638604
     23 H                     0.341647
     24 H                     0.182899
     25 H                     0.160636
     26 H                     0.183763
     27 H                     0.163571
     28 H                     0.153049
     29 H                     0.156797
     30 H                     0.163012
     31 H                     0.149889
     32 H                     0.155090
  ----------------------------------------
  Sum of atomic charges =    -2.000000

                    Cartesian Multipole Moments
 -----------------------------------------------------------------
    Charge (ESU x 10^10)
                -9.6064
    Dipole Moment (Debye)
         X      11.0696      Y       7.0217      Z       1.7801
       Tot      13.2291
    Quadrupole Moments (Debye-Ang)
        XX    -129.9199     XY     -12.7529     YY    -180.5767
        XZ      -1.6565     YZ     -13.9007     ZZ    -120.5481

 Total job time:  64.87s(wall), 440.43s(cpu)
        *  Thank you very much for using Q-Chem.  Have a nice day.  *
