 Gaussian 16, Revision A.03,
 Gaussian 16:  ES64L-G16RevA.03 25-Dec-2016

 ----------------------------------------------------------------
 #P UB3LYP/6-311++G(d,p) SCRF=(PCM,Solvent=n,n-DiMethylFormamide)
 ----------------------------------------------------------------

 -------
 Reduced
 -------
 Symbolic Z-matrix:
 Charge = -2 Multiplicity = 1

                         Standard orientation:
 ---------------------------------------------------------------------
 Center     Atomic      Atomic             Coordinates (Angstroms)
 Number     Number       Type             X           Y           Z
 ---------------------------------------------------------------------
      1          6           0       -3.460918   -2.092639   -0.103446
      2          8           0       -2.784612   -0.863371   -0.060002
      3          6           0       -1.407240   -0.867991   -0.018577
      4          6           0       -0.705684   -2.057585   -0.021353
      5          6           0        0.705593   -2.057616    0.020872
      6          6           0        1.407204   -0.868048    0.017992
      7          8           0        2.784588   -0.863517    0.059707
      8          6           0        3.460736   -2.092796    0.104685
      9          6           0        0.732225    0.399547   -0.019815
     10          6           0        1.491425    1.660908   -0.088343
     11          8           0        2.758499    1.755253   -0.176790
     12          6           0        0.685894    2.848486   -0.043203
     13          6           0       -0.685645    2.848516    0.044673
     14          6           0       -1.491314    1.660971    0.088122
     15          8           0       -2.758467    1.755390    0.175595
     16          6           0       -0.732195    0.399591    0.019207
     17          1           0       -4.525216   -1.850971   -0.167915
     18          1           0       -3.290571   -2.701345    0.798103
     19          1           0       -3.185578   -2.700915   -0.979915
     20          1           0       -1.218014   -3.010697   -0.036624
     21          1           0        1.217859   -3.010758    0.036247
     22          1           0        4.525027   -1.851191    0.169554
     23          1           0        3.184691   -2.700189    0.981545
     24          1           0        3.290930   -2.702356   -0.796392
     25          1           0        1.240299    3.785141   -0.081008
     26          1           0       -1.239956    3.785182    0.083443
 ---------------------------------------------------------------------

 SCF Done:  E(UB3LYP) =  -764.592245684     A.U. after   18 cycles

 The electronic state is 1-A.
 Alpha  occ. eigenvalues --  -19.12663 -19.12662 -19.00378 -19.00377 -10.20545
 Alpha  occ. eigenvalues --  -10.20545 -10.20290 -10.20289 -10.16694 -10.16693
 Alpha  occ. eigenvalues --  -10.14014 -10.13980 -10.13891 -10.13843 -10.11291
 Alpha  occ. eigenvalues --  -10.11228  -1.04473  -1.04404  -0.93049  -0.92762
 Alpha  occ. eigenvalues --   -0.81776  -0.75629  -0.73688  -0.71364  -0.68410
 Alpha  occ. eigenvalues --   -0.65857  -0.63036  -0.57872  -0.57159  -0.53650
 Alpha  occ. eigenvalues --   -0.50026  -0.48626  -0.46615  -0.45920  -0.45217
 Alpha  occ. eigenvalues --   -0.44928  -0.41782  -0.41773  -0.40210  -0.38579
 Alpha  occ. eigenvalues --   -0.38472  -0.37189  -0.36557  -0.34841  -0.33257
 Alpha  occ. eigenvalues --   -0.32744  -0.32291  -0.32101  -0.31504  -0.30513
 Alpha  occ. eigenvalues --   -0.30093  -0.27141  -0.21852  -0.21326  -0.18731
 Alpha  occ. eigenvalues --   -0.18024  -0.17842  -0.09776
 Alpha virt. eigenvalues --   -0.00108   0.00875   0.01136   0.01294   0.01729
 Alpha virt. eigenvalues --    0.02684   0.02911   0.03394   0.03568   0.04596
 Alpha virt. eigenvalues --    0.04778   0.05723   0.05861   0.06359   0.07357

  Beta  occ. eigenvalues --  -19.12663 -19.12662 -19.00378 -19.00377 -10.20545
  Beta  occ. eigenvalues --  -10.20545 -10.20290 -10.20289 -10.16694 -10.16693
  Beta  occ. eigenvalues --  -10.14014 -10.13980 -10.13891 -10.13843 -10.11291
  Beta  occ. eigenvalues --  -10.11228  -1.04473  -1.04404  -0.93049  -0.92762
  Beta  occ. eigenvalues --   -0.81776  -0.75629  -0.73688  -0.71364  -0.68410
  Beta  occ. eigenvalues --   -0.65857  -0.63036  -0.57872  -0.57159  -0.53650
  Beta  occ. eigenvalues --   -0.50026  -0.48626  -0.46615  -0.45920  -0.45217
  Beta  occ. eigenvalues --   -0.44928  -0.41782  -0.41773  -0.40210  -0.38579
  Beta  occ. eigenvalues --   -0.38472  -0.37189  -0.36557  -0.34841  -0.33257
  Beta  occ. eigenvalues --   -0.32744  -0.32291  -0.32101  -0.31504  -0.30513
  Beta  occ. eigenvalues --   -0.30093  -0.27141  -0.21852  -0.21326  -0.18731
  Beta  occ. eigenvalues --   -0.18024  -0.17842  -0.09776
  Beta virt. eigenvalues --   -0.00108   0.00875   0.01136   0.01294   0.01729
  Beta virt. eigenvalues --    0.02684   0.02911   0.03394   0.03568   0.04596
  Beta virt. eigenvalues --    0.04778   0.05723   0.05861   0.06359   0.07357

 Mulliken charges and spin densities:
               1          2
     1  C   -0.292697  -0.000000
     2  O   -0.159882   0.000000
     3  C   -0.246491   0.000000
     4  C   -0.230488  -0.000000
     5  C   -0.230338  -0.000000
     6  C   -0.248111   0.000000
     7  O   -0.159870  -0.000000
     8  C   -0.292693   0.000000
     9  C    0.088734  -0.000000
    10  C   -0.040789   0.000000
    11  O   -0.711188   0.000000
    12  C   -0.162430  -0.000000
    13  C   -0.162052  -0.000000
    14  C   -0.041752  -0.000000
    15  O   -0.711204  -0.000000
    16  C    0.089028   0.000000
    17  H    0.182858  -0.000000
    18  H    0.144387   0.000000
    19  H    0.136875   0.000000
    20  H    0.171631  -0.000000
    21  H    0.171645   0.000000
    22  H    0.182881  -0.000000
    23  H    0.136881   0.000000
    24  H    0.144346  -0.000000
    25  H    0.120372  -0.000000
    26  H    0.120345   0.000000
 Sum of Mulliken charges =  -2.00000  -0.00000

 Dipole moment (field-independent basis, Debye):
    X=             -0.0003    Y=            -16.4994    Z=              0.0056  Tot=             16.4994
 Quadrupole moment (field-independent basis, Debye-Ang):
   XX=           -157.7232   YY=           -125.4762   ZZ=           -104.8344
   XY=              0.0027   XZ=              4.1130   YZ=              0.0024

 Normal termination of Gaussian 16 at Sun Jan 21 08:53:37 2024.
