 Q-Chem 5.4, Q-Chem, Inc., Pleasanton, CA (2021)
 Q-Chem 5.4.0 for Intel X86 EM64T Linux

User input:
--------------------------------------------------------------
$molecule
-2 1
C                 -0.2300080000      3.9320580000      0.2258230000
C                 -1.4392280000      3.4560650000      0.7031240000
C                 -1.6598730000      2.0570200000      0.7695700000
C                  0.8020330000      3.0664970000     -0.2022310000
C                  0.5769830000      1.6463540000     -0.1414400000
C                 -0.6676870000      1.1876880000      0.3527010000
C                  2.0503330000      3.6373750000     -0.7049040000
C                  3.0114350000      2.6572530000     -1.1044040000
C                  2.8018210000      1.2424160000     -1.0344290000
C                  1.5806550000      0.6786310000     -0.5672160000
O                  2.2320170000      4.9104710000     -0.7564350000
O                  1.3501220000     -0.5968920000     -0.5027670000
H                 -0.0245570000      4.9963840000      0.1607680000
H                 -2.2144450000      4.1495400000      1.0265560000
H                 -2.6069850000      1.6702210000      1.1442580000
H                 -0.8021420000      0.1107060000      0.3866320000
S                  4.5566640000      3.2723670000     -1.7956090000
C                  5.1993020000      4.3372940000     -0.4419870000
C                  3.8704700000      0.2656950000     -1.4595320000
H                  6.0982860000      4.8387470000     -0.8195360000
H                  5.4597310000      3.7343420000      0.4336860000
H                  4.4199100000      5.0604580000     -0.1967300000
H                  4.0652960000      0.2940130000     -2.5436420000
H                  3.5254270000     -0.7383260000     -1.2002670000
H                  4.8345990000      0.4708240000     -0.9747610000
$end
$rem
MAX_SCF_CYCLES=200
BASIS  =  6-311++G(d,p)
GUI  =  2
JOB_TYPE  =  SP
METHOD  =  B3LYP
SOLVENT_METHOD = PCM
$end
$pcm
theory = CPCM
$end
$solvent
dielectric 37.219
opticaldielectric 1.43
$end

--------------------------------------------------------------

             Standard Nuclear Orientation (Angstroms)
    I     Atom           X                Y                Z
 ----------------------------------------------------------------
    1      C      -0.2300080000     3.9320580000     0.2258230000
    2      C      -1.4392280000     3.4560650000     0.7031240000
    3      C      -1.6598730000     2.0570200000     0.7695700000
    4      C       0.8020330000     3.0664970000    -0.2022310000
    5      C       0.5769830000     1.6463540000    -0.1414400000
    6      C      -0.6676870000     1.1876880000     0.3527010000
    7      C       2.0503330000     3.6373750000    -0.7049040000
    8      C       3.0114350000     2.6572530000    -1.1044040000
    9      C       2.8018210000     1.2424160000    -1.0344290000
   10      C       1.5806550000     0.6786310000    -0.5672160000
   11      O       2.2320170000     4.9104710000    -0.7564350000
   12      O       1.3501220000    -0.5968920000    -0.5027670000
   13      H      -0.0245570000     4.9963840000     0.1607680000
   14      H      -2.2144450000     4.1495400000     1.0265560000
   15      H      -2.6069850000     1.6702210000     1.1442580000
   16      H      -0.8021420000     0.1107060000     0.3866320000
   17      S       4.5566640000     3.2723670000    -1.7956090000
   18      C       5.1993020000     4.3372940000    -0.4419870000
   19      C       3.8704700000     0.2656950000    -1.4595320000
   20      H       6.0982860000     4.8387470000    -0.8195360000
   21      H       5.4597310000     3.7343420000     0.4336860000
   22      H       4.4199100000     5.0604580000    -0.1967300000
   23      H       4.0652960000     0.2940130000    -2.5436420000
   24      H       3.5254270000    -0.7383260000    -1.2002670000
   25      H       4.8345990000     0.4708240000    -0.9747610000
 ----------------------------------------------------------------

    9   -1012.3815191020      4.63e-06  Convergence criterion met
 Total energy in the final basis set =    -1012.3815191020

                    Orbital Energies (a.u.)
 --------------------------------------------------------------

 Alpha MOs
 -- Occupied --
-88.8172 -19.0218 -19.0161 -10.1774 -10.1688 -10.1666 -10.1514 -10.1506
-10.1504 -10.1473 -10.1460 -10.1406 -10.1398 -10.1333 -10.1322  -7.9030
 -5.8669  -5.8632  -5.8570  -0.9409  -0.9305  -0.8268  -0.7876  -0.7458
 -0.7236  -0.7202  -0.6715  -0.6323  -0.6148  -0.5675  -0.5554  -0.5200
 -0.4782  -0.4606  -0.4327  -0.4237  -0.4069  -0.4028  -0.3971  -0.3933
 -0.3800  -0.3707  -0.3649  -0.3581  -0.3535  -0.3372  -0.3258  -0.3191
 -0.3115  -0.3051  -0.2906  -0.2315  -0.2267  -0.2239  -0.2038  -0.1975
 -0.1914  -0.1156

          Ground-State Mulliken Net Atomic Charges

     Atom                 Charge (a.u.)
  ----------------------------------------
      1 C                     0.058607
      2 C                    -0.412558
      3 C                    -0.477137
      4 C                     0.296949
      5 C                     0.420373
      6 C                     0.093510
      7 C                    -0.688862
      8 C                     0.460106
      9 C                     0.277097
     10 C                    -0.753139
     11 O                    -0.671897
     12 O                    -0.715249
     13 H                     0.156242
     14 H                     0.172057
     15 H                     0.171552
     16 H                     0.149007
     17 S                    -0.661214
     18 C                    -0.617774
     19 C                    -0.227183
     20 H                     0.160977
     21 H                     0.164831
     22 H                     0.198085
     23 H                     0.151251
     24 H                     0.162340
     25 H                     0.132032
  ----------------------------------------
  Sum of atomic charges =    -2.000000

                    Cartesian Multipole Moments
 -----------------------------------------------------------------
    Charge (ESU x 10^10)
                -9.6064
    Dipole Moment (Debye)
         X     -17.4376      Y     -20.5804      Z       7.6667
       Tot      28.0429
    Quadrupole Moments (Debye-Ang)
        XX    -150.0613     XY     -44.4991     YY    -203.9696
        XZ      22.8193     YZ      21.9987     ZZ    -117.4394

 Total job time:  43.90s(wall), 279.58s(cpu)
        *  Thank you very much for using Q-Chem.  Have a nice day.  *
