 Q-Chem 5.4, Q-Chem, Inc., Pleasanton, CA (2021)
 Q-Chem 5.4.0 for Intel X86 EM64T Linux

User input:
--------------------------------------------------------------
$molecule
0 1
C                  5.2775950000     -2.3218270000      0.3674360000
C                  6.0335320000     -1.4894170000     -0.4498540000
C                  5.4029770000     -0.6014870000     -1.3261310000
C                  3.8803940000     -2.2753870000      0.3173540000
C                  3.2518290000     -1.3845140000     -0.5617640000
C                  4.0156340000     -0.5489610000     -1.3821420000
C                  3.0990850000     -3.1875470000      1.2129950000
C                  1.6013000000     -3.1354270000      1.1568990000
C                  0.9952660000     -2.2369950000      0.2708060000
C                  1.7710650000     -1.3258330000     -0.6240060000
C                  0.7733010000     -3.9769350000      1.9824850000
C                 -0.6542410000     -3.8645580000      1.8677400000
C                 -0.4122940000     -2.1461360000      0.1772930000
C                 -1.2129720000     -2.9364170000      0.9527820000
O                  3.7116600000     -3.9401540000      1.9562950000
O                  1.2003790000     -0.5568090000     -1.3827570000
H                  5.7483120000     -3.0156800000      1.0520970000
H                  7.1160440000     -1.5301220000     -0.4064050000
H                  5.9957680000      0.0461680000     -1.9620240000
H                 -2.2928450000     -2.8625790000      0.8770110000
H                  3.5015530000      0.1293880000     -2.0516850000
H                 -0.8272130000     -1.4344480000     -0.5243890000
C                 -1.5035640000     -4.6732500000      2.6609710000
C                 -0.9760940000     -5.5776830000      3.5523400000
C                  0.4252420000     -5.7018190000      3.6784690000
C                  1.2693570000     -4.9299820000      2.9215370000
O                 -1.7324640000     -6.3873190000      4.3467340000
H                 -2.5789960000     -4.5660770000      2.5523830000
H                  0.8182480000     -6.4209900000      4.3871090000
H                  2.3341780000     -5.0428840000      3.0356260000
H                 -2.6688450000     -6.2268850000      4.1861900000
$end

$rem
BASIS  =  6-311++G(d,p)
GUI  =  2
JOB_TYPE  =  SP
METHOD  =  B3LYP
SCF_CONVERGENCE  = 8
SOLVENT_METHOD = sm12
$end

$smx
solvent dimethylformamide
charges CM5
$end

--------------------------------------------------------------

             Standard Nuclear Orientation (Angstroms)
    I     Atom           X                Y                Z
 ----------------------------------------------------------------
    1      C       5.2775950000    -2.3218270000     0.3674360000
    2      C       6.0335320000    -1.4894170000    -0.4498540000
    3      C       5.4029770000    -0.6014870000    -1.3261310000
    4      C       3.8803940000    -2.2753870000     0.3173540000
    5      C       3.2518290000    -1.3845140000    -0.5617640000
    6      C       4.0156340000    -0.5489610000    -1.3821420000
    7      C       3.0990850000    -3.1875470000     1.2129950000
    8      C       1.6013000000    -3.1354270000     1.1568990000
    9      C       0.9952660000    -2.2369950000     0.2708060000
   10      C       1.7710650000    -1.3258330000    -0.6240060000
   11      C       0.7733010000    -3.9769350000     1.9824850000
   12      C      -0.6542410000    -3.8645580000     1.8677400000
   13      C      -0.4122940000    -2.1461360000     0.1772930000
   14      C      -1.2129720000    -2.9364170000     0.9527820000
   15      O       3.7116600000    -3.9401540000     1.9562950000
   16      O       1.2003790000    -0.5568090000    -1.3827570000
   17      H       5.7483120000    -3.0156800000     1.0520970000
   18      H       7.1160440000    -1.5301220000    -0.4064050000
   19      H       5.9957680000     0.0461680000    -1.9620240000
   20      H      -2.2928450000    -2.8625790000     0.8770110000
   21      H       3.5015530000     0.1293880000    -2.0516850000
   22      H      -0.8272130000    -1.4344480000    -0.5243890000
   23      C      -1.5035640000    -4.6732500000     2.6609710000
   24      C      -0.9760940000    -5.5776830000     3.5523400000
   25      C       0.4252420000    -5.7018190000     3.6784690000
   26      C       1.2693570000    -4.9299820000     2.9215370000
   27      O      -1.7324640000    -6.3873190000     4.3467340000
   28      H      -2.5789960000    -4.5660770000     2.5523830000
   29      H       0.8182480000    -6.4209900000     4.3871090000
   30      H       2.3341780000    -5.0428840000     3.0356260000
   31      H      -2.6688450000    -6.2268850000     4.1861900000
 ----------------------------------------------------------------

   15    -917.8726279908      3.21e-09  Convergence criterion met
 Total energy in the final basis set =     -917.9015534375

                    Orbital Energies (a.u.)
 --------------------------------------------------------------

 Alpha MOs
 -- Occupied --
-19.1708 -19.1290 -19.1281 -10.2848 -10.2796 -10.2559 -10.2185 -10.2106
-10.2103 -10.2102 -10.2073 -10.2057 -10.1978 -10.1968 -10.1964 -10.1959
-10.1953 -10.1925 -10.1903 -10.1888 -10.1886  -1.0823  -1.0656  -1.0624
 -0.9004  -0.8868  -0.8503  -0.8124  -0.7869  -0.7765  -0.7674  -0.7463
 -0.6938  -0.6652  -0.6588  -0.6358  -0.6225  -0.5892  -0.5789  -0.5598
 -0.5421  -0.5250  -0.5068  -0.4927  -0.4893  -0.4782  -0.4608  -0.4578
 -0.4572  -0.4498  -0.4449  -0.4341  -0.4325  -0.4307  -0.4185  -0.4142
 -0.3959  -0.3928  -0.3880  -0.3755  -0.3728  -0.3675  -0.3582  -0.3297
 -0.3068  -0.2842  -0.2827  -0.2767  -0.2708  -0.2586  -0.2365

          Ground-State Mulliken Net Atomic Charges

     Atom                 Charge (a.u.)
  ----------------------------------------
      1 C                     0.136344
      2 C                     0.415760
      3 C                     0.495481
      4 C                    -0.285596
      5 C                    -0.230230
      6 C                     0.109420
      7 C                    -1.393465
      8 C                    -0.173217
      9 C                    -0.260989
     10 C                    -1.809429
     11 C                     0.111937
     12 C                     0.564736
     13 C                     0.012773
     14 C                     0.289909
     15 O                    -0.208248
     16 O                    -0.242133
     17 H                     0.194526
     18 H                     0.328425
     19 H                     0.327697
     20 H                     0.316443
     21 H                     0.188456
     22 H                     0.208284
     23 C                     0.992481
     24 C                     0.219903
     25 C                    -0.495862
     26 C                    -0.582525
     27 O                    -0.222272
     28 H                     0.289941
     29 H                     0.244312
     30 H                     0.122233
     31 H                     0.334903
  ----------------------------------------
  Sum of atomic charges =     0.000000

                    Cartesian Multipole Moments
 -----------------------------------------------------------------
    Charge (ESU x 10^10)
                 0.0000
    Dipole Moment (Debye)
         X      -1.4412      Y      -0.2775      Z       0.2679
       Tot       1.4919
    Quadrupole Moments (Debye-Ang)
        XX     -88.6073     XY      18.8110     YY    -122.1974
        XZ     -15.6259     YZ      -1.6017     ZZ    -123.4233

 Total job time:  848.01s(wall), 6643.22s(cpu)
        *  Thank you very much for using Q-Chem.  Have a nice day.  *
