 Q-Chem 5.4, Q-Chem, Inc., Pleasanton, CA (2021)
 Q-Chem 5.4.0 for Intel X86 EM64T Linux

User input:
--------------------------------------------------------------
$molecule
0 1
C                 -3.3858650000      3.4924710000      0.0240260000
C                 -4.6175510000      2.8415910000      0.0755270000
C                 -4.6250040000      1.4381900000      0.1350740000
C                 -2.1856880000      2.7757100000      0.0280280000
C                 -2.2093850000      1.3722770000      0.0859070000
C                 -3.4422440000      0.7135950000      0.1396330000
C                 -0.8958880000      3.5253730000     -0.0275050000
C                  0.3641650000      2.7248190000     -0.0219130000
C                  0.3340620000      1.3215310000      0.0361140000
C                 -0.9524800000      0.5724810000      0.0933840000
C                  1.5909370000      3.3931050000     -0.0735210000
C                  2.7967120000      2.6935370000     -0.0697710000
C                  2.7504530000      1.2908880000     -0.0094860000
C                  1.5408160000      0.6141040000      0.0420250000
O                 -0.8725070000      4.7449780000     -0.0757360000
O                 -0.9758210000     -0.6479310000      0.1438710000
C                 -5.9119670000      3.6148630000      0.0560140000
H                 -5.5735810000      0.9122860000      0.1793440000
H                 -3.4476620000     -0.3685530000      0.1860540000
H                  1.5048100000     -0.4674320000      0.0890210000
C                  4.1192940000      3.4144360000     -0.1399570000
H                  3.6782790000      0.7274800000     -0.0021090000
H                 -3.3324630000      4.5741270000     -0.0193410000
H                  1.5791270000      4.4760590000     -0.1157030000
H                 -5.7381490000      4.6857330000      0.1719850000
H                 -6.5795680000      3.2880000000      0.8581250000
H                 -6.4426100000      3.4619190000     -0.8895020000
H                  3.9921650000      4.4921300000     -0.0267450000
H                  4.6106640000      3.2339260000     -1.1016630000
H                  4.8006090000      3.0666870000      0.6416310000
$end
$rem
MAX_SCF_CYCLES=200
BASIS  =  6-311++G(d,p)
GUI  =  2
JOB_TYPE  =  SP
METHOD  =  B3LYP
SOLVENT_METHOD = COSMO
$end
$solvent
dielectric 37.219
opticaldielectric 1.43
$end

--------------------------------------------------------------

             Standard Nuclear Orientation (Angstroms)
    I     Atom           X                Y                Z
 ----------------------------------------------------------------
    1      C       2.4893776682    -1.1886372147     0.0037268157
    2      C       3.7085923918    -0.5127217577     0.0025942583
    3      C       3.6891828503     0.8918276424     0.0027021272
    4      C       1.2754349960    -0.4954365246     0.0019462776
    5      C       1.2722298459     0.9093844119     0.0000554589
    6      C       2.4925048313     1.5932105530     0.0007923079
    7      C       0.0000226995    -1.2713102246     0.0044045664
    8      C      -1.2754147279    -0.4954851018     0.0018970271
    9      C      -1.2722105909     0.9093197887     0.0000295641
   10      C      -0.0000088082     1.6845928368    -0.0006013439
   11      C      -2.4893718870    -1.1886981742     0.0035570306
   12      C      -3.7085719768    -0.5127895128     0.0023644199
   13      C      -3.6891612299     0.8917821689     0.0024500649
   14      C      -2.4925039680     1.5931521967     0.0006838981
   15      O       0.0000615953    -2.4920866512     0.0081690314
   16      O      -0.0000596801     2.9062707003    -0.0021455267
   17      C       5.0175623359    -1.2612304399    -0.0106557382
   18      H       4.6277533863     1.4371819198     0.0053921502
   19      H       2.4772194071     2.6762592872     0.0013865597
   20      H      -2.4771898765     2.6761989769     0.0012547395
   21      C      -5.0176144326    -1.2611814798    -0.0103596615
   22      H      -4.6277310268     1.4371485771     0.0049596425
   23      H       2.4567477460    -2.2719819457     0.0071407068
   24      H      -2.4567661925    -2.2720420672     0.0068799022
   25      H       4.8674644242    -2.3293173677     0.1539208656
   26      H       5.6940631840    -0.8877968714     0.7631701755
   27      H       5.5264514147    -1.1385754090    -0.9724051940
   28      H      -4.8668006216    -2.3304478990     0.1456134657
   29      H      -5.5312061463    -1.1312224963    -0.9686085757
   30      H      -5.6903210055    -0.8935521060     0.7695850854
 ----------------------------------------------------------------

    9    -767.6114808044      2.10e-06  Convergence criterion met
 Total energy in the final basis set =     -767.6114808044
    5    -767.6259950620      2.83e-06  Convergence criterion met
 Total energy in the final basis set =     -767.6259950620

                    Orbital Energies (a.u.)
 --------------------------------------------------------------

 Alpha MOs
 -- Occupied --
-19.1316 -19.1290 -10.2831 -10.2810 -10.2058 -10.2058 -10.2055 -10.2055
-10.2033 -10.2033 -10.1940 -10.1940 -10.1918 -10.1918 -10.1913 -10.1913
-10.1700 -10.1700  -1.0666  -1.0636  -0.8929  -0.8818  -0.8205  -0.7911
 -0.7796  -0.7717  -0.7248  -0.7006  -0.6812  -0.6418  -0.6282  -0.6095
 -0.5841  -0.5473  -0.5450  -0.5056  -0.4842  -0.4797  -0.4711  -0.4594
 -0.4553  -0.4504  -0.4447  -0.4376  -0.4350  -0.4291  -0.4241  -0.4190
 -0.3932  -0.3921  -0.3820  -0.3761  -0.3682  -0.3642  -0.3578  -0.3574
 -0.2883  -0.2824  -0.2769  -0.2748  -0.2713  -0.2628

          Ground-State Mulliken Net Atomic Charges

     Atom                 Charge (a.u.)
  ----------------------------------------
      1 C                    -0.074481
      2 C                     0.370987
      3 C                    -0.588635
      4 C                     0.223253
      5 C                     0.108983
      6 C                     0.293810
      7 C                    -0.536628
      8 C                     0.222420
      9 C                     0.109045
     10 C                    -1.081054
     11 C                    -0.078299
     12 C                     0.369113
     13 C                    -0.582034
     14 C                     0.295987
     15 O                    -0.292172
     16 O                    -0.300479
     17 C                    -0.363111
     18 H                     0.220993
     19 H                     0.201449
     20 H                     0.201387
     21 C                    -0.362216
     22 H                     0.221106
     23 H                     0.161359
     24 H                     0.161068
     25 H                     0.183338
     26 H                     0.171681
     27 H                     0.193900
     28 H                     0.183516
     29 H                     0.193553
     30 H                     0.172161
  ----------------------------------------
  Sum of atomic charges =     0.000000

                    Cartesian Multipole Moments
 -----------------------------------------------------------------
    Charge (ESU x 10^10)
                 0.0000
    Dipole Moment (Debye)
         X      -0.0001      Y      -0.7277      Z      -0.0727
       Tot       0.7313
    Quadrupole Moments (Debye-Ang)
        XX     -61.6541     XY      -0.0032     YY    -119.3462
        XZ      -0.0070     YZ       0.1297     ZZ    -106.9148

 Total job time:  67.12s(wall), 504.72s(cpu)
        *  Thank you very much for using Q-Chem.  Have a nice day.  *
