 Gaussian 16, Revision A.03,
 Gaussian 16:  ES64L-G16RevA.03 25-Dec-2016

 ----------------------------------------------------------------------
 #P UB3LYP/6-311++G(d,p) nosym opt freq SCRF=(PCM,Solvent=n,n-DiMethylF
 ormamide)
 ----------------------------------------------------------------------

 -------
 Radical
 -------
 Symbolic Z-matrix:
 Charge = -1 Multiplicity = 2

 SCF Done:  E(UB3LYP) =  -1389.42162652     A.U. after   20 cycles
 SCF Done:  E(UB3LYP) =  -1389.42132541     A.U. after   23 cycles
 SCF Done:  E(UB3LYP) =  -1389.42223885     A.U. after   20 cycles
 SCF Done:  E(UB3LYP) =  -1389.42297371     A.U. after   16 cycles
 SCF Done:  E(UB3LYP) =  -1389.42289076     A.U. after   19 cycles
 SCF Done:  E(UB3LYP) =  -1389.42301220     A.U. after   20 cycles
 SCF Done:  E(UB3LYP) =  -1389.42309561     A.U. after   15 cycles
 SCF Done:  E(UB3LYP) =  -1389.42311715     A.U. after   18 cycles
 SCF Done:  E(UB3LYP) =  -1389.42312656     A.U. after   16 cycles
 SCF Done:  E(UB3LYP) =  -1389.42313178     A.U. after   18 cycles
 SCF Done:  E(UB3LYP) =  -1389.42155770     A.U. after   19 cycles
 SCF Done:  E(UB3LYP) =  -1389.42136218     A.U. after   19 cycles
 SCF Done:  E(UB3LYP) =  -1389.42313278     A.U. after    5 cycles
 SCF Done:  E(UB3LYP) =  -1389.42272739     A.U. after   23 cycles
 SCF Done:  E(UB3LYP) =  -1389.42312844     A.U. after   23 cycles
 SCF Done:  E(UB3LYP) =  -1389.42313225     A.U. after   15 cycles
 SCF Done:  E(UB3LYP) =  -1389.42313252     A.U. after   14 cycles
 SCF Done:  E(UB3LYP) =  -1389.42313251     A.U. after   12 cycles
 SCF Done:  E(UB3LYP) =  -1389.42313252     A.U. after   12 cycles
 Optimization completed.
    -- Stationary point found.
 Normal termination of Gaussian 16 at Sat Feb 10 14:15:05 2024.

 ----------------------------------------------------------------------
 #P Geom=AllCheck Guess=TCheck SCRF=Check GenChk UB3LYP/6-311++G(d,p) F
 req
 ----------------------------------------------------------------------

 Structure from the checkpoint file:  "097-rad.chk"
 -------
 Radical
 -------
 Charge = -1 Multiplicity = 2

                          Input orientation:
 ---------------------------------------------------------------------
 Center     Atomic      Atomic             Coordinates (Angstroms)
 Number     Number       Type             X           Y           Z
 ---------------------------------------------------------------------
      1          6           0        1.188015    4.287600    5.416901
      2          6           0        1.401053    4.141071    3.993257
      3          6           0        0.889847    3.098992    3.286794
      4          6           0        0.094596    2.054502    3.903171
      5          6           0       -0.133027    2.205530    5.332759
      6          6           0        0.383557    3.259142    6.063501
      7          8           0        1.670687    5.251009    6.074876
      8          8           0       -0.372029    1.094616    3.239376
      9          1           0        1.995302    4.908677    3.508301
     10          1           0        1.062232    3.004898    2.219670
     11         16           0       -1.112130    0.916218    6.127277
     12          6           0        0.254090    3.447360    7.552622
     13          8           0        1.043879    3.003920    8.356045
     14          8           0       -0.766154    4.252691    7.861793
     15          6           0       -0.951418    4.547943    9.264430
     16          1           0       -1.811488    5.211103    9.308643
     17          1           0       -0.066587    5.041131    9.666998
     18          1           0       -1.147844    3.628822    9.816608
     19          6           0       -2.691502    0.865878    5.257552
     20          6           0       -3.047886   -0.279497    4.553173
     21          6           0       -3.547666    1.961324    5.361303
     22          6           0       -4.298747   -0.328891    3.940093
     23          6           0       -4.789923    1.904724    4.733425
     24          6           0       -5.165350    0.760853    4.026863
     25          8           0       -0.452134   -0.393701    5.974271
     26          8           0       -1.400018    1.372063    7.504284
     27          1           0       -2.357249   -1.109272    4.486384
     28          1           0       -3.255513    2.841281    5.921269
     29          1           0       -4.592010   -1.216234    3.391602
     30          1           0       -5.464532    2.749829    4.801939
     31          1           0       -6.134629    0.719646    3.543581
 ---------------------------------------------------------------------

 SCF Done:  E(UB3LYP) =  -1389.42313252     A.U. after    2 cycles

 Alpha  occ. eigenvalues --  -89.05806 -19.17647 -19.12238 -19.12196 -19.12064
 Alpha  occ. eigenvalues --  -19.09724 -19.09559 -10.31778 -10.24782 -10.24391
 Alpha  occ. eigenvalues --  -10.22419 -10.21856 -10.21681 -10.21196 -10.19954
 Alpha  occ. eigenvalues --  -10.19705 -10.19255 -10.19155 -10.19084 -10.18327
 Alpha  occ. eigenvalues --  -10.18228  -8.12183  -6.08461  -6.08355  -6.08283
 Alpha  occ. eigenvalues --   -1.11972  -1.11330  -1.03154  -1.02249  -1.01897
 Alpha  occ. eigenvalues --   -1.00810  -0.88191  -0.85566  -0.79441  -0.78212
 Alpha  occ. eigenvalues --   -0.76874  -0.74845  -0.71359  -0.68230  -0.63992
 Alpha  occ. eigenvalues --   -0.62789  -0.61939  -0.58430  -0.57096  -0.54448
 Alpha  occ. eigenvalues --   -0.52774  -0.50763  -0.50606  -0.49097  -0.48917
 Alpha  occ. eigenvalues --   -0.48504  -0.47463  -0.46504  -0.46032  -0.45327
 Alpha  occ. eigenvalues --   -0.44282  -0.43661  -0.42931  -0.42334  -0.41035
 Alpha  occ. eigenvalues --   -0.39892  -0.39509  -0.39289  -0.38652  -0.38368
 Alpha  occ. eigenvalues --   -0.36735  -0.36609  -0.34725  -0.33461  -0.32392
 Alpha  occ. eigenvalues --   -0.31233  -0.31035  -0.30773  -0.29660  -0.28526
 Alpha  occ. eigenvalues --   -0.27627  -0.27329  -0.26281  -0.25303  -0.18521
 Alpha virt. eigenvalues --   -0.05556  -0.03823  -0.02863  -0.00631  -0.00384
 Alpha virt. eigenvalues --    0.00147   0.00540   0.00878   0.01594   0.02251
 Alpha virt. eigenvalues --    0.02660   0.03051   0.03282   0.03751   0.04423

  Beta  occ. eigenvalues --  -89.05808 -19.17641 -19.12227 -19.12171 -19.12065
  Beta  occ. eigenvalues --  -19.08958 -19.08903 -10.31793 -10.24700 -10.24291
  Beta  occ. eigenvalues --  -10.22415 -10.21854 -10.21556 -10.20936 -10.19954
  Beta  occ. eigenvalues --  -10.19703 -10.19254 -10.19154 -10.19083 -10.18276
  Beta  occ. eigenvalues --  -10.18146  -8.12185  -6.08463  -6.08357  -6.08287
  Beta  occ. eigenvalues --   -1.11946  -1.11311  -1.03103  -1.01194  -1.00748
  Beta  occ. eigenvalues --   -1.00560  -0.88184  -0.84915  -0.79288  -0.78049
  Beta  occ. eigenvalues --   -0.76871  -0.74619  -0.70843  -0.67798  -0.63735
  Beta  occ. eigenvalues --   -0.62772  -0.61751  -0.58272  -0.56968  -0.54352
  Beta  occ. eigenvalues --   -0.52585  -0.50541  -0.50449  -0.49018  -0.48865
  Beta  occ. eigenvalues --   -0.48472  -0.47372  -0.46306  -0.46007  -0.45291
  Beta  occ. eigenvalues --   -0.44274  -0.43341  -0.41932  -0.41174  -0.40780
  Beta  occ. eigenvalues --   -0.39472  -0.39204  -0.38741  -0.38362  -0.36788
  Beta  occ. eigenvalues --   -0.36662  -0.36417  -0.34643  -0.33305  -0.32221
  Beta  occ. eigenvalues --   -0.31147  -0.30693  -0.30293  -0.28252  -0.27623
  Beta  occ. eigenvalues --   -0.26980  -0.26635  -0.25598  -0.24754
  Beta virt. eigenvalues --   -0.11235  -0.05109  -0.03142  -0.02398  -0.00614
  Beta virt. eigenvalues --   -0.00370   0.00447   0.00891   0.01376   0.02214
  Beta virt. eigenvalues --    0.02358   0.02697   0.03126   0.03392   0.03829

 Mulliken charges and spin densities:
               1          2
     1  C   -0.253327   0.073867
     2  C   -0.011618   0.047427
     3  C   -0.019137   0.055127
     4  C   -0.435504   0.036619
     5  C    0.116142   0.121291
     6  C    0.601101   0.173155
     7  O   -0.416692   0.279468
     8  O   -0.364869   0.242095
     9  H    0.211941  -0.004207
    10  H    0.213073  -0.005960
    11  S    0.463589  -0.028956
    12  C   -0.860665  -0.019748
    13  O   -0.207768   0.006277
    14  O    0.050604  -0.000197
    15  C   -0.232222   0.001664
    16  H    0.164656   0.000534
    17  H    0.178737  -0.000255
    18  H    0.183678  -0.000067
    19  C    0.594898  -0.000213
    20  C   -0.104109   0.019107
    21  C   -0.316375  -0.005134
    22  C   -0.433065  -0.000648
    23  C   -0.474557   0.001257
    24  C   -0.347457   0.000776
    25  O   -0.191861   0.008261
    26  O   -0.195556  -0.002434
    27  H    0.247513   0.000608
    28  H    0.206777   0.000273
    29  H    0.214470   0.000011
    30  H    0.225900   0.000063
    31  H    0.191702  -0.000062
 Sum of Mulliken charges =  -1.00000   1.00000

 Dipole moment (field-independent basis, Debye):
    X=             -6.4386    Y=             -9.5017    Z=            -29.7987  Tot=             31.9328
 Quadrupole moment (field-independent basis, Debye-Ang):
   XX=           -119.6626   YY=           -173.1885   ZZ=           -326.2110
   XY=            -24.7380   XZ=            -39.5412   YZ=            -57.9457

  Exact polarizability: 295.658  58.943 326.430  28.759  57.276 297.357
 Approx polarizability: 317.139  46.906 384.546  41.015  76.299 332.099

                      1                      2                      3
                      A                      A                      A
 Frequencies --     10.4102                28.4549                40.3094
 Red. masses --      3.9789                 5.4464                 7.1768
 Frc consts  --      0.0003                 0.0026                 0.0069
 IR Inten    --      0.2005                 1.7982                 1.2270

                      4                      5                      6
                      A                      A                      A
 Frequencies --     63.5847                71.4078               101.2243
 Red. masses --      4.1251                 6.9934                 4.1671
 Frc consts  --      0.0098                 0.0210                 0.0252
 IR Inten    --      7.9519                 2.0020                 6.5344

                      7                      8                      9
                      A                      A                      A
 Frequencies --    119.3978               146.5433               154.6529
 Red. masses --      2.2462                 2.2396                 6.0199
 Frc consts  --      0.0189                 0.0283                 0.0848
 IR Inten    --      7.1251                 5.1846                 3.0274

                     10                     11                     12
                      A                      A                      A
 Frequencies --    163.3549               177.7158               205.8770
 Red. masses --      7.1526                 5.9804                 5.5514
 Frc consts  --      0.1125                 0.1113                 0.1386
 IR Inten    --      4.8623                 2.2742                 5.8842

                     13                     14                     15
                      A                      A                      A
 Frequencies --    225.7826               249.7154               259.7024
 Red. masses --      8.6082                10.8192                 9.5503
 Frc consts  --      0.2586                 0.3975                 0.3795
 IR Inten    --      4.8610                 2.6810                 3.1901

                     16                     17                     18
                      A                      A                      A
 Frequencies --    300.0544               303.1111               312.3165
 Red. masses --      7.9732                 5.5361                 6.8454
 Frc consts  --      0.4229                 0.2997                 0.3934
 IR Inten    --      6.6760                11.0215                 7.3613

                     19                     20                     21
                      A                      A                      A
 Frequencies --    316.5670               360.9829               408.2338
 Red. masses --      6.7467                 6.0843                 3.4847
 Frc consts  --      0.3984                 0.4671                 0.3422
 IR Inten    --      9.4790                 9.1453                 8.7190

                     22                     23                     24
                      A                      A                      A
 Frequencies --    410.0471               448.3896               469.3304
 Red. masses --      5.3143                 9.8551                 5.7411
 Frc consts  --      0.5265                 1.1674                 0.7451
 IR Inten    --     16.8480                30.7630                22.4578

                     25                     26                     27
                      A                      A                      A
 Frequencies --    492.3369               508.9721               544.6892
 Red. masses --      7.3826                 8.1698                 6.0628
 Frc consts  --      1.0543                 1.2469                 1.0598
 IR Inten    --     16.9220                70.0101                28.7817

                     28                     29                     30
                      A                      A                      A
 Frequencies --    571.1938               588.0244               625.6623
 Red. masses --      7.3140                 7.9865                 6.4609
 Frc consts  --      1.4060                 1.6270                 1.4901
 IR Inten    --     67.3315               291.9840                 0.4287

                     31                     32                     33
                      A                      A                      A
 Frequencies --    645.5396               693.0362               701.2018
 Red. masses --      3.0941                 7.8406                 1.9742
 Frc consts  --      0.7597                 2.2188                 0.5719
 IR Inten    --      2.0118                 5.5442                76.7716

                     34                     35                     36
                      A                      A                      A
 Frequencies --    722.0800               726.6976               763.1113
 Red. masses --      7.6823                 7.0601                 1.6889
 Frc consts  --      2.3600                 2.1967                 0.5795
 IR Inten    --     96.3750                65.2324                38.3146

                     37                     38                     39
                      A                      A                      A
 Frequencies --    770.8632               803.7849               841.2878
 Red. masses --      8.3044                 6.1337                 1.9327
 Frc consts  --      2.9075                 2.3348                 0.8060
 IR Inten    --      9.7508                47.0865                69.4746

                     40                     41                     42
                      A                      A                      A
 Frequencies --    851.7951               897.9608               920.0371
 Red. masses --      1.2501                10.7753                 6.9457
 Frc consts  --      0.5344                 5.1191                 3.4640
 IR Inten    --      0.0401                33.3612                30.5988

                     43                     44                     45
                      A                      A                      A
 Frequencies --    940.6035               981.6415               995.5835
 Red. masses --      1.3517                 1.2876                 1.3860
 Frc consts  --      0.7046                 0.7311                 0.8094
 IR Inten    --      0.3189                 0.0428                 0.5129

                     46                     47                     48
                      A                      A                      A
 Frequencies --    999.9126              1011.9164              1017.2360
 Red. masses --      7.0053                 6.0564                 1.3256
 Frc consts  --      4.1267                 3.6539                 0.8082
 IR Inten    --     30.6324                18.5278                 0.0652

                     49                     50                     51
                      A                      A                      A
 Frequencies --   1033.7774              1051.0968              1086.5168
 Red. masses --      5.0051                 3.3232                 4.0446
 Frc consts  --      3.1515                 2.1632                 2.8132
 IR Inten    --    102.4034               145.5947               203.0327

                     52                     53                     54
                      A                      A                      A
 Frequencies --   1097.7461              1103.1626              1121.1936
 Red. masses --      1.5839                 3.9457                 1.6921
 Frc consts  --      1.1246                 2.8291                 1.2532
 IR Inten    --     28.3974               232.6620                32.9528

                     55                     56                     57
                      A                      A                      A
 Frequencies --   1162.7790              1180.6215              1194.1639
 Red. masses --      1.2834                 1.1142                 1.1567
 Frc consts  --      1.0223                 0.9150                 0.9719
 IR Inten    --      1.2491                 0.1440                 3.2824

                     58                     59                     60
                      A                      A                      A
 Frequencies --   1202.9284              1207.6798              1216.4865
 Red. masses --      1.6248                13.8720                 2.5136
 Frc consts  --      1.3852                11.9205                 2.1916
 IR Inten    --     10.2696               359.0961               152.1727

                     61                     62                     63
                      A                      A                      A
 Frequencies --   1250.5760              1326.1616              1329.7578
 Red. masses --      6.4159                 2.6593                 2.8991
 Frc consts  --      5.9119                 2.7555                 3.0204
 IR Inten    --    487.0845                11.4690                 3.0820

                     64                     65                     66
                      A                      A                      A
 Frequencies --   1342.7226              1408.8950              1459.5434
 Red. masses --      1.7901                 3.6285                 1.5804
 Frc consts  --      1.9015                 4.2436                 1.9836
 IR Inten    --      6.6699               162.0901                73.3556

                     67                     68                     69
                      A                      A                      A
 Frequencies --   1470.4623              1474.2451              1475.2847
 Red. masses --      3.1784                 2.1283                 1.0560
 Frc consts  --      4.0492                 2.7254                 1.3541
 IR Inten    --    278.0686                20.2540                29.0723

                     70                     71                     72
                      A                      A                      A
 Frequencies --   1483.2136              1505.8817              1514.5634
 Red. masses --      1.0487                 2.0299                 8.4597
 Frc consts  --      1.3593                 2.7121                11.4336
 IR Inten    --     15.9270                 6.2407               122.0952

                     73                     74                     75
                      A                      A                      A
 Frequencies --   1533.2300              1618.0589              1623.4488
 Red. masses --      7.7839                 5.3933                 5.8662
 Frc consts  --     10.7811                 8.3194                 9.1093
 IR Inten    --    847.7322                 1.0010                 0.6789

                     76                     77                     78
                      A                      A                      A
 Frequencies --   1636.2912              1740.4757              3055.6589
 Red. masses --      7.4825                11.7748                 1.0294
 Frc consts  --     11.8038                21.0155                 5.6628
 IR Inten    --     28.4756               596.8804                42.4110

                     79                     80                     81
                      A                      A                      A
 Frequencies --   3133.0934              3161.5636              3165.2145
 Red. masses --      1.1078                 1.0866                 1.1063
 Frc consts  --      6.4068                 6.3994                 6.5305
 IR Inten    --     25.1029                15.0185                17.0683

                     82                     83                     84
                      A                      A                      A
 Frequencies --   3173.9994              3178.8160              3183.5420
 Red. masses --      1.0866                 1.0964                 1.0893
 Frc consts  --      6.4498                 6.5278                 6.5047
 IR Inten    --      0.4409                19.4156                11.9072

                     85                     86                     87
                      A                      A                      A
 Frequencies --   3191.2775              3198.9619              3214.0029
 Red. masses --      1.0933                 1.0968                 1.0933
 Frc consts  --      6.5602                 6.6131                 6.6542
 IR Inten    --     13.9286                12.7160                 5.2486

 - Thermochemistry -
 -------------------
 Temperature   298.150 Kelvin.  Pressure   1.00000 Atm.
 Atom     1 has atomic number  6 and mass  12.00000

 Molecular mass:   306.01981 amu.
 Principal axes and moments of inertia in atomic units:
                           1         2         3
     Eigenvalues --  3919.539917780.916439187.88686
           X            0.70902  -0.48425  -0.51263
           Y            0.59527   0.02125   0.80325
           Z            0.37808   0.87467  -0.30333
 This molecule is an asymmetric top.
 Rotational symmetry number  1.
 Warning -- assumption of classical behavior for rotation
           may cause significant error
 Rotational temperatures (Kelvin)      0.02210     0.01113     0.00943
 Rotational constants (GHZ):           0.46045     0.23194     0.19643
 Zero-point vibrational energy     565052.7 (Joules/Mol)
                                  135.05083 (Kcal/Mol)
 Warning -- explicit consideration of  29 degrees of freedom as
           vibrations may cause significant error
 Vibrational temperatures:     14.98    40.94    58.00    91.48   102.74
          (Kelvin)            145.64   171.79   210.84   222.51   235.03
                              255.69   296.21   324.85   359.28   373.65
                              431.71   436.11   449.35   455.47   519.37
                              587.36   589.97   645.13   675.26   708.36
                              732.30   783.69   821.82   846.04   900.19
                              928.79   997.12  1008.87  1038.91  1045.56
                             1097.95  1109.10  1156.47  1210.43  1225.54
                             1291.97  1323.73  1353.32  1412.36  1432.42
                             1438.65  1455.92  1463.58  1487.38  1512.29
                             1563.26  1579.41  1587.20  1613.15  1672.98
                             1698.65  1718.14  1730.75  1737.58  1750.25
                             1799.30  1908.05  1913.22  1931.88  2027.09
                             2099.96  2115.67  2121.11  2122.61  2134.01
                             2166.63  2179.12  2205.98  2328.03  2335.78
                             2354.26  2504.16  4396.41  4507.82  4548.78
                             4554.04  4566.68  4573.61  4580.41  4591.54
                             4602.59  4624.23

 Zero-point correction=                           0.215217 (Hartree/Particle)
 Thermal correction to Energy=                    0.234162
 Thermal correction to Enthalpy=                  0.235106
 Thermal correction to Gibbs Free Energy=         0.164925
 Sum of electronic and zero-point Energies=          -1389.207915
 Sum of electronic and thermal Energies=             -1389.188971
 Sum of electronic and thermal Enthalpies=           -1389.188027
 Sum of electronic and thermal Free Energies=        -1389.258207

                     E (Thermal)             CV                S
                      KCal/Mol        Cal/Mol-Kelvin    Cal/Mol-Kelvin
 Total                  146.939             70.182            147.708
 Electronic               0.000              0.000              1.377
 Translational            0.889              2.981             43.052
 Rotational               0.889              2.981             33.993
 Vibrational            145.161             64.220             69.285
 Vibration     1          0.593              1.987              7.931
 Vibration     2          0.593              1.984              5.934
 Vibration     3          0.594              1.981              5.244
 Vibration     4          0.597              1.972              4.343
 Vibration     5          0.598              1.968              4.114
 Vibration     6          0.604              1.948              3.431
 Vibration     7          0.609              1.933              3.110
 Vibration     8          0.617              1.906              2.717
 Vibration     9          0.620              1.897              2.614
 Vibration    10          0.623              1.887              2.511
 Vibration    11          0.628              1.870              2.352
 Vibration    12          0.640              1.832              2.080
 Vibration    13          0.650              1.802              1.912
 Vibration    14          0.663              1.763              1.733
 Vibration    15          0.668              1.746              1.664
 Vibration    16          0.693              1.674              1.417
 Vibration    17          0.695              1.668              1.400
 Vibration    18          0.701              1.650              1.350
 Vibration    19          0.703              1.642              1.328
 Vibration    20          0.735              1.553              1.118
 Vibration    21          0.773              1.452              0.933
 Vibration    22          0.774              1.448              0.926
 Vibration    23          0.807              1.364              0.801
 Vibration    24          0.826              1.318              0.739
 Vibration    25          0.848              1.267              0.678
 Vibration    26          0.864              1.230              0.636
 Vibration    27          0.900              1.151              0.555
 Vibration    28          0.927              1.094              0.502
 Vibration    29          0.945              1.057              0.471

                           ! Non-Optimized Parameters !
 Normal termination of Gaussian 16 at Sat Feb 10 15:08:41 2024.
