 Q-Chem 5.4, Q-Chem, Inc., Pleasanton, CA (2021)
 Q-Chem 5.4.0 for Intel X86 EM64T Linux

User input:
--------------------------------------------------------------
$molecule
-1 2
C                 -4.8306810000     -0.2853360000     -3.9392860000
C                 -4.2570910000     -1.3368760000     -4.6251590000
C                 -3.1442240000     -2.0168940000     -4.0995590000
C                 -4.3060650000      0.1253180000     -2.6944640000
C                 -3.1811410000     -0.5539310000     -2.1507600000
C                 -2.6256780000     -1.6190070000     -2.8784690000
C                 -4.9057010000      1.2260510000     -1.9741000000
C                 -4.3055220000      1.5769360000     -0.7083820000
C                 -3.2112020000      0.9470530000     -0.1540690000
C                 -2.5958510000     -0.1636020000     -0.8507270000
O                 -5.9146020000      1.8989650000     -2.3738530000
O                 -1.6032550000     -0.7747990000     -0.3783770000
O                 -4.9260160000      2.6207950000     -0.0848250000
O                 -4.7411180000     -1.7706990000     -5.8490700000
C                 -2.6434040000      1.3721630000      1.1753190000
C                 -3.1989590000      0.5614530000      2.3622440000
C                 -2.5934510000      0.9729450000      3.7086170000
C                 -3.1350850000      0.1722210000      4.8984920000
C                 -2.5299450000      0.5796110000      6.2470310000
C                 -3.0693800000     -0.2247550000      7.4354640000
C                 -2.4621640000      0.1806040000      8.7835020000
C                 -3.0008050000     -0.6256740000      9.9709480000
C                 -2.3930250000     -0.2212240000     11.3187200000
C                 -2.9308270000     -1.0277410000     12.5062920000
C                 -2.3175690000     -0.6161480000     13.8482410000
H                 -5.6908470000      0.2499860000     -4.3321320000
H                 -2.7137400000     -2.8393880000     -4.6596480000
H                 -1.7689960000     -2.1245470000     -2.4474000000
H                 -5.6387440000      2.8439480000     -0.7234390000
H                 -5.4944890000     -1.2185790000     -6.0817570000
H                 -2.8507510000      2.4346860000      1.3394920000
H                 -1.5576590000      1.2352440000      1.1425860000
H                 -3.0005360000     -0.5000270000      2.1794550000
H                 -4.2884470000      0.6815470000      2.3986590000
H                 -2.7793010000      2.0423990000      3.8792610000
H                 -1.5023880000      0.8565640000      3.6625000000
H                 -2.9490400000     -0.8960350000      4.7270280000
H                 -4.2263410000      0.2860660000      4.9433820000
H                 -2.7171620000      1.6479410000      6.4193910000
H                 -1.4385600000      0.4673690000      6.2011800000
H                 -2.8831380000     -1.2927990000      7.2621710000
H                 -4.1605860000     -0.1120980000      7.4823200000
H                 -2.6490550000      1.2485140000      8.9575820000
H                 -1.3709530000      0.0684400000      8.7362570000
H                 -2.8141680000     -1.6934600000      9.7965810000
H                 -4.0919560000     -0.5133620000     10.0185800000
H                 -2.5797880000      0.8465160000     11.4945380000
H                 -1.3016720000     -0.3333610000     11.2720840000
H                 -2.7436160000     -2.0944040000     12.3316530000
H                 -4.0210190000     -0.9155900000     12.5538310000
H                 -1.2309360000     -0.7500350000     13.8436930000
H                 -2.7216990000     -1.2097690000     14.6736480000
H                 -2.5180090000      0.4376240000     14.0676410000
$end

$rem
BASIS  =  6-311++G(d,p)
GUI  =  2
JOB_TYPE  =  SP
METHOD  =  B3LYP
SCF_CONVERGENCE  = 8
SOLVENT_METHOD = sm12
$end

$smx
solvent dimethylformamide
charges CM5
$end

--------------------------------------------------------------

             Standard Nuclear Orientation (Angstroms)
    I     Atom           X                Y                Z
 ----------------------------------------------------------------
    1      C      -4.8306810000    -0.2853360000    -3.9392860000
    2      C      -4.2570910000    -1.3368760000    -4.6251590000
    3      C      -3.1442240000    -2.0168940000    -4.0995590000
    4      C      -4.3060650000     0.1253180000    -2.6944640000
    5      C      -3.1811410000    -0.5539310000    -2.1507600000
    6      C      -2.6256780000    -1.6190070000    -2.8784690000
    7      C      -4.9057010000     1.2260510000    -1.9741000000
    8      C      -4.3055220000     1.5769360000    -0.7083820000
    9      C      -3.2112020000     0.9470530000    -0.1540690000
   10      C      -2.5958510000    -0.1636020000    -0.8507270000
   11      O      -5.9146020000     1.8989650000    -2.3738530000
   12      O      -1.6032550000    -0.7747990000    -0.3783770000
   13      O      -4.9260160000     2.6207950000    -0.0848250000
   14      O      -4.7411180000    -1.7706990000    -5.8490700000
   15      C      -2.6434040000     1.3721630000     1.1753190000
   16      C      -3.1989590000     0.5614530000     2.3622440000
   17      C      -2.5934510000     0.9729450000     3.7086170000
   18      C      -3.1350850000     0.1722210000     4.8984920000
   19      C      -2.5299450000     0.5796110000     6.2470310000
   20      C      -3.0693800000    -0.2247550000     7.4354640000
   21      C      -2.4621640000     0.1806040000     8.7835020000
   22      C      -3.0008050000    -0.6256740000     9.9709480000
   23      C      -2.3930250000    -0.2212240000    11.3187200000
   24      C      -2.9308270000    -1.0277410000    12.5062920000
   25      C      -2.3175690000    -0.6161480000    13.8482410000
   26      H      -5.6908470000     0.2499860000    -4.3321320000
   27      H      -2.7137400000    -2.8393880000    -4.6596480000
   28      H      -1.7689960000    -2.1245470000    -2.4474000000
   29      H      -5.6387440000     2.8439480000    -0.7234390000
   30      H      -5.4944890000    -1.2185790000    -6.0817570000
   31      H      -2.8507510000     2.4346860000     1.3394920000
   32      H      -1.5576590000     1.2352440000     1.1425860000
   33      H      -3.0005360000    -0.5000270000     2.1794550000
   34      H      -4.2884470000     0.6815470000     2.3986590000
   35      H      -2.7793010000     2.0423990000     3.8792610000
   36      H      -1.5023880000     0.8565640000     3.6625000000
   37      H      -2.9490400000    -0.8960350000     4.7270280000
   38      H      -4.2263410000     0.2860660000     4.9433820000
   39      H      -2.7171620000     1.6479410000     6.4193910000
   40      H      -1.4385600000     0.4673690000     6.2011800000
   41      H      -2.8831380000    -1.2927990000     7.2621710000
   42      H      -4.1605860000    -0.1120980000     7.4823200000
   43      H      -2.6490550000     1.2485140000     8.9575820000
   44      H      -1.3709530000     0.0684400000     8.7362570000
   45      H      -2.8141680000    -1.6934600000     9.7965810000
   46      H      -4.0919560000    -0.5133620000    10.0185800000
   47      H      -2.5797880000     0.8465160000    11.4945380000
   48      H      -1.3016720000    -0.3333610000    11.2720840000
   49      H      -2.7436160000    -2.0944040000    12.3316530000
   50      H      -4.0210190000    -0.9155900000    12.5538310000
   51      H      -1.2309360000    -0.7500350000    13.8436930000
   52      H      -2.7216990000    -1.2097690000    14.6736480000
   53      H      -2.5180090000     0.4376240000    14.0676410000
 ----------------------------------------------------------------

   18   -1118.4125696681      4.39e-09  Convergence criterion met
 Total energy in the final basis set =    -1118.5059495182

                    Orbital Energies (a.u.)
 --------------------------------------------------------------

 Alpha MOs
 -- Occupied --
-19.1598 -19.1428 -19.0837 -19.0709 -10.2406 -10.2227 -10.2218 -10.2183
-10.1813 -10.1796 -10.1770 -10.1751 -10.1718 -10.1646 -10.1633 -10.1628
-10.1625 -10.1622 -10.1622 -10.1620 -10.1620 -10.1619 -10.1617 -10.1617
-10.1572  -1.0658  -1.0620  -0.9964  -0.9927  -0.8617  -0.8185  -0.8118
 -0.7991  -0.7806  -0.7615  -0.7547  -0.7366  -0.7105  -0.6832  -0.6624
 -0.6412  -0.6284  -0.6048  -0.5905  -0.5806  -0.5773  -0.5744  -0.5717
 -0.5550  -0.5235  -0.4949  -0.4875  -0.4836  -0.4766  -0.4717  -0.4547
 -0.4422  -0.4376  -0.4355  -0.4313  -0.4299  -0.4248  -0.4132  -0.4109
 -0.4104  -0.4059  -0.4002  -0.3940  -0.3879  -0.3848  -0.3817  -0.3766
 -0.3707  -0.3601  -0.3583  -0.3522  -0.3477  -0.3459  -0.3393  -0.3332
 -0.3316  -0.3286  -0.3271  -0.3245  -0.3234  -0.3224  -0.3216  -0.3002
 -0.2680  -0.2572  -0.2480  -0.2360  -0.2236  -0.1497

 Beta MOs
 -- Occupied --
-19.1597 -19.1424 -19.0768 -19.0656 -10.2406 -10.2217 -10.2211 -10.2154
-10.1810 -10.1800 -10.1763 -10.1743 -10.1709 -10.1646 -10.1634 -10.1628
-10.1625 -10.1622 -10.1622 -10.1620 -10.1619 -10.1617 -10.1616 -10.1609
-10.1572  -1.0657  -1.0601  -0.9873  -0.9810  -0.8595  -0.8177  -0.8104
 -0.7979  -0.7795  -0.7600  -0.7531  -0.7359  -0.7095  -0.6794  -0.6577
 -0.6402  -0.6274  -0.6032  -0.5893  -0.5804  -0.5761  -0.5743  -0.5703
 -0.5542  -0.5217  -0.4934  -0.4872  -0.4812  -0.4755  -0.4712  -0.4545
 -0.4403  -0.4353  -0.4327  -0.4309  -0.4275  -0.4222  -0.4115  -0.4092
 -0.4070  -0.4022  -0.3979  -0.3930  -0.3858  -0.3817  -0.3791  -0.3706
 -0.3684  -0.3588  -0.3521  -0.3497  -0.3451  -0.3425  -0.3355  -0.3325
 -0.3303  -0.3283  -0.3253  -0.3244  -0.3226  -0.3224  -0.3120  -0.2996
 -0.2547  -0.2511  -0.2325  -0.2308  -0.2166

          Ground-State Mulliken Net Atomic Charges

     Atom                 Charge (a.u.)    Spin (a.u.)
  --------------------------------------------------------
      1 C                     0.760723       0.098023
      2 C                     1.041834      -0.002768
      3 C                     0.690906       0.058057
      4 C                     0.155289       0.022294
      5 C                    -1.818870       0.041131
      6 C                    -0.103749      -0.004070
      7 C                    -1.689270       0.147292
      8 C                    -0.768997       0.044474
      9 C                     0.866042       0.091600
     10 C                    -2.224437       0.046108
     11 O                    -0.369854       0.255306
     12 O                    -0.302696       0.198356
     13 O                    -0.144277       0.014063
     14 O                    -0.141704       0.001840
     15 C                    -0.621915       0.010636
     16 C                    -2.943440       0.002925
     17 C                    -1.384775      -0.002564
     18 C                    -0.165690      -0.008834
     19 C                     0.788922      -0.002655
     20 C                     1.333488      -0.000211
     21 C                     1.284842       0.000621
     22 C                     0.760287       0.000022
     23 C                     0.302909       0.000046
     24 C                    -0.015698      -0.000022
     25 C                    -0.431558       0.000003
     26 H                     0.170000      -0.006579
     27 H                     0.302649      -0.004828
     28 H                     0.149879       0.000191
     29 H                     0.291639      -0.004333
     30 H                     0.347192      -0.000054
     31 H                     0.172054      -0.000471
     32 H                     0.111060       0.003511
     33 H                     0.056476      -0.002045
     34 H                     0.077001       0.002960
     35 H                     0.179844      -0.000690
     36 H                     0.181437       0.000785
     37 H                     0.121604      -0.000046
     38 H                     0.132846      -0.000068
     39 H                     0.109123       0.000003
     40 H                     0.100600      -0.000002
     41 H                     0.115270       0.000003
     42 H                     0.111377      -0.000006
     43 H                     0.121196      -0.000013
     44 H                     0.119934       0.000005
     45 H                     0.115399      -0.000002
     46 H                     0.118489       0.000001
     47 H                     0.108243       0.000002
     48 H                     0.107093      -0.000003
     49 H                     0.123720       0.000000
     50 H                     0.124024       0.000001
     51 H                     0.140942      -0.000000
     52 H                     0.191379       0.000004
     53 H                     0.141217      -0.000001
  --------------------------------------------------------
  Sum of atomic charges =    -1.000000

                    Cartesian Multipole Moments
 -----------------------------------------------------------------
    Charge (ESU x 10^10)
                -4.8032
    Dipole Moment (Debye)
         X      16.6539      Y      -1.7098      Z       6.0000
       Tot      17.7841
    Quadrupole Moments (Debye-Ang)
        XX    -231.8151     XY      14.9320     YY    -174.0521
        XZ     -25.0183     YZ      -2.0595     ZZ    -184.0943

 Total job time:  2979.87s(wall), 22083.14s(cpu)
        *  Thank you very much for using Q-Chem.  Have a nice day.  *
