 Gaussian 16, Revision A.03,
 Gaussian 16:  ES64L-G16RevA.03 25-Dec-2016

 ----------------------------------------------------------------
 #P UB3LYP/6-311++G(d,p) SCRF=(PCM,Solvent=n,n-DiMethylFormamide)
 ----------------------------------------------------------------

 ------------------
 Quinone PCM in DMF
 ------------------
 Symbolic Z-matrix:
 Charge =  0 Multiplicity = 1

                         Standard orientation:
 ---------------------------------------------------------------------
 Center     Atomic      Atomic             Coordinates (Angstroms)
 Number     Number       Type             X           Y           Z
 ---------------------------------------------------------------------
      1          6           0       -0.928602   -0.910716   -0.504749
      2          6           0       -2.280507   -1.409860   -0.112781
      3          6           0       -3.257116   -0.543614    0.231008
      4          6           0       -2.958473    0.920383    0.292330
      5          6           0       -1.571974    1.421074    0.029157
      6          6           0       -0.603063    0.541598   -0.326685
      7          8           0       -0.116039   -1.687773   -0.978272
      8          8           0       -3.839102    1.716647    0.583200
      9          6           0       -2.454245   -2.899548   -0.189295
     10          6           0       -4.662848   -0.954541    0.580919
     11          6           0       -1.372857    2.900762    0.167132
     12         16           0        1.012411    1.121143   -0.792617
     13          6           0        2.176595   -0.053737    0.031893
     14          6           0        3.595213    0.437763   -0.239769
     15          6           0        4.635967   -0.388248    0.506559
     16          8           0        4.388498   -1.199861    1.351840
     17          8           0        5.928887   -0.130771    0.166678
     18          1           0       -1.653040   -3.404906    0.355437
     19          1           0       -2.378040   -3.241532   -1.225966
     20          1           0       -3.412484   -3.218515    0.216144
     21          1           0       -5.071816   -1.646673   -0.158074
     22          1           0       -5.305714   -0.078137    0.638492
     23          1           0       -4.691916   -1.455944    1.554066
     24          1           0       -2.056342    3.306841    0.912068
     25          1           0       -1.595579    3.408682   -0.778242
     26          1           0       -0.339566    3.130199    0.428134
     27          1           0        2.022926   -1.051068   -0.368098
     28          1           0        1.974834   -0.057774    1.101972
     29          1           0        3.713887    1.482106    0.075220
     30          1           0        3.812333    0.407027   -1.313683
     31          1           0        5.975457    0.527564   -0.537458
 ---------------------------------------------------------------------

 SCF Done:  E(UB3LYP) =  -1165.05510219     A.U. after   17 cycles

 The electronic state is 1-A.
 Alpha  occ. eigenvalues --  -88.86694 -19.18486 -19.13908 -19.13827 -19.13380
 Alpha  occ. eigenvalues --  -10.32757 -10.28788 -10.28347 -10.23503 -10.21987
 Alpha  occ. eigenvalues --  -10.21308 -10.21292 -10.21215 -10.20810 -10.17562
 Alpha  occ. eigenvalues --  -10.17485 -10.17350  -7.95298  -5.91693  -5.91300
 Alpha  occ. eigenvalues --   -5.90690  -1.12478  -1.07402  -1.07054  -1.04811
 Alpha  occ. eigenvalues --   -0.87469  -0.84212  -0.81832  -0.75951  -0.75117
 Alpha  occ. eigenvalues --   -0.72950  -0.68779  -0.66316  -0.64625  -0.62315
 Alpha  occ. eigenvalues --   -0.58220  -0.57905  -0.54425  -0.53799  -0.50475
 Alpha  occ. eigenvalues --   -0.48622  -0.48308  -0.47020  -0.46945  -0.45003
 Alpha  occ. eigenvalues --   -0.44128  -0.43733  -0.43660  -0.42879  -0.42391
 Alpha  occ. eigenvalues --   -0.42006  -0.41215  -0.40460  -0.40090  -0.39571
 Alpha  occ. eigenvalues --   -0.39228  -0.38376  -0.38227  -0.37523  -0.34785
 Alpha  occ. eigenvalues --   -0.34649  -0.30636  -0.30378  -0.29358  -0.28065
 Alpha  occ. eigenvalues --   -0.27501  -0.24347
 Alpha virt. eigenvalues --   -0.13037  -0.02853  -0.01877  -0.01315  -0.00798
 Alpha virt. eigenvalues --   -0.00385   0.00399   0.01188   0.01652   0.02218
 Alpha virt. eigenvalues --    0.02560   0.03088   0.03223   0.03806   0.04052

  Beta  occ. eigenvalues --  -88.86694 -19.18486 -19.13908 -19.13827 -19.13380
  Beta  occ. eigenvalues --  -10.32757 -10.28788 -10.28347 -10.23503 -10.21987
  Beta  occ. eigenvalues --  -10.21308 -10.21292 -10.21215 -10.20810 -10.17562
  Beta  occ. eigenvalues --  -10.17485 -10.17350  -7.95298  -5.91693  -5.91300
  Beta  occ. eigenvalues --   -5.90690  -1.12478  -1.07402  -1.07054  -1.04811
  Beta  occ. eigenvalues --   -0.87469  -0.84212  -0.81832  -0.75951  -0.75117
  Beta  occ. eigenvalues --   -0.72950  -0.68779  -0.66316  -0.64625  -0.62315
  Beta  occ. eigenvalues --   -0.58220  -0.57905  -0.54425  -0.53799  -0.50475
  Beta  occ. eigenvalues --   -0.48622  -0.48308  -0.47020  -0.46945  -0.45003
  Beta  occ. eigenvalues --   -0.44128  -0.43733  -0.43660  -0.42879  -0.42391
  Beta  occ. eigenvalues --   -0.42006  -0.41215  -0.40460  -0.40090  -0.39571
  Beta  occ. eigenvalues --   -0.39228  -0.38376  -0.38227  -0.37523  -0.34785
  Beta  occ. eigenvalues --   -0.34649  -0.30636  -0.30378  -0.29358  -0.28065
  Beta  occ. eigenvalues --   -0.27501  -0.24347
  Beta virt. eigenvalues --   -0.13037  -0.02853  -0.01877  -0.01315  -0.00798
  Beta virt. eigenvalues --   -0.00385   0.00399   0.01188   0.01652   0.02218
  Beta virt. eigenvalues --    0.02560   0.03088   0.03223   0.03806   0.04052

 Mulliken charges and spin densities:
               1          2
     1  C   -0.780657   0.000000
     2  C    0.960509  -0.000000
     3  C    0.033778   0.000000
     4  C   -1.507575   0.000000
     5  C    0.495690  -0.000000
     6  C    1.654184  -0.000000
     7  O   -0.245523  -0.000000
     8  O   -0.257846  -0.000000
     9  C   -0.512679  -0.000000
    10  C   -0.529662   0.000000
    11  C   -0.214097   0.000000
    12  S   -0.590048  -0.000000
    13  C   -0.681752  -0.000000
    14  C   -0.064160   0.000000
    15  C   -0.092961   0.000000
    16  O   -0.317768  -0.000000
    17  O   -0.201461   0.000000
    18  H    0.177174  -0.000000
    19  H    0.203298   0.000000
    20  H    0.173906  -0.000000
    21  H    0.170093   0.000000
    22  H    0.196942  -0.000000
    23  H    0.192700   0.000000
    24  H    0.182208  -0.000000
    25  H    0.214329  -0.000000
    26  H    0.140283   0.000000
    27  H    0.234079  -0.000000
    28  H    0.246397   0.000000
    29  H    0.216195  -0.000000
    30  H    0.201266  -0.000000
    31  H    0.303156  -0.000000
 Sum of Mulliken charges =  -0.00000   0.00000

 Dipole moment (field-independent basis, Debye):
    X=             -0.7141    Y=              2.0169    Z=             -2.1593  Tot=              3.0398
 Quadrupole moment (field-independent basis, Debye-Ang):
   XX=           -112.1633   YY=           -109.8197   ZZ=           -112.2727
   XY=             31.3752   XZ=            -14.9739   YZ=             -0.4755

 Normal termination of Gaussian 16 at Sun Jan 21 07:04:03 2024.
