 Gaussian 16, Revision A.03,
 Gaussian 16:  ES64L-G16RevA.03 25-Dec-2016

 ----------------------------------------------------------------------
 #P UB3LYP/6-311++G(d,p) nosym opt freq SCRF=(PCM,Solvent=n,n-DiMethylF
 ormamide)
 ----------------------------------------------------------------------

 -------
 Reduced
 -------
 Symbolic Z-matrix:
 Charge = -2 Multiplicity = 1

 SCF Done:  E(UB3LYP) =  -496.381823618     A.U. after   16 cycles
 SCF Done:  E(UB3LYP) =  -496.382733559     A.U. after   14 cycles
 SCF Done:  E(UB3LYP) =  -496.383027131     A.U. after   13 cycles
 SCF Done:  E(UB3LYP) =  -496.383072730     A.U. after   12 cycles
 SCF Done:  E(UB3LYP) =  -496.383100562     A.U. after   11 cycles
 SCF Done:  E(UB3LYP) =  -496.383103443     A.U. after   11 cycles
 SCF Done:  E(UB3LYP) =  -496.383104255     A.U. after   10 cycles
 Optimization completed.
    -- Stationary point found.
 Normal termination of Gaussian 16 at Sat Feb 10 12:11:58 2024.

 ----------------------------------------------------------------------
 #P Geom=AllCheck Guess=TCheck SCRF=Check GenChk UB3LYP/6-311++G(d,p) F
 req
 ----------------------------------------------------------------------

 Structure from the checkpoint file:  "082-an.chk"
 -------
 Reduced
 -------
 Charge = -2 Multiplicity = 1

                          Input orientation:
 ---------------------------------------------------------------------
 Center     Atomic      Atomic             Coordinates (Angstroms)
 Number     Number       Type             X           Y           Z
 ---------------------------------------------------------------------
      1          6           0        2.580523   -0.095733    0.721517
      2          8           0        1.828339    0.102703   -0.475398
      3          6           0        0.438021    0.033183   -0.291620
      4          6           0       -0.280281    1.218245   -0.474163
      5          6           0       -1.700175    1.294466   -0.378189
      6          8           0       -2.370208    2.414328   -0.558100
      7          6           0       -2.320338    0.052958   -0.065842
      8          6           0       -1.592164   -1.130287    0.118137
      9          6           0       -0.177716   -1.222599    0.004281
     10          8           0        0.491232   -2.347966    0.144480
     11          1           0        2.330924   -1.056468    1.178450
     12          1           0        3.636773   -0.083038    0.443175
     13          1           0        2.390343    0.715104    1.437213
     14          1           0        0.278017    2.124039   -0.703247
     15          1           0       -3.405132    0.033110    0.029130
     16          1           0       -2.128160   -2.052043    0.342735
 ---------------------------------------------------------------------

 SCF Done:  E(UB3LYP) =  -496.383104255     A.U. after    1 cycles

 Alpha  occ. eigenvalues --  -19.11061 -19.00947 -19.00890 -10.19256 -10.17301
 Alpha  occ. eigenvalues --  -10.16517 -10.16328 -10.12108 -10.11832 -10.11775
 Alpha  occ. eigenvalues --   -1.01736  -0.91321  -0.90960  -0.77514  -0.70609
 Alpha  occ. eigenvalues --   -0.66155  -0.63588  -0.55824  -0.52896  -0.45864
 Alpha  occ. eigenvalues --   -0.44457  -0.43408  -0.42120  -0.40279  -0.38301
 Alpha  occ. eigenvalues --   -0.35021  -0.34822  -0.33343  -0.32060  -0.31642
 Alpha  occ. eigenvalues --   -0.30103  -0.25672  -0.21721  -0.20481  -0.19109
 Alpha  occ. eigenvalues --   -0.18784  -0.11704
 Alpha virt. eigenvalues --    0.00428   0.01522   0.01957   0.02413   0.03339
 Alpha virt. eigenvalues --    0.04131   0.04556   0.05596   0.06302   0.06877
 Alpha virt. eigenvalues --    0.07589   0.08415   0.09315   0.10085   0.10297

  Beta  occ. eigenvalues --  -19.11061 -19.00947 -19.00890 -10.19256 -10.17301
  Beta  occ. eigenvalues --  -10.16517 -10.16328 -10.12108 -10.11832 -10.11775
  Beta  occ. eigenvalues --   -1.01736  -0.91321  -0.90960  -0.77514  -0.70609
  Beta  occ. eigenvalues --   -0.66155  -0.63588  -0.55824  -0.52896  -0.45864
  Beta  occ. eigenvalues --   -0.44457  -0.43408  -0.42120  -0.40279  -0.38301
  Beta  occ. eigenvalues --   -0.35021  -0.34822  -0.33343  -0.32060  -0.31642
  Beta  occ. eigenvalues --   -0.30103  -0.25672  -0.21721  -0.20481  -0.19109
  Beta  occ. eigenvalues --   -0.18784  -0.11704
  Beta virt. eigenvalues --    0.00428   0.01522   0.01957   0.02413   0.03339
  Beta virt. eigenvalues --    0.04131   0.04556   0.05596   0.06302   0.06877
  Beta virt. eigenvalues --    0.07589   0.08415   0.09315   0.10085   0.10297

 Mulliken charges and spin densities:
               1          2
     1  C   -0.266878  -0.000000
     2  O   -0.253219   0.000000
     3  C   -0.484788  -0.000000
     4  C    0.593629   0.000000
     5  C   -0.666448  -0.000000
     6  O   -0.765416   0.000000
     7  C    0.090204   0.000000
     8  C   -0.068894  -0.000000
     9  C   -0.244510   0.000000
    10  O   -0.763605  -0.000000
    11  H    0.164629   0.000000
    12  H    0.133826  -0.000000
    13  H    0.116717  -0.000000
    14  H    0.153531   0.000000
    15  H    0.126992  -0.000000
    16  H    0.134230  -0.000000
 Sum of Mulliken charges =  -2.00000  -0.00000

 Dipole moment (field-independent basis, Debye):
    X=              8.4465    Y=             -0.9168    Z=              3.5392  Tot=              9.2038
 Quadrupole moment (field-independent basis, Debye-Ang):
   XX=            -93.2959   YY=           -114.1606   ZZ=            -69.8690
   XY=             27.8706   XZ=             -2.1920   YZ=              6.7213

  Exact polarizability: 195.159 -18.318 194.767   1.591 -16.397 107.079
 Approx polarizability: 209.446 -19.513 212.647  -2.333 -19.364 113.546

                      1                      2                      3
                      A                      A                      A
 Frequencies --     91.9480               130.8768               168.6042
 Red. masses --      3.4256                 4.4684                 4.6160
 Frc consts  --      0.0171                 0.0451                 0.0773
 IR Inten    --     13.7324                21.1493                12.7234

                      4                      5                      6
                      A                      A                      A
 Frequencies --    187.7821               294.2898               335.1424
 Red. masses --      1.0862                 5.3291                 7.9650
 Frc consts  --      0.0226                 0.2719                 0.5271
 IR Inten    --      1.2638                 5.8785                 2.2661

                      7                      8                      9
                      A                      A                      A
 Frequencies --    349.3456               383.9284               460.2958
 Red. masses --     10.6209                 5.2509                 7.1310
 Frc consts  --      0.7637                 0.4560                 0.8902
 IR Inten    --      3.7427                 1.7739                 3.4416

                     10                     11                     12
                      A                      A                      A
 Frequencies --    486.5504               520.9029               613.5058
 Red. masses --      3.4891                 4.9897                 4.1478
 Frc consts  --      0.4866                 0.7977                 0.9198
 IR Inten    --     12.0232                 2.5036                 9.6936

                     13                     14                     15
                      A                      A                      A
 Frequencies --    650.2526               717.0071               728.5893
 Red. masses --      3.0063                 5.1481                 2.6193
 Frc consts  --      0.7489                 1.5594                 0.8192
 IR Inten    --     16.1292                19.2603                 7.4579

                     16                     17                     18
                      A                      A                      A
 Frequencies --    801.1504               802.9998               833.0343
 Red. masses --      2.1858                 5.9205                 1.8603
 Frc consts  --      0.8266                 2.2493                 0.7606
 IR Inten    --     47.8993               260.7282                64.3541

                     19                     20                     21
                      A                      A                      A
 Frequencies --    889.3170               928.9571              1025.6190
 Red. masses --      1.3170                 3.9028                 3.7099
 Frc consts  --      0.6137                 1.9844                 2.2992
 IR Inten    --      2.9878                28.1079                52.2944

                     22                     23                     24
                      A                      A                      A
 Frequencies --   1087.7364              1138.6890              1163.5052
 Red. masses --      1.9844                 2.1413                 1.2747
 Frc consts  --      1.3833                 1.6359                 1.0167
 IR Inten    --    215.1421               295.5409                 3.5615

                     25                     26                     27
                      A                      A                      A
 Frequencies --   1194.2727              1204.7101              1224.1136
 Red. masses --      5.0842                 1.5006                 1.6807
 Frc consts  --      4.2725                 1.2832                 1.4838
 IR Inten    --    206.7835               157.2250                96.2134

                     28                     29                     30
                      A                      A                      A
 Frequencies --   1273.4881              1312.5101              1398.6329
 Red. masses --      2.6824                 9.0615                 3.9952
 Frc consts  --      2.5631                 9.1972                 4.6047
 IR Inten    --    971.3585                32.6607               212.1551

                     31                     32                     33
                      A                      A                      A
 Frequencies --   1445.5571              1457.2764              1474.3232
 Red. masses --      1.3678                 2.0152                 1.1762
 Frc consts  --      1.6840                 2.5215                 1.5063
 IR Inten    --    270.6503               779.4817                85.9043

                     34                     35                     36
                      A                      A                      A
 Frequencies --   1500.0929              1503.2712              1610.6581
 Red. masses --      4.4136                 1.0589                 7.0477
 Frc consts  --      5.8517                 1.4098                10.7722
 IR Inten    --     44.7096                20.0045                22.5367

                     37                     38                     39
                      A                      A                      A
 Frequencies --   2982.0884              3059.7921              3093.0175
 Red. masses --      1.0415                 1.0892                 1.0844
 Frc consts  --      5.4572                 6.0083                 6.1122
 IR Inten    --    145.5958                76.4524                85.8102

                     40                     41                     42
                      A                      A                      A
 Frequencies --   3096.5589              3115.6886              3120.4623
 Red. masses --      1.1055                 1.0913                 1.0895
 Frc consts  --      6.2456                 6.2417                 6.2502
 IR Inten    --     50.0845               160.4206                25.5838

 - Thermochemistry -
 -------------------
 Temperature   298.150 Kelvin.  Pressure   1.00000 Atm.
 Atom     1 has atomic number  6 and mass  12.00000

 Molecular mass:   138.03169 amu.
 Principal axes and moments of inertia in atomic units:
                           1         2         3
     Eigenvalues --   763.111121712.234622376.58696
           X            0.85357   0.51731  -0.06176
           Y           -0.50435   0.85020   0.15092
           Z            0.13058  -0.09768   0.98661
 This molecule is an asymmetric top.
 Rotational symmetry number  1.
 Warning -- assumption of classical behavior for rotation
           may cause significant error
 Rotational temperatures (Kelvin)      0.11350     0.05059     0.03644
 Rotational constants (GHZ):           2.36498     1.05403     0.75938
 Zero-point vibrational energy     298208.4 (Joules/Mol)
                                   71.27351 (Kcal/Mol)
 Warning -- explicit consideration of  12 degrees of freedom as
           vibrations may cause significant error
 Vibrational temperatures:    132.29   188.30   242.58   270.18   423.42
          (Kelvin)            482.20   502.63   552.39   662.26   700.04
                              749.46   882.70   935.57  1031.61  1048.28
                             1152.68  1155.34  1198.55  1279.53  1336.56
                             1475.64  1565.01  1638.32  1674.02  1718.29
                             1733.31  1761.23  1832.27  1888.41  2012.32
                             2079.83  2096.70  2121.22  2158.30  2162.87
                             2317.38  4290.56  4402.36  4450.16  4455.26
                             4482.78  4489.65

 Zero-point correction=                           0.113582 (Hartree/Particle)
 Thermal correction to Energy=                    0.122259
 Thermal correction to Enthalpy=                  0.123203
 Thermal correction to Gibbs Free Energy=         0.079902
 Sum of electronic and zero-point Energies=           -496.269523
 Sum of electronic and thermal Energies=              -496.260845
 Sum of electronic and thermal Enthalpies=            -496.259901
 Sum of electronic and thermal Free Energies=         -496.303202

                     E (Thermal)             CV                S
                      KCal/Mol        Cal/Mol-Kelvin    Cal/Mol-Kelvin
 Total                   76.719             32.730             91.134
 Electronic               0.000              0.000              0.000
 Translational            0.889              2.981             40.679
 Rotational               0.889              2.981             29.519
 Vibrational             74.941             26.769             20.935
 Vibration     1          0.602              1.955              3.618
 Vibration     2          0.612              1.922              2.933
 Vibration     3          0.625              1.881              2.451
 Vibration     4          0.632              1.857              2.250
 Vibration     5          0.689              1.684              1.449
 Vibration     6          0.716              1.605              1.235
 Vibration     7          0.727              1.577              1.169
 Vibration     8          0.753              1.504              1.024
 Vibration     9          0.818              1.338              0.765
 Vibration    10          0.843              1.280              0.693
 Vibration    11          0.876              1.204              0.608
 Vibration    12          0.973              1.003              0.427

                           ! Non-Optimized Parameters !
 Normal termination of Gaussian 16 at Sat Feb 10 12:20:58 2024.
