 Gaussian 16, Revision A.03,
 Gaussian 16:  ES64L-G16RevA.03 25-Dec-2016

 ----------------------------------------------------------------------
 #P UB3LYP/6-311++G(d,p) nosym opt freq SCRF=(PCM,Solvent=n,n-DiMethylF
 ormamide)
 ----------------------------------------------------------------------

 --------
 Oxidized
 --------
 Symbolic Z-matrix:
 Charge =  0 Multiplicity = 1

 SCF Done:  E(UB3LYP) =  -1203.91485938     A.U. after   17 cycles
 SCF Done:  E(UB3LYP) =  -1203.91503823     A.U. after   17 cycles
 SCF Done:  E(UB3LYP) =  -1203.91499694     A.U. after   13 cycles
 SCF Done:  E(UB3LYP) =  -1203.91508408     A.U. after   14 cycles
 SCF Done:  E(UB3LYP) =  -1203.91511801     A.U. after   13 cycles
 SCF Done:  E(UB3LYP) =  -1203.91511894     A.U. after   11 cycles
 SCF Done:  E(UB3LYP) =  -1203.91511951     A.U. after   11 cycles
 SCF Done:  E(UB3LYP) =  -1203.91511954     A.U. after   12 cycles
 SCF Done:  E(UB3LYP) =  -1203.91511963     A.U. after   10 cycles
 Optimization completed.
    -- Stationary point found.
 Normal termination of Gaussian 16 at Sun Feb 11 15:49:05 2024.

 ----------------------------------------------------------------------
 #P Geom=AllCheck Guess=TCheck SCRF=Check GenChk UB3LYP/6-311++G(d,p) F
 req
 ----------------------------------------------------------------------

 Structure from the checkpoint file:  "313.chk"
 --------
 Oxidized
 --------
 Charge =  0 Multiplicity = 1

                          Input orientation:
 ---------------------------------------------------------------------
 Center     Atomic      Atomic             Coordinates (Angstroms)
 Number     Number       Type             X           Y           Z
 ---------------------------------------------------------------------
      1          6           0       -4.160188   -1.334363   -0.175490
      2          6           0       -3.773583   -1.823674   -1.420154
      3          6           0       -2.956111   -1.056381   -2.252498
      4          6           0       -3.725235   -0.076226    0.249014
      5          6           0       -2.899272    0.694442   -0.588813
      6          6           0       -2.521936    0.199982   -1.838784
      7          6           0       -4.172416    0.438568    1.575224
      8          6           0       -3.560202    1.730436    2.049892
      9          6           0       -2.779188    2.459040    1.225407
     10          6           0       -2.426561    2.030753   -0.140876
     11         16           0       -4.034109    2.411351    3.618793
     12          6           0       -3.767960    1.060328    4.776443
     13          6           0       -4.724708    0.848756    5.769331
     14          6           0       -2.589982    0.308260    4.754415
     15          6           0       -2.364141   -0.690529    5.705988
     16          6           0       -4.490840   -0.127459    6.737409
     17          6           0       -3.327992   -0.892963    6.703176
     18          6           0       -1.112667   -1.533369    5.657790
     19          8           0       -5.015638   -0.142156    2.234492
     20          8           0       -1.737519    2.753698   -0.852863
     21          1           0       -4.798528   -1.918109    0.475445
     22          1           0       -4.110892   -2.801413   -1.743153
     23          1           0       -2.658541   -1.438277   -3.221883
     24          1           0       -1.889169    0.806659   -2.474269
     25          1           0       -2.356721    3.406073    1.541603
     26          1           0       -5.638950    1.429836    5.783453
     27          1           0       -1.839362    0.500855    3.995796
     28          1           0       -5.226826   -0.295354    7.515633
     29          1           0       -3.162937   -1.653227    7.459388
     30          1           0       -0.338470   -1.063295    5.048547
     31          1           0       -1.323835   -2.516930    5.225121
     32          1           0       -0.708715   -1.699498    6.659334
 ---------------------------------------------------------------------

 SCF Done:  E(UB3LYP) =  -1203.91511963     A.U. after    1 cycles

 Alpha  occ. eigenvalues --  -88.87778 -19.14337 -19.13824 -10.29603 -10.28792
 Alpha  occ. eigenvalues --  -10.24874 -10.22147 -10.21588 -10.21430 -10.21256
 Alpha  occ. eigenvalues --  -10.20257 -10.20213 -10.20164 -10.20118 -10.19658
 Alpha  occ. eigenvalues --  -10.18709 -10.18662 -10.18623 -10.18146 -10.17046
 Alpha  occ. eigenvalues --   -7.96369  -5.92766  -5.92363  -5.91768  -1.07755
 Alpha  occ. eigenvalues --   -1.06794  -0.89658  -0.88235  -0.85898  -0.80839
 Alpha  occ. eigenvalues --   -0.78512  -0.78313  -0.77190  -0.72971  -0.69935
 Alpha  occ. eigenvalues --   -0.69279  -0.65509  -0.63914  -0.61255  -0.59794
 Alpha  occ. eigenvalues --   -0.58307  -0.55097  -0.53604  -0.52116  -0.50462
 Alpha  occ. eigenvalues --   -0.48792  -0.47948  -0.46845  -0.46586  -0.45870
 Alpha  occ. eigenvalues --   -0.45564  -0.45153  -0.43717  -0.43237  -0.42818
 Alpha  occ. eigenvalues --   -0.42409  -0.42238  -0.39700  -0.39428  -0.38677
 Alpha  occ. eigenvalues --   -0.38174  -0.37502  -0.37124  -0.35676  -0.35112
 Alpha  occ. eigenvalues --   -0.32271  -0.29683  -0.29275  -0.28612  -0.28294
 Alpha  occ. eigenvalues --   -0.27707  -0.26158  -0.23882
 Alpha virt. eigenvalues --   -0.13343  -0.06273  -0.04464  -0.03517  -0.02362
 Alpha virt. eigenvalues --   -0.00820  -0.00058   0.00656   0.00831   0.01147
 Alpha virt. eigenvalues --    0.01592   0.02074   0.02425   0.02795   0.03246

  Beta  occ. eigenvalues --  -88.87778 -19.14337 -19.13824 -10.29603 -10.28792
  Beta  occ. eigenvalues --  -10.24874 -10.22147 -10.21588 -10.21430 -10.21256
  Beta  occ. eigenvalues --  -10.20257 -10.20213 -10.20164 -10.20118 -10.19658
  Beta  occ. eigenvalues --  -10.18709 -10.18662 -10.18623 -10.18146 -10.17046
  Beta  occ. eigenvalues --   -7.96369  -5.92766  -5.92363  -5.91768  -1.07755
  Beta  occ. eigenvalues --   -1.06794  -0.89658  -0.88235  -0.85898  -0.80839
  Beta  occ. eigenvalues --   -0.78512  -0.78313  -0.77190  -0.72971  -0.69935
  Beta  occ. eigenvalues --   -0.69279  -0.65509  -0.63914  -0.61255  -0.59794
  Beta  occ. eigenvalues --   -0.58307  -0.55097  -0.53604  -0.52116  -0.50462
  Beta  occ. eigenvalues --   -0.48792  -0.47948  -0.46845  -0.46586  -0.45870
  Beta  occ. eigenvalues --   -0.45564  -0.45153  -0.43717  -0.43237  -0.42818
  Beta  occ. eigenvalues --   -0.42409  -0.42238  -0.39700  -0.39428  -0.38677
  Beta  occ. eigenvalues --   -0.38174  -0.37502  -0.37124  -0.35676  -0.35112
  Beta  occ. eigenvalues --   -0.32271  -0.29683  -0.29275  -0.28612  -0.28294
  Beta  occ. eigenvalues --   -0.27707  -0.26158  -0.23882
  Beta virt. eigenvalues --   -0.13343  -0.06273  -0.04464  -0.03517  -0.02362
  Beta virt. eigenvalues --   -0.00820  -0.00058   0.00656   0.00831   0.01147
  Beta virt. eigenvalues --    0.01592   0.02074   0.02425   0.02795   0.03246

 Mulliken charges and spin densities:
               1          2
     1  C    0.068865  -0.000000
     2  C   -0.385089  -0.000000
     3  C   -0.416516   0.000000
     4  C    0.060596  -0.000000
     5  C    0.674821   0.000000
     6  C    0.080318   0.000000
     7  C   -0.929945  -0.000000
     8  C    0.962969  -0.000000
     9  C    0.082895   0.000000
    10  C   -0.557162  -0.000000
    11  S   -0.498985  -0.000000
    12  C    0.457387  -0.000000
    13  C    0.036374   0.000000
    14  C   -0.669710  -0.000000
    15  C    0.357609  -0.000000
    16  C   -0.353072  -0.000000
    17  C   -0.326961   0.000000
    18  C   -0.550357   0.000000
    19  O   -0.208742  -0.000000
    20  O   -0.296127   0.000000
    21  H    0.207458   0.000000
    22  H    0.210097  -0.000000
    23  H    0.210983   0.000000
    24  H    0.192769  -0.000000
    25  H    0.262426  -0.000000
    26  H    0.212939   0.000000
    27  H    0.225739   0.000000
    28  H    0.198947  -0.000000
    29  H    0.186971   0.000000
    30  H    0.166511  -0.000000
    31  H    0.184940  -0.000000
    32  H    0.151055  -0.000000
 Sum of Mulliken charges =  -0.00000  -0.00000

 Dipole moment (field-independent basis, Debye):
    X=              0.9916    Y=             -4.2622    Z=             -0.0484  Tot=              4.3763
 Quadrupole moment (field-independent basis, Debye-Ang):
   XX=           -133.3752   YY=           -125.7157   ZZ=           -106.6136
   XY=              7.6857   XZ=              7.3090   YZ=              0.5907

  Exact polarizability: 263.871  22.275 315.625 -78.005 -23.324 412.213
 Approx polarizability: 328.537  40.659 371.811-108.421 -42.235 446.727

                      1                      2                      3
                      A                      A                      A
 Frequencies --     19.9380                24.0250                27.1624
 Red. masses --      4.2761                 6.7503                 5.4209
 Frc consts  --      0.0010                 0.0023                 0.0024
 IR Inten    --      0.7929                 0.8894                 3.0987

                      4                      5                      6
                      A                      A                      A
 Frequencies --     29.7405                67.0183               113.2691
 Red. masses --      1.0217                 7.7639                 4.8411
 Frc consts  --      0.0005                 0.0205                 0.0366
 IR Inten    --      0.2940                 7.8786                 0.2632

                      7                      8                      9
                      A                      A                      A
 Frequencies --    138.6035               162.0527               194.4868
 Red. masses --      6.6623                 5.8093                 4.8814
 Frc consts  --      0.0754                 0.0899                 0.1088
 IR Inten    --      7.4192                 0.7903                 1.0144

                     10                     11                     12
                      A                      A                      A
 Frequencies --    206.7060               218.9911               225.3262
 Red. masses --      3.6444                 4.9754                 5.3532
 Frc consts  --      0.0917                 0.1406                 0.1601
 IR Inten    --      5.0210                 0.7473                 5.6416

                     13                     14                     15
                      A                      A                      A
 Frequencies --    279.5921               315.2071               365.8595
 Red. masses --      7.5085                 7.3707                 5.3520
 Frc consts  --      0.3458                 0.4315                 0.4221
 IR Inten    --      1.0906                 1.6152                 2.1199

                     16                     17                     18
                      A                      A                      A
 Frequencies --    381.5854               393.9533               417.4389
 Red. masses --      5.9832                 5.5627                 4.5499
 Frc consts  --      0.5133                 0.5087                 0.4671
 IR Inten    --     36.6760                10.4995                 4.8305

                     19                     20                     21
                      A                      A                      A
 Frequencies --    431.1531               452.4252               461.3034
 Red. masses --      3.5116                 4.1538                 7.5504
 Frc consts  --      0.3846                 0.5009                 0.9467
 IR Inten    --      1.4990                13.3786                 2.5158

                     22                     23                     24
                      A                      A                      A
 Frequencies --    481.8692               500.5167               527.4623
 Red. masses --      4.5199                 8.0562                 5.0461
 Frc consts  --      0.6184                 1.1891                 0.8272
 IR Inten    --      3.4092                 0.8148                 1.2861

                     25                     26                     27
                      A                      A                      A
 Frequencies --    544.3013               617.2787               665.8556
 Red. masses --      4.2619                 7.0734                 6.0704
 Frc consts  --      0.7439                 1.5880                 1.5857
 IR Inten    --      6.6365                33.8641                 0.5064

                     28                     29                     30
                      A                      A                      A
 Frequencies --    679.8104               689.4234               700.4168
 Red. masses --      3.8013                 5.2343                 2.7575
 Frc consts  --      1.0350                 1.4658                 0.7970
 IR Inten    --     12.3114                 5.8968                44.1051

                     31                     32                     33
                      A                      A                      A
 Frequencies --    709.7709               720.8744               787.4537
 Red. masses --      4.7543                 3.8058                 1.6858
 Frc consts  --      1.4111                 1.1652                 0.6159
 IR Inten    --     31.1705                44.1317                87.0963

                     34                     35                     36
                      A                      A                      A
 Frequencies --    788.9198               805.7504               809.8692
 Red. masses --      1.5731                 3.1949                 4.8544
 Frc consts  --      0.5769                 1.2221                 1.8759
 IR Inten    --     33.2740                20.0692                 4.4319

                     37                     38                     39
                      A                      A                      A
 Frequencies --    851.2719               862.3428               892.0281
 Red. masses --      7.5102                 5.2596                 1.3243
 Frc consts  --      3.2066                 2.3044                 0.6209
 IR Inten    --    129.8455                13.2369                10.7068

                     40                     41                     42
                      A                      A                      A
 Frequencies --    912.8250               917.5834               920.5909
 Red. masses --      1.3816                 1.3769                 1.4956
 Frc consts  --      0.6783                 0.6830                 0.7468
 IR Inten    --      6.3094                 4.9540                18.9055

                     43                     44                     45
                      A                      A                      A
 Frequencies --    995.5829               999.8975              1006.3714
 Red. masses --      1.3264                 1.3911                 2.2792
 Frc consts  --      0.7746                 0.8195                 1.3600
 IR Inten    --      0.1492                 1.3878                 9.3990

                     46                     47                     48
                      A                      A                      A
 Frequencies --   1015.0333              1022.5403              1042.8526
 Red. masses --      2.3932                 1.3334                 3.2960
 Frc consts  --      1.4527                 0.8214                 2.1120
 IR Inten    --      2.3375                 0.0916                20.5881

                     49                     50                     51
                      A                      A                      A
 Frequencies --   1059.7439              1076.9539              1097.4555
 Red. masses --      1.5476                 3.3893                 2.3124
 Frc consts  --      1.0240                 2.3161                 1.6409
 IR Inten    --     12.6703                67.8793                12.8916

                     52                     53                     54
                      A                      A                      A
 Frequencies --   1097.9198              1122.6936              1132.5171
 Red. masses --      2.9765                 1.5456                 1.7626
 Frc consts  --      2.1139                 1.1478                 1.3319
 IR Inten    --     40.1282                 0.7307                91.7446

                     55                     56                     57
                      A                      A                      A
 Frequencies --   1179.6251              1190.0712              1229.5313
 Red. masses --      1.1173                 1.1374                 2.6886
 Frc consts  --      0.9161                 0.9491                 2.3947
 IR Inten    --     12.5156                 1.8034                 4.5702

                     58                     59                     60
                      A                      A                      A
 Frequencies --   1232.5798              1265.8576              1304.5385
 Red. masses --      2.3077                 2.3276                 3.0615
 Frc consts  --      2.0657                 2.1975                 3.0698
 IR Inten    --     76.8112               416.2446                54.2821

                     61                     62                     63
                      A                      A                      A
 Frequencies --   1310.0649              1329.5424              1340.5694
 Red. masses --      2.5462                 2.0849                 1.6430
 Frc consts  --      2.5747                 2.1714                 1.7396
 IR Inten    --    306.7180                31.2871                 1.3512

                     64                     65                     66
                      A                      A                      A
 Frequencies --   1358.9221              1409.2461              1435.1093
 Red. masses --      7.5402                 1.2401                 2.1933
 Frc consts  --      8.2040                 1.4511                 2.6614
 IR Inten    --     29.2002                 1.3228                 2.8284

                     67                     68                     69
                      A                      A                      A
 Frequencies --   1478.1642              1480.0628              1486.4655
 Red. masses --      1.0588                 2.3379                 1.2102
 Frc consts  --      1.3631                 3.0174                 1.5755
 IR Inten    --     11.4563                 1.0635                16.8897

                     70                     71                     72
                      A                      A                      A
 Frequencies --   1502.9844              1506.0439              1599.1751
 Red. masses --      2.6340                 2.1553                 6.3140
 Frc consts  --      3.5057                 2.8802                 9.5137
 IR Inten    --     28.7438                41.3194               196.6500

                     73                     74                     75
                      A                      A                      A
 Frequencies --   1606.1824              1619.4368              1623.3186
 Red. masses --      5.6630                 6.2050                 7.0702
 Frc consts  --      8.6076                 9.5878                10.9771
 IR Inten    --      9.4095               208.7772               170.2096

                     76                     77                     78
                      A                      A                      A
 Frequencies --   1627.7966              1682.2551              1713.3452
 Red. masses --      6.0215                10.9224                12.6958
 Frc consts  --      9.4006                18.2117                21.9583
 IR Inten    --     46.9220               695.7300               407.0706

                     79                     80                     81
                      A                      A                      A
 Frequencies --   3025.0473              3078.8093              3106.6875
 Red. masses --      1.0396                 1.0964                 1.1025
 Frc consts  --      5.6048                 6.1233                 6.2694
 IR Inten    --     35.6510                25.9764                26.4403

                     82                     83                     84
                      A                      A                      A
 Frequencies --   3163.5012              3171.0067              3177.7930
 Red. masses --      1.0874                 1.0908                 1.0913
 Frc consts  --      6.4120                 6.4621                 6.4929
 IR Inten    --      7.9653                 6.6245                18.9241

                     85                     86                     87
                      A                      A                      A
 Frequencies --   3180.0459              3186.2702              3191.3804
 Red. masses --      1.0874                 1.0923                 1.0959
 Frc consts  --      6.4792                 6.5334                 6.5764
 IR Inten    --      2.7759                 1.4548                20.8043

                     88                     89                     90
                      A                      A                      A
 Frequencies --   3191.7145              3202.4163              3205.9614
 Red. masses --      1.0910                 1.0930                 1.0959
 Frc consts  --      6.5483                 6.6040                 6.6367
 IR Inten    --      7.4219                 3.6287                16.6416

 - Thermochemistry -
 -------------------
 Temperature   298.150 Kelvin.  Pressure   1.00000 Atm.
 Atom     1 has atomic number  6 and mass  12.00000

 Molecular mass:   280.05580 amu.
 Principal axes and moments of inertia in atomic units:
                           1         2         3
     Eigenvalues --  3154.200599538.71264**********
           X           -0.06355  -0.00283   0.99797
           Y           -0.03486   0.99939   0.00062
           Z            0.99737   0.03475   0.06361
 This molecule is an asymmetric top.
 Rotational symmetry number  1.
 Warning -- assumption of classical behavior for rotation
           may cause significant error
 Rotational temperatures (Kelvin)      0.02746     0.00908     0.00819
 Rotational constants (GHZ):           0.57217     0.18920     0.17065
 Zero-point vibrational energy     630271.3 (Joules/Mol)
                                  150.63846 (Kcal/Mol)
 Warning -- explicit consideration of  26 degrees of freedom as
           vibrations may cause significant error
 Vibrational temperatures:     28.69    34.57    39.08    42.79    96.42
          (Kelvin)            162.97   199.42   233.16   279.82   297.40
                              315.08   324.19   402.27   453.51   526.39
                              549.02   566.81   600.60   620.33   650.94
                              663.71   693.30   720.13   758.90   783.13
                              888.13   958.02   978.10   991.93  1007.74
                             1021.20  1037.18  1132.97  1135.08  1159.30
                             1165.22  1224.79  1240.72  1283.43  1313.35
                             1320.20  1324.52  1432.42  1438.63  1447.94
                             1460.41  1471.21  1500.43  1524.74  1549.50
                             1578.99  1579.66  1615.31  1629.44  1697.22
                             1712.25  1769.02  1773.41  1821.29  1876.94
                             1884.89  1912.91  1928.78  1955.19  2027.59
                             2064.80  2126.75  2129.48  2138.69  2162.46
                             2166.86  2300.86  2310.94  2330.01  2335.59
                             2342.04  2420.39  2465.12  4352.37  4429.72
                             4469.83  4551.57  4562.37  4572.14  4575.38
                             4584.33  4591.68  4592.17  4607.56  4612.66

 Zero-point correction=                           0.240058 (Hartree/Particle)
 Thermal correction to Energy=                    0.257235
 Thermal correction to Enthalpy=                  0.258179
 Thermal correction to Gibbs Free Energy=         0.191752
 Sum of electronic and zero-point Energies=          -1203.675062
 Sum of electronic and thermal Energies=             -1203.657885
 Sum of electronic and thermal Enthalpies=           -1203.656941
 Sum of electronic and thermal Free Energies=        -1203.723367

                     E (Thermal)             CV                S
                      KCal/Mol        Cal/Mol-Kelvin    Cal/Mol-Kelvin
 Total                  161.417             65.344            139.806
 Electronic               0.000              0.000              0.000
 Translational            0.889              2.981             42.788
 Rotational               0.889              2.981             34.119
 Vibrational            159.640             59.382             62.899
 Vibration     1          0.593              1.986              6.640
 Vibration     2          0.593              1.985              6.270
 Vibration     3          0.593              1.984              6.027
 Vibration     4          0.594              1.984              5.847
 Vibration     5          0.598              1.970              4.239
 Vibration     6          0.607              1.938              3.212
 Vibration     7          0.614              1.915              2.823
 Vibration     8          0.622              1.889              2.526
 Vibration     9          0.635              1.848              2.185
 Vibration    10          0.641              1.830              2.073
 Vibration    11          0.647              1.812              1.967
 Vibration    12          0.650              1.802              1.916
 Vibration    13          0.680              1.711              1.536
 Vibration    14          0.703              1.645              1.335
 Vibration    15          0.739              1.543              1.097
 Vibration    16          0.751              1.509              1.033
 Vibration    17          0.761              1.483              0.985
 Vibration    18          0.780              1.432              0.901
 Vibration    19          0.792              1.402              0.855
 Vibration    20          0.811              1.356              0.788
 Vibration    21          0.819              1.336              0.762
 Vibration    22          0.838              1.290              0.705
 Vibration    23          0.856              1.249              0.657
 Vibration    24          0.882              1.189              0.593
 Vibration    25          0.899              1.152              0.556
 Vibration    26          0.977              0.995              0.421

                           ! Non-Optimized Parameters !
 Normal termination of Gaussian 16 at Sun Feb 11 16:47:20 2024.
