 Gaussian 16, Revision A.03,
 Gaussian 16:  ES64L-G16RevA.03 25-Dec-2016

 --------------------------------------
 #P UB3LYP/6-311++G(d,p) nosym opt freq
 --------------------------------------

 -------
 Reduced
 -------
 Symbolic Z-matrix:
 Charge = -2 Multiplicity = 1

 SCF Done:  E(UB3LYP) =  -473.798388095     A.U. after   30 cycles
 SCF Done:  E(UB3LYP) =  -473.833912285     A.U. after   20 cycles
 SCF Done:  E(UB3LYP) =  -473.839345648     A.U. after   18 cycles
 SCF Done:  E(UB3LYP) =  -473.839649214     A.U. after   17 cycles
 SCF Done:  E(UB3LYP) =  -473.839750085     A.U. after   17 cycles
 SCF Done:  E(UB3LYP) =  -473.839840683     A.U. after   16 cycles
 SCF Done:  E(UB3LYP) =  -473.839912945     A.U. after   15 cycles
 SCF Done:  E(UB3LYP) =  -473.839915070     A.U. after   14 cycles
 SCF Done:  E(UB3LYP) =  -473.839917870     A.U. after   13 cycles
 Optimization completed.
    -- Stationary point found.
 Normal termination of Gaussian 16 at Sun Dec 17 21:04:08 2023.

 ----------------------------------------------------------------------
 #P Geom=AllCheck Guess=TCheck SCRF=Check GenChk UB3LYP/6-311++G(d,p) F
 req
 ----------------------------------------------------------------------

 Structure from the checkpoint file:  "000-an.chk"
 -------
 Reduced
 -------
 Charge = -2 Multiplicity = 1

                          Input orientation:
 ---------------------------------------------------------------------
 Center     Atomic      Atomic             Coordinates (Angstroms)
 Number     Number       Type             X           Y           Z
 ---------------------------------------------------------------------
      1          6           0       -0.308475    1.213146   -0.276805
      2          6           0       -1.343628    0.318155   -0.731170
      3          6           0       -1.273088   -1.062279   -0.635962
      4          6           0       -0.157245   -1.787105   -0.070880
      5          6           0        0.871696   -0.928890    0.382183
      6          6           0        0.816479    0.502328    0.291983
      7          8           0       -0.399663    2.491471   -0.377310
      8          8           0       -0.134830   -3.087457   -0.002216
      9          6           0        1.918879    1.240653    0.785367
     10          7           0        2.852583    1.804976    1.206249
     11          1           0       -2.222094    0.791628   -1.171728
     12          1           0       -2.102405   -1.669637   -1.004864
     13          1           0        1.754912   -1.386320    0.824193
 ---------------------------------------------------------------------

 SCF Done:  E(UB3LYP) =  -473.839917870     A.U. after    1 cycles

 Alpha  occ. eigenvalues --  -18.75560 -18.74080 -14.02021  -9.92691  -9.92239
 Alpha  occ. eigenvalues --   -9.90633  -9.88854  -9.87752  -9.87389  -9.86608
 Alpha  occ. eigenvalues --   -0.67146  -0.64969  -0.61846  -0.52353  -0.46041
 Alpha  occ. eigenvalues --   -0.39436  -0.33269  -0.28664  -0.20124  -0.17237
 Alpha  occ. eigenvalues --   -0.16675  -0.13010  -0.10698  -0.09487  -0.08890
 Alpha  occ. eigenvalues --   -0.06873  -0.06618  -0.06472  -0.04259  -0.04151
 Alpha  occ. eigenvalues --    0.03852   0.04545   0.06846   0.07989   0.14333
 Alpha virt. eigenvalues --    0.19617   0.21396   0.21687   0.24532   0.24966
 Alpha virt. eigenvalues --    0.27398   0.27873   0.28837   0.29337   0.30689
 Alpha virt. eigenvalues --    0.31053   0.31757   0.32295   0.32404   0.33090

  Beta  occ. eigenvalues --  -18.75560 -18.74080 -14.02021  -9.92691  -9.92239
  Beta  occ. eigenvalues --   -9.90633  -9.88854  -9.87752  -9.87389  -9.86608
  Beta  occ. eigenvalues --   -0.67146  -0.64969  -0.61846  -0.52353  -0.46041
  Beta  occ. eigenvalues --   -0.39436  -0.33269  -0.28664  -0.20124  -0.17237
  Beta  occ. eigenvalues --   -0.16675  -0.13010  -0.10698  -0.09487  -0.08890
  Beta  occ. eigenvalues --   -0.06873  -0.06618  -0.06472  -0.04259  -0.04151
  Beta  occ. eigenvalues --    0.03852   0.04545   0.06846   0.07989   0.14333
  Beta virt. eigenvalues --    0.19617   0.21396   0.21687   0.24532   0.24966
  Beta virt. eigenvalues --    0.27398   0.27873   0.28837   0.29337   0.30689
  Beta virt. eigenvalues --    0.31053   0.31757   0.32295   0.32404   0.33090

 Mulliken charges and spin densities:
               1          2
     1  C   -1.440405  -0.000000
     2  C    0.339716   0.000000
     3  C    0.251765   0.000000
     4  C   -0.835751   0.000000
     5  C   -0.244269  -0.000000
     6  C    2.189955   0.000000
     7  O   -0.551080   0.000000
     8  O   -0.609433   0.000000
     9  C   -0.860089  -0.000000
    10  N   -0.417224   0.000000
    11  H    0.062036   0.000000
    12  H    0.051919   0.000000
    13  H    0.062862  -0.000000
 Sum of Mulliken charges =  -2.00000  -0.00000

 Dipole moment (field-independent basis, Debye):
    X=             -4.0108    Y=             -0.3026    Z=             -1.1772  Tot=              4.1909
 Quadrupole moment (field-independent basis, Debye-Ang):
   XX=            -89.0513   YY=           -130.8111   ZZ=            -70.6959
   XY=            -11.3586   XZ=            -10.1818   YZ=             -2.5141

  Exact polarizability: 155.231  16.832 157.231  39.338   4.207  89.863
 Approx polarizability: 253.546  23.134 241.389  71.908   4.782 134.920

                      1                      2                      3
                      A                      A                      A
 Frequencies --    108.6539               149.3600               156.3363
 Red. masses --      6.1921                 9.6524                12.3735
 Frc consts  --      0.0431                 0.1269                 0.1782
 IR Inten    --      2.3675                12.4086                 1.2916

                      4                      5                      6
                      A                      A                      A
 Frequencies --    320.7969               336.4762               406.5384
 Red. masses --      7.9281                13.8198                 4.4113
 Frc consts  --      0.4807                 0.9218                 0.4296
 IR Inten    --      1.2751                 0.6606                 1.2741

                      7                      8                      9
                      A                      A                      A
 Frequencies --    433.8477               461.8167               511.2743
 Red. masses --      7.4012                11.3836                 2.3733
 Frc consts  --      0.8208                 1.4304                 0.3655
 IR Inten    --      1.1650                 6.4304                19.9308

                     10                     11                     12
                      A                      A                      A
 Frequencies --    522.2631               614.1236               633.3889
 Red. masses --     10.9668                 4.4118                 5.5685
 Frc consts  --      1.7624                 0.9803                 1.3162
 IR Inten    --      5.9910                 1.9030                 1.7789

                     13                     14                     15
                      A                      A                      A
 Frequencies --    705.9258               719.5218               789.5411
 Red. masses --      7.7184                 2.1804                 1.9513
 Frc consts  --      2.2662                 0.6651                 0.7167
 IR Inten    --     10.0078                 0.1775                11.7417

                     16                     17                     18
                      A                      A                      A
 Frequencies --    814.1018               814.2574               893.4668
 Red. masses --      6.3724                 2.4160                 1.2746
 Frc consts  --      2.4883                 0.9438                 0.5995
 IR Inten    --     75.7013                37.0749                 0.3405

                     19                     20                     21
                      A                      A                      A
 Frequencies --    925.3291              1077.8111              1134.3079
 Red. masses --      3.5533                 2.3834                 1.5721
 Frc consts  --      1.7926                 1.6313                 1.1917
 IR Inten    --      1.7189                48.8319               134.9374

                     22                     23                     24
                      A                      A                      A
 Frequencies --   1194.8197              1222.1146              1302.3311
 Red. masses --      4.3019                 1.8156                 2.4984
 Frc consts  --      3.6184                 1.5977                 2.4966
 IR Inten    --     95.2503                83.2256               152.4659

                     25                     26                     27
                      A                      A                      A
 Frequencies --   1340.9155              1404.6950              1455.7646
 Red. masses --      6.5617                 5.5023                 5.2407
 Frc consts  --      6.9514                 6.3968                 6.5437
 IR Inten    --    192.8419                25.4747               231.1381

                     28                     29                     30
                      A                      A                      A
 Frequencies --   1477.0173              1609.7198              2205.5941
 Red. masses --      4.0411                 6.6579                12.6741
 Frc consts  --      5.1942                10.1645                36.3260
 IR Inten    --    838.2205                23.9952               673.2787

                     31                     32                     33
                      A                      A                      A
 Frequencies --   3061.2838              3094.1966              3114.7327
 Red. masses --      1.0832                 1.0917                 1.0873
 Frc consts  --      5.9809                 6.1582                 6.2151
 IR Inten    --     71.3769               160.3301                44.0863

 - Thermochemistry -
 -------------------
 Temperature   298.150 Kelvin.  Pressure   1.00000 Atm.
 Atom     1 has atomic number  6 and mass  12.00000

 Molecular mass:   133.01638 amu.
 Principal axes and moments of inertia in atomic units:
                           1         2         3
     Eigenvalues --   788.572801628.011412416.58421
           X            0.43278   0.79205  -0.43053
           Y            0.88587  -0.46220   0.04019
           Z            0.16716   0.39879   0.90168
 This molecule is an asymmetric top.
 Rotational symmetry number  1.
 Warning -- assumption of classical behavior for rotation
           may cause significant error
 Rotational temperatures (Kelvin)      0.10984     0.05320     0.03584
 Rotational constants (GHZ):           2.28862     1.10856     0.74681
 Zero-point vibrational energy     209420.2 (Joules/Mol)
                                   50.05263 (Kcal/Mol)
 Warning -- explicit consideration of  11 degrees of freedom as
           vibrations may cause significant error
 Vibrational temperatures:    156.33   214.90   224.93   461.56   484.11
          (Kelvin)            584.92   624.21   664.45   735.61   751.42
                              883.59   911.31  1015.67  1035.23  1135.97
                             1171.31  1171.53  1285.50  1331.34  1550.73
                             1632.02  1719.08  1758.35  1873.76  1929.28
                             2021.04  2094.52  2125.10  2316.03  3173.36
                             4404.50  4451.86  4481.41

 Zero-point correction=                           0.079764 (Hartree/Particle)
 Thermal correction to Energy=                    0.087591
 Thermal correction to Enthalpy=                  0.088535
 Thermal correction to Gibbs Free Energy=         0.046933
 Sum of electronic and zero-point Energies=           -473.760154
 Sum of electronic and thermal Energies=              -473.752327
 Sum of electronic and thermal Enthalpies=            -473.751383
 Sum of electronic and thermal Free Energies=         -473.792984

                     E (Thermal)             CV                S
                      KCal/Mol        Cal/Mol-Kelvin    Cal/Mol-Kelvin
 Total                   54.964             29.581             87.557
 Electronic               0.000              0.000              0.000
 Translational            0.889              2.981             40.568
 Rotational               0.889              2.981             29.519
 Vibrational             53.186             23.619             17.470
 Vibration     1          0.606              1.942              3.293
 Vibration     2          0.618              1.903              2.680
 Vibration     3          0.620              1.896              2.594
 Vibration     4          0.706              1.634              1.306
 Vibration     5          0.717              1.603              1.229
 Vibration     6          0.771              1.456              0.939
 Vibration     7          0.795              1.396              0.846
 Vibration     8          0.820              1.335              0.761
 Vibration     9          0.866              1.225              0.631
 Vibration    10          0.877              1.201              0.605
 Vibration    11          0.974              1.002              0.426

 Optimization completed.
    -- Stationary point found.
 Normal termination of Gaussian 16 at Sun Dec 17 21:12:45 2023.
