 Gaussian 16, Revision A.03,
 Gaussian 16:  ES64L-G16RevA.03 25-Dec-2016

 --------------------------------------
 #P UB3LYP/6-311++G(d,p) nosym opt freq
 --------------------------------------

 -------
 Radical
 -------
 Symbolic Z-matrix:
 Charge = -1 Multiplicity = 2

 SCF Done:  E(UB3LYP) =  -649.894781742     A.U. after   22 cycles
 SCF Done:  E(UB3LYP) =  -649.894782011     A.U. after   11 cycles
 Optimization completed.
    -- Stationary point found.
 Normal termination of Gaussian 16 at Mon Jan  8 21:28:05 2024.

 ----------------------------------------------------------------------
 #P Geom=AllCheck Guess=TCheck SCRF=Check GenChk UB3LYP/6-311++G(d,p) F
 req
 ----------------------------------------------------------------------

 Structure from the checkpoint file:  "308-rad.chk"
 -------
 Radical
 -------
 Charge = -1 Multiplicity = 2

                          Input orientation:
 ---------------------------------------------------------------------
 Center     Atomic      Atomic             Coordinates (Angstroms)
 Number     Number       Type             X           Y           Z
 ---------------------------------------------------------------------
      1          6           0       -4.069548    3.596149    1.537488
      2          6           0       -4.555429    3.820470    0.266751
      3          6           0       -3.960574    3.171790   -0.826721
      4          6           0       -2.887674    2.305983   -0.644776
      5          6           0       -2.358883    2.049677    0.651029
      6          6           0       -2.983784    2.723774    1.748252
      7          6           0       -2.516654    2.531225    3.133823
      8          6           0       -1.410560    1.635742    3.301805
      9          6           0       -0.793512    0.976772    2.264012
     10          6           0       -1.220794    1.136988    0.882641
     11          8           0       -3.064704    3.123254    4.105247
     12          8           0       -0.629342    0.515986   -0.036402
     13          1           0       -4.497284    4.074706    2.409936
     14          1           0       -4.335965    3.341303   -1.834607
     15          8           0       -2.335531    1.691993   -1.742657
     16          6           0        0.366367    0.047466    2.505240
     17          1           0       -5.392394    4.492694    0.102555
     18          1           0       -1.065403    1.493013    4.323405
     19          1           0       -2.830000    1.993731   -2.512316
     20          1           0        0.609864   -0.005361    3.570285
     21          1           0        1.253630    0.375188    1.952655
     22          1           0        0.144115   -0.961071    2.139978
 ---------------------------------------------------------------------

 SCF Done:  E(UB3LYP) =  -649.894782011     A.U. after    1 cycles

 Alpha  occ. eigenvalues --  -19.03151 -18.93152 -18.93095 -10.11562 -10.08365
 Alpha  occ. eigenvalues --  -10.07980 -10.05472 -10.05255 -10.04717 -10.04339
 Alpha  occ. eigenvalues --  -10.03792 -10.03732 -10.03715 -10.02381  -0.94359
 Alpha  occ. eigenvalues --   -0.85759  -0.85352  -0.72797  -0.67880  -0.63073
 Alpha  occ. eigenvalues --   -0.61753  -0.57309  -0.52926  -0.50334  -0.47025
 Alpha  occ. eigenvalues --   -0.44529  -0.39539  -0.38351  -0.35095  -0.33932
 Alpha  occ. eigenvalues --   -0.32498  -0.30475  -0.30224  -0.28594  -0.27899
 Alpha  occ. eigenvalues --   -0.26287  -0.26098  -0.25298  -0.25265  -0.24078
 Alpha  occ. eigenvalues --   -0.22614  -0.22170  -0.21793  -0.20579  -0.13574
 Alpha  occ. eigenvalues --   -0.12009  -0.10668  -0.09851  -0.09063  -0.01104
 Alpha virt. eigenvalues --    0.07629   0.09529   0.09566   0.10303   0.10797
 Alpha virt. eigenvalues --    0.11914   0.12119   0.13661   0.13683   0.14493
 Alpha virt. eigenvalues --    0.16018   0.16350   0.17450   0.17824   0.18044

  Beta  occ. eigenvalues --  -19.03148 -18.92486 -18.92430 -10.11580 -10.08262
  Beta  occ. eigenvalues --  -10.07857 -10.05419 -10.05191 -10.04662 -10.04242
  Beta  occ. eigenvalues --  -10.03750 -10.03721 -10.03608 -10.02291  -0.94350
  Beta  occ. eigenvalues --   -0.84628  -0.84191  -0.72595  -0.67392  -0.62864
  Beta  occ. eigenvalues --   -0.61574  -0.57014  -0.52284  -0.50142  -0.46743
  Beta  occ. eigenvalues --   -0.44339  -0.39300  -0.38163  -0.34920  -0.33771
  Beta  occ. eigenvalues --   -0.32363  -0.30218  -0.29662  -0.28429  -0.27621
  Beta  occ. eigenvalues --   -0.26228  -0.25791  -0.24901  -0.24000  -0.23967
  Beta  occ. eigenvalues --   -0.21956  -0.21501  -0.20436  -0.19569  -0.11555
  Beta  occ. eigenvalues --   -0.10523  -0.09897  -0.09229  -0.08447
  Beta virt. eigenvalues --    0.05437   0.07626   0.09521   0.09560   0.11019
  Beta virt. eigenvalues --    0.11910   0.11912   0.12122   0.13664   0.13830
  Beta virt. eigenvalues --    0.14487   0.16084   0.16370   0.17448   0.17823

 Mulliken charges and spin densities:
               1          2
     1  C   -0.086734   0.018185
     2  C   -0.283147   0.044326
     3  C   -0.206376   0.048137
     4  C    0.111556   0.016602
     5  C   -0.117661   0.016371
     6  C    0.847102   0.084598
     7  C   -1.096469   0.047825
     8  C   -0.273664   0.073846
     9  C    0.816896   0.110116
    10  C   -0.542161   0.049094
    11  O   -0.399884   0.242617
    12  O   -0.359852   0.252649
    13  H    0.148224  -0.002485
    14  H    0.064978  -0.004778
    15  O   -0.169549  -0.000529
    16  C   -0.356332   0.001857
    17  H    0.130750  -0.003060
    18  H    0.107096  -0.007775
    19  H    0.231437  -0.000618
    20  H    0.125192  -0.000077
    21  H    0.154287   0.006558
    22  H    0.154312   0.006539
 Sum of Mulliken charges =  -1.00000   1.00000

 Dipole moment (field-independent basis, Debye):
    X=              9.3264    Y=             -9.0852    Z=             -9.5374  Tot=             16.1395
 Quadrupole moment (field-independent basis, Debye-Ang):
   XX=           -112.5607   YY=           -112.8746   ZZ=           -120.8863
   XY=             25.4753   XZ=             32.0014   YZ=            -31.3001

  Exact polarizability: 164.970 -65.709 137.886  17.121   2.348 200.385
 Approx polarizability: 256.466-106.244 221.167  -0.526  30.010 338.255

                      1                      2                      3
                      A                      A                      A
 Frequencies --     65.1715                73.8686               126.8504
 Red. masses --      5.8791                 5.4751                 1.0842
 Frc consts  --      0.0147                 0.0176                 0.0103
 IR Inten    --      8.1609                 4.2519                 0.2388

                      4                      5                      6
                      A                      A                      A
 Frequencies --    167.4984               206.2743               235.0315
 Red. masses --      5.0233                 3.7676                 4.6140
 Frc consts  --      0.0830                 0.0945                 0.1502
 IR Inten    --      0.1880                 0.3056                 7.8616

                      7                      8                      9
                      A                      A                      A
 Frequencies --    250.7695               308.8480               314.1866
 Red. masses --      2.4808                 4.0225                 1.4906
 Frc consts  --      0.0919                 0.2261                 0.0867
 IR Inten    --     18.8814                 0.1550                53.5723

                     10                     11                     12
                      A                      A                      A
 Frequencies --    362.2019               368.3697               382.5206
 Red. masses --      9.1495                 4.2596                10.3371
 Frc consts  --      0.7072                 0.3406                 0.8912
 IR Inten    --      3.5838                 5.3439                 4.2841

                     13                     14                     15
                      A                      A                      A
 Frequencies --    412.2089               477.0099               482.9506
 Red. masses --      6.0017                 4.2197                 6.9085
 Frc consts  --      0.6008                 0.5657                 0.9494
 IR Inten    --      4.1407                 0.1801                 1.8843

                     16                     17                     18
                      A                      A                      A
 Frequencies --    526.9651               540.6427               576.6913
 Red. masses --      7.6408                 4.3689                 5.6794
 Frc consts  --      1.2501                 0.7524                 1.1129
 IR Inten    --      7.4324                 1.4477                 3.4290

                     19                     20                     21
                      A                      A                      A
 Frequencies --    662.2897               665.8509               699.5768
 Red. masses --      3.3940                 4.3121                 3.2671
 Frc consts  --      0.8771                 1.1264                 0.9421
 IR Inten    --     15.4831                 1.1437                 7.1995

                     22                     23                     24
                      A                      A                      A
 Frequencies --    708.3148               744.6120               790.0159
 Red. masses --      6.5527                 1.6333                 6.0816
 Frc consts  --      1.9370                 0.5336                 2.2363
 IR Inten    --     27.2835                43.7216                 7.3198

                     25                     26                     27
                      A                      A                      A
 Frequencies --    797.6778               835.8874               873.1018
 Red. masses --      4.8248                 1.4054                 1.5102
 Frc consts  --      1.8088                 0.5786                 0.6783
 IR Inten    --      1.5091                 4.7208                19.4393

                     28                     29                     30
                      A                      A                      A
 Frequencies --    904.2820               957.5402               989.6033
 Red. masses --      5.6242                 1.2627                 5.4057
 Frc consts  --      2.7097                 0.6821                 3.1191
 IR Inten    --     27.0859                 1.2189                56.3371

                     31                     32                     33
                      A                      A                      A
 Frequencies --   1022.4175              1046.7731              1086.9264
 Red. masses --      1.5414                 1.4869                 2.1430
 Frc consts  --      0.9494                 0.9599                 1.4917
 IR Inten    --     27.9600                 0.9068                36.2809

                     34                     35                     36
                      A                      A                      A
 Frequencies --   1152.6691              1158.6005              1172.7908
 Red. masses --      1.8774                 2.1286                 1.9108
 Frc consts  --      1.4697                 1.6835                 1.5485
 IR Inten    --     31.8434                14.9414                77.3197

                     37                     38                     39
                      A                      A                      A
 Frequencies --   1207.8905              1226.7374              1273.7895
 Red. masses --      2.5131                 1.8630                 3.1502
 Frc consts  --      2.1603                 1.6518                 3.0115
 IR Inten    --     20.4397                 1.1922                63.8974

                     40                     41                     42
                      A                      A                      A
 Frequencies --   1296.8879              1350.3033              1392.9204
 Red. masses --      1.9999                 5.5368                 1.4069
 Frc consts  --      1.9818                 5.9480                 1.6083
 IR Inten    --     20.3820                 5.0631                21.8183

                     43                     44                     45
                      A                      A                      A
 Frequencies --   1406.5802              1453.7366              1462.8685
 Red. masses --      2.9904                 3.4071                 1.0469
 Frc consts  --      3.4859                 4.2424                 1.3199
 IR Inten    --     21.8266                49.3619                 4.2764

                     46                     47                     48
                      A                      A                      A
 Frequencies --   1469.3305              1478.6360              1518.6468
 Red. masses --      2.7533                 1.2278                 5.5871
 Frc consts  --      3.5022                 1.5816                 7.5919
 IR Inten    --    145.9796                 5.8548                38.0579

                     49                     50                     51
                      A                      A                      A
 Frequencies --   1537.7987              1563.1794              1622.8399
 Red. masses --      5.4365                 4.8318                 6.0542
 Frc consts  --      7.5748                 6.9563                 9.3941
 IR Inten    --    468.7349               181.2185                11.9086

                     52                     53                     54
                      A                      A                      A
 Frequencies --   1627.7932              3006.2489              3047.9460
 Red. masses --      7.1500                 1.0342                 1.0987
 Frc consts  --     11.1624                 5.5070                 6.0136
 IR Inten    --      1.1932               100.9932                34.4136

                     55                     56                     57
                      A                      A                      A
 Frequencies --   3077.2935              3109.5583              3130.1378
 Red. masses --      1.1024                 1.0867                 1.0886
 Frc consts  --      6.1509                 6.1909                 6.2844
 IR Inten    --     25.8656                42.8828                43.9227

                     58                     59                     60
                      A                      A                      A
 Frequencies --   3147.4854              3190.3265              3806.8983
 Red. masses --      1.0905                 1.0919                 1.0653
 Frc consts  --      6.3652                 6.5481                 9.0967
 IR Inten    --     41.2359                14.2774                12.3153

 - Thermochemistry -
 -------------------
 Temperature   298.150 Kelvin.  Pressure   1.00000 Atm.
 Atom     1 has atomic number  6 and mass  12.00000

 Molecular mass:   188.04734 amu.
 Principal axes and moments of inertia in atomic units:
                           1         2         3
     Eigenvalues --  1887.382652452.537014328.93652
           X            0.64045  -0.43156   0.63529
           Y           -0.44357   0.46742   0.76470
           Z            0.62695   0.77154  -0.10793
 This molecule is an asymmetric top.
 Rotational symmetry number  1.
 Warning -- assumption of classical behavior for rotation
           may cause significant error
 Rotational temperatures (Kelvin)      0.04589     0.03532     0.02001
 Rotational constants (GHZ):           0.95621     0.73587     0.41690
 Zero-point vibrational energy     421999.6 (Joules/Mol)
                                  100.86032 (Kcal/Mol)
 Warning -- explicit consideration of  18 degrees of freedom as
           vibrations may cause significant error
 Vibrational temperatures:     93.77   106.28   182.51   240.99   296.78
          (Kelvin)            338.16   360.80   444.36   452.04   521.13
                              530.00   550.36   593.08   686.31   694.86
                              758.19   777.86   829.73   952.89   958.01
                             1006.53  1019.11  1071.33  1136.66  1147.68
                             1202.66  1256.20  1301.06  1377.69  1423.82
                             1471.03  1506.07  1563.84  1658.43  1666.97
                             1687.38  1737.88  1765.00  1832.70  1865.93
                             1942.79  2004.10  2023.76  2091.60  2104.74
                             2114.04  2127.43  2184.99  2212.55  2249.07
                             2334.90  2342.03  4325.32  4385.31  4427.54
                             4473.96  4503.57  4528.53  4590.17  5477.28

 Zero-point correction=                           0.160731 (Hartree/Particle)
 Thermal correction to Energy=                    0.172441
 Thermal correction to Enthalpy=                  0.173385
 Thermal correction to Gibbs Free Energy=         0.122522
 Sum of electronic and zero-point Energies=           -649.734051
 Sum of electronic and thermal Energies=              -649.722341
 Sum of electronic and thermal Enthalpies=            -649.721397
 Sum of electronic and thermal Free Energies=         -649.772260

                     E (Thermal)             CV                S
                      KCal/Mol        Cal/Mol-Kelvin    Cal/Mol-Kelvin
 Total                  108.208             45.735            107.051
 Electronic               0.000              0.000              1.377
 Translational            0.889              2.981             41.600
 Rotational               0.889              2.981             31.372
 Vibrational            106.431             39.774             32.701
 Vibration     1          0.597              1.971              4.294
 Vibration     2          0.599              1.966              4.048
 Vibration     3          0.611              1.926              2.993
 Vibration     4          0.624              1.882              2.463
 Vibration     5          0.641              1.831              2.076
 Vibration     6          0.655              1.787              1.840
 Vibration     7          0.663              1.761              1.725
 Vibration     8          0.698              1.657              1.368
 Vibration     9          0.702              1.647              1.340
 Vibration    10          0.736              1.550              1.113
 Vibration    11          0.741              1.537              1.087
 Vibration    12          0.752              1.507              1.029
 Vibration    13          0.776              1.444              0.919
 Vibration    14          0.834              1.301              0.718
 Vibration    15          0.839              1.288              0.702
 Vibration    16          0.882              1.190              0.594
 Vibration    17          0.896              1.160              0.564
 Vibration    18          0.933              1.082              0.492

 Optimization completed.
    -- Stationary point found.
 Normal termination of Gaussian 16 at Mon Jan  8 21:53:40 2024.
