 Gaussian 16, Revision A.03,
 Gaussian 16:  ES64L-G16RevA.03 25-Dec-2016

 ----------------------------------------------------------------
 #P UB3LYP/6-311++G(d,p) SCRF=(PCM,Solvent=n,n-DiMethylFormamide)
 ----------------------------------------------------------------

 ------------------
 Radical PCM in DMF
 ------------------
 Symbolic Z-matrix:
 Charge = -1 Multiplicity = 2

                         Standard orientation:
 ---------------------------------------------------------------------
 Center     Atomic      Atomic             Coordinates (Angstroms)
 Number     Number       Type             X           Y           Z
 ---------------------------------------------------------------------
      1          6           0        1.693865    1.687528    0.000163
      2          6           0        2.872950    0.972734    0.000184
      3          6           0        2.832285   -0.430358    0.000066
      4          6           0        1.618230   -1.108525   -0.000054
      5          6           0        0.381229   -0.405495    0.000021
      6          6           0        0.451172    1.024160    0.000082
      7          6           0       -0.769199    1.852284    0.000050
      8          6           0       -2.010497    1.136232   -0.000168
      9          6           0       -2.103633   -0.236113   -0.000066
     10          6           0       -0.926913   -1.091540    0.000102
     11          8           0       -0.712908    3.113772   -0.000245
     12          8           0       -1.056298   -2.341883    0.000161
     13          1           0        1.677449    2.770520    0.000213
     14          1           0        3.757024   -1.005115   -0.000003
     15          8           0        1.624313   -2.482261   -0.000303
     16          6           0       -3.439506   -0.930781    0.000114
     17          1           0        3.831797    1.482605    0.000242
     18          1           0       -2.911128    1.746179   -0.000305
     19          1           0        2.546787   -2.759680   -0.000621
     20          1           0       -4.257562   -0.204705   -0.000547
     21          1           0       -3.542750   -1.583159    0.874031
     22          1           0       -3.542384   -1.584428   -0.872881
 ---------------------------------------------------------------------

 SCF Done:  E(UB3LYP) =  -649.980962188     A.U. after   20 cycles

 The electronic state is 2-A.
 Alpha  occ. eigenvalues --  -19.15138 -19.07102 -19.06999 -10.23883 -10.21972
 Alpha  occ. eigenvalues --  -10.21661 -10.17626 -10.17425 -10.17300 -10.17073
 Alpha  occ. eigenvalues --  -10.16883 -10.16186 -10.15546 -10.15432  -1.06347
 Alpha  occ. eigenvalues --   -0.99695  -0.99367  -0.85395  -0.80781  -0.75505
 Alpha  occ. eigenvalues --   -0.74273  -0.69897  -0.65726  -0.62729  -0.59490
 Alpha  occ. eigenvalues --   -0.57002  -0.52141  -0.50823  -0.47554  -0.46759
 Alpha  occ. eigenvalues --   -0.44887  -0.43391  -0.43066  -0.41090  -0.40790
 Alpha  occ. eigenvalues --   -0.39266  -0.38845  -0.38601  -0.37607  -0.36566
 Alpha  occ. eigenvalues --   -0.36196  -0.35095  -0.34635  -0.33189  -0.27018
 Alpha  occ. eigenvalues --   -0.24742  -0.23917  -0.23298  -0.22944  -0.14669
 Alpha virt. eigenvalues --   -0.02362  -0.01590  -0.00371   0.00517   0.01118
 Alpha virt. eigenvalues --    0.02436   0.02833   0.03731   0.04349   0.05332
 Alpha virt. eigenvalues --    0.05446   0.05513   0.05637   0.07139   0.07337

  Beta  occ. eigenvalues --  -19.15128 -19.06502 -19.06378 -10.23884 -10.21825
  Beta  occ. eigenvalues --  -10.21492 -10.17596 -10.17384 -10.17232 -10.17013
  Beta  occ. eigenvalues --  -10.16688 -10.16170 -10.15559 -10.15350  -1.06321
  Beta  occ. eigenvalues --   -0.98623  -0.98293  -0.85185  -0.80290  -0.75311
  Beta  occ. eigenvalues --   -0.74064  -0.69544  -0.65088  -0.62529  -0.59224
  Beta  occ. eigenvalues --   -0.56789  -0.51878  -0.50619  -0.47343  -0.46589
  Beta  occ. eigenvalues --   -0.44766  -0.43143  -0.42285  -0.40594  -0.40549
  Beta  occ. eigenvalues --   -0.38966  -0.38777  -0.37485  -0.37161  -0.36420
  Beta  occ. eigenvalues --   -0.34907  -0.34446  -0.34029  -0.32428  -0.24591
  Beta  occ. eigenvalues --   -0.23926  -0.23357  -0.22586  -0.22381
  Beta virt. eigenvalues --   -0.08188  -0.01464  -0.00422  -0.00355   0.00526
  Beta virt. eigenvalues --    0.01129   0.02448   0.02848   0.03833   0.04370
  Beta virt. eigenvalues --    0.05347   0.05528   0.05690   0.06937   0.07327

 Mulliken charges and spin densities:
               1          2
     1  C   -0.063592   0.035299
     2  C   -0.366626   0.034712
     3  C   -0.209019   0.042652
     4  C    0.121506   0.026332
     5  C   -0.174000  -0.005301
     6  C    0.754510   0.060660
     7  C   -0.872146   0.085527
     8  C   -0.341441   0.058268
     9  C    0.631835   0.124389
    10  C   -0.372420   0.088608
    11  O   -0.500461   0.216138
    12  O   -0.462926   0.233600
    13  H    0.154558  -0.003081
    14  H    0.152959  -0.004131
    15  O   -0.236449   0.001164
    16  C   -0.326429   0.001421
    17  H    0.191809  -0.002283
    18  H    0.144599  -0.007083
    19  H    0.290211  -0.000470
    20  H    0.153627  -0.000021
    21  H    0.164973   0.006809
    22  H    0.164923   0.006792
 Sum of Mulliken charges =  -1.00000   1.00000

 Dipole moment (field-independent basis, Debye):
    X=              5.3518    Y=             -2.4492    Z=             -0.0001  Tot=              5.8856
 Quadrupole moment (field-independent basis, Debye-Ang):
   XX=            -75.4600   YY=           -124.7401   ZZ=            -87.0919
   XY=             -4.7020   XZ=             -0.0027   YZ=              0.0052

 Normal termination of Gaussian 16 at Thu Jan 25 05:46:38 2024.
