 Gaussian 16, Revision A.03,
 Gaussian 16:  ES64L-G16RevA.03 25-Dec-2016

 ----------------------------------------------------------------------
 #P UB3LYP/6-311++G(d,p) nosym opt freq SCRF=(PCM,Solvent=n,n-DiMethylF
 ormamide)
 ----------------------------------------------------------------------

 --------
 Oxidized
 --------
 Symbolic Z-matrix:
 Charge =  0 Multiplicity = 1

 SCF Done:  E(UB3LYP) =  -764.367259288     A.U. after   15 cycles
 SCF Done:  E(UB3LYP) =  -764.367569929     A.U. after   12 cycles
 SCF Done:  E(UB3LYP) =  -764.367666937     A.U. after   12 cycles
 SCF Done:  E(UB3LYP) =  -764.367669022     A.U. after   11 cycles
 SCF Done:  E(UB3LYP) =  -764.367679075     A.U. after   10 cycles
 SCF Done:  E(UB3LYP) =  -764.367682203     A.U. after   10 cycles
 SCF Done:  E(UB3LYP) =  -764.367682580     A.U. after    9 cycles
 SCF Done:  E(UB3LYP) =  -764.367682845     A.U. after    9 cycles
 SCF Done:  E(UB3LYP) =  -764.367683394     A.U. after   11 cycles
 SCF Done:  E(UB3LYP) =  -764.367684182     A.U. after   12 cycles
 SCF Done:  E(UB3LYP) =  -764.367684712     A.U. after   12 cycles
 SCF Done:  E(UB3LYP) =  -764.367685652     A.U. after   12 cycles
 SCF Done:  E(UB3LYP) =  -764.367686549     A.U. after   11 cycles
 SCF Done:  E(UB3LYP) =  -764.367687280     A.U. after   11 cycles
 SCF Done:  E(UB3LYP) =  -764.367687467     A.U. after   10 cycles
 SCF Done:  E(UB3LYP) =  -764.367687596     A.U. after    9 cycles
 SCF Done:  E(UB3LYP) =  -764.367687663     A.U. after    9 cycles
 Optimization completed.
    -- Stationary point found.
 Normal termination of Gaussian 16 at Sun Feb 11 01:18:30 2024.

 ----------------------------------------------------------------------
 #P Geom=AllCheck Guess=TCheck SCRF=Check GenChk UB3LYP/6-311++G(d,p) F
 req
 ----------------------------------------------------------------------

 Structure from the checkpoint file:  "261.chk"
 --------
 Oxidized
 --------
 Charge =  0 Multiplicity = 1

                          Input orientation:
 ---------------------------------------------------------------------
 Center     Atomic      Atomic             Coordinates (Angstroms)
 Number     Number       Type             X           Y           Z
 ---------------------------------------------------------------------
      1          6           0        2.893785    2.535345   -0.373082
      2          8           0        2.545007    1.154011   -0.219010
      3          6           0        1.243800    0.803641   -0.142060
      4          6           0        0.217776    1.759849   -0.176741
      5          6           0       -1.108235    1.387851   -0.103483
      6          6           0       -1.479474    0.039746    0.010643
      7          8           0       -2.773463   -0.338472    0.076057
      8          6           0       -3.802331    0.655236   -0.009226
      9          6           0       -0.470153   -0.951005    0.049642
     10          6           0       -0.828110   -2.393042    0.165373
     11          8           0       -1.969459   -2.806722    0.348941
     12          6           0        0.261179   -3.385119    0.056276
     13          6           0        1.544081   -3.025752   -0.023405
     14          6           0        1.967420   -1.610318   -0.010128
     15          8           0        3.170902   -1.368493    0.016533
     16          6           0        0.904890   -0.565641   -0.030560
     17          1           0        3.979902    2.550638   -0.429442
     18          1           0        2.565406    3.124982    0.486692
     19          1           0        2.474465    2.949402   -1.293716
     20          1           0        0.453615    2.810574   -0.261691
     21          1           0       -1.862186    2.160880   -0.133940
     22          1           0       -4.737621    0.102824    0.046812
     23          1           0       -3.744268    1.358260    0.825634
     24          1           0       -3.753598    1.195475   -0.958256
     25          1           0       -0.050552   -4.423467    0.076888
     26          1           0        2.348223   -3.751487   -0.072873
 ---------------------------------------------------------------------

 SCF Done:  E(UB3LYP) =  -764.367687663     A.U. after    1 cycles

 Alpha  occ. eigenvalues --  -19.17109 -19.17102 -19.12573 -19.12569 -10.27982
 Alpha  occ. eigenvalues --  -10.27980 -10.26430 -10.26426 -10.22931 -10.22928
 Alpha  occ. eigenvalues --  -10.21333 -10.21290 -10.20534 -10.20449 -10.20186
 Alpha  occ. eigenvalues --  -10.20125  -1.09021  -1.08907  -1.05664  -1.05489
 Alpha  occ. eigenvalues --   -0.88680  -0.83867  -0.78732  -0.78460  -0.73278
 Alpha  occ. eigenvalues --   -0.70535  -0.69585  -0.64990  -0.64096  -0.58410
 Alpha  occ. eigenvalues --   -0.55049  -0.54828  -0.52522  -0.52390  -0.49822
 Alpha  occ. eigenvalues --   -0.48795  -0.48375  -0.48083  -0.46115  -0.44991
 Alpha  occ. eigenvalues --   -0.44494  -0.44062  -0.42844  -0.42829  -0.41303
 Alpha  occ. eigenvalues --   -0.41271  -0.39722  -0.39532  -0.36661  -0.35848
 Alpha  occ. eigenvalues --   -0.35139  -0.31814  -0.30285  -0.28568  -0.27380
 Alpha  occ. eigenvalues --   -0.26520  -0.23156
 Alpha virt. eigenvalues --   -0.12301  -0.04012  -0.03774  -0.00765   0.00335
 Alpha virt. eigenvalues --    0.00406   0.01795   0.02256   0.02456   0.02817
 Alpha virt. eigenvalues --    0.03210   0.03970   0.04277   0.04668   0.05179

  Beta  occ. eigenvalues --  -19.17109 -19.17102 -19.12573 -19.12569 -10.27982
  Beta  occ. eigenvalues --  -10.27980 -10.26430 -10.26426 -10.22931 -10.22928
  Beta  occ. eigenvalues --  -10.21333 -10.21290 -10.20534 -10.20449 -10.20186
  Beta  occ. eigenvalues --  -10.20125  -1.09021  -1.08907  -1.05664  -1.05489
  Beta  occ. eigenvalues --   -0.88680  -0.83867  -0.78732  -0.78460  -0.73278
  Beta  occ. eigenvalues --   -0.70535  -0.69585  -0.64990  -0.64096  -0.58410
  Beta  occ. eigenvalues --   -0.55049  -0.54828  -0.52522  -0.52390  -0.49822
  Beta  occ. eigenvalues --   -0.48795  -0.48375  -0.48083  -0.46115  -0.44991
  Beta  occ. eigenvalues --   -0.44494  -0.44062  -0.42844  -0.42829  -0.41303
  Beta  occ. eigenvalues --   -0.41271  -0.39722  -0.39532  -0.36661  -0.35848
  Beta  occ. eigenvalues --   -0.35139  -0.31814  -0.30285  -0.28568  -0.27380
  Beta  occ. eigenvalues --   -0.26520  -0.23156
  Beta virt. eigenvalues --   -0.12301  -0.04012  -0.03774  -0.00765   0.00335
  Beta virt. eigenvalues --    0.00406   0.01795   0.02256   0.02456   0.02817
  Beta virt. eigenvalues --    0.03210   0.03970   0.04277   0.04668   0.05179

 Mulliken charges and spin densities:
               1          2
     1  C   -0.307967  -0.000000
     2  O   -0.146034  -0.000000
     3  C   -0.045593  -0.000000
     4  C   -0.025590   0.000000
     5  C   -0.023171   0.000000
     6  C   -0.077177  -0.000000
     7  O   -0.145387   0.000000
     8  C   -0.309536  -0.000000
     9  C   -0.011994   0.000000
    10  C    0.000313  -0.000000
    11  O   -0.326875  -0.000000
    12  C   -0.127510   0.000000
    13  C   -0.113715  -0.000000
    14  C   -0.008587   0.000000
    15  O   -0.327159   0.000000
    16  C   -0.004567   0.000000
    17  H    0.206675  -0.000000
    18  H    0.169208  -0.000000
    19  H    0.167672  -0.000000
    20  H    0.228851   0.000000
    21  H    0.228736   0.000000
    22  H    0.206600  -0.000000
    23  H    0.169453  -0.000000
    24  H    0.167737   0.000000
    25  H    0.228006   0.000000
    26  H    0.227612  -0.000000
 Sum of Mulliken charges =  -0.00000  -0.00000

 Dipole moment (field-independent basis, Debye):
    X=             -2.0429    Y=              7.0184    Z=             -1.1435  Tot=              7.3986
 Quadrupole moment (field-independent basis, Debye-Ang):
   XX=           -100.0009   YY=            -78.4558   ZZ=            -93.2066
   XY=             -6.4571   XZ=              0.6729   YZ=              0.3502

  Exact polarizability: 295.858   3.473 282.402  -7.746 -11.433 114.309
 Approx polarizability: 362.523  12.983 317.301 -10.277 -13.848 132.863

                      1                      2                      3
                      A                      A                      A
 Frequencies --     27.6625                41.7818                74.3746
 Red. masses --      5.9020                 6.3096                 3.3506
 Frc consts  --      0.0027                 0.0065                 0.0109
 IR Inten    --     25.3823                 0.9645                 0.0575

                      4                      5                      6
                      A                      A                      A
 Frequencies --    104.5155               114.3062               199.6881
 Red. masses --      3.9668                 4.0886                 3.2909
 Frc consts  --      0.0255                 0.0315                 0.0773
 IR Inten    --      0.4885                 5.0655                 1.0684

                      7                      8                      9
                      A                      A                      A
 Frequencies --    208.7190               225.6876               239.4099
 Red. masses --      5.1845                 5.9244                 1.3406
 Frc consts  --      0.1331                 0.1778                 0.0453
 IR Inten    --      6.6889                 2.5003                 0.0303

                     10                     11                     12
                      A                      A                      A
 Frequencies --    241.6181               263.2858               336.9736
 Red. masses --      2.4497                 1.1470                 4.1872
 Frc consts  --      0.0843                 0.0468                 0.2801
 IR Inten    --      0.2183                 1.2584                 7.7910

                     13                     14                     15
                      A                      A                      A
 Frequencies --    349.4868               355.8025               377.1796
 Red. masses --      6.0775                 8.0895                 4.4036
 Frc consts  --      0.4374                 0.6034                 0.3691
 IR Inten    --      2.9661                 1.3623                 0.0320

                     16                     17                     18
                      A                      A                      A
 Frequencies --    394.1777               444.0232               491.1906
 Red. masses --     10.1151                10.8323                 5.6737
 Frc consts  --      0.9260                 1.2583                 0.8065
 IR Inten    --     13.8344                48.2243                 0.1434

                     19                     20                     21
                      A                      A                      A
 Frequencies --    502.6264               520.7651               551.6824
 Red. masses --      6.5713                 5.1508                 2.8588
 Frc consts  --      0.9781                 0.8230                 0.5126
 IR Inten    --      7.9886                 1.2856                 2.1623

                     22                     23                     24
                      A                      A                      A
 Frequencies --    632.4401               655.8179               663.2600
 Red. masses --      5.9431                 2.3059                 4.4479
 Frc consts  --      1.4006                 0.5843                 1.1529
 IR Inten    --     54.7029                13.6774                 0.8874

                     25                     26                     27
                      A                      A                      A
 Frequencies --    720.7476               733.8417               762.0410
 Red. masses --      6.2093                 5.7182                 5.8508
 Frc consts  --      1.9005                 1.8143                 2.0018
 IR Inten    --      0.0572                40.6711                 0.4841

                     28                     29                     30
                      A                      A                      A
 Frequencies --    807.5002               831.3073               872.2506
 Red. masses --      9.9211                 1.6317                 2.2787
 Frc consts  --      3.8115                 0.6644                 1.0214
 IR Inten    --      0.2787                56.5686                78.9725

                     31                     32                     33
                      A                      A                      A
 Frequencies --    873.4402               911.6568               957.3451
 Red. masses --      7.0247                 7.0273                 1.3314
 Frc consts  --      3.1575                 3.4411                 0.7190
 IR Inten    --     13.8794                30.8851                 0.0276

                     34                     35                     36
                      A                      A                      A
 Frequencies --   1017.4280              1031.7490              1059.2251
 Red. masses --      1.2639                 6.5305                 8.0718
 Frc consts  --      0.7709                 4.0958                 5.3358
 IR Inten    --      0.2503               240.8292               129.3353

                     37                     38                     39
                      A                      A                      A
 Frequencies --   1114.0347              1123.2280              1162.9887
 Red. masses --      3.9622                 1.7074                 1.2700
 Frc consts  --      2.8972                 1.2692                 1.0120
 IR Inten    --    196.2310               172.0533                 0.3026

                     40                     41                     42
                      A                      A                      A
 Frequencies --   1163.3024              1187.4384              1203.9521
 Red. masses --      1.2704                 1.4381                 1.3549
 Frc consts  --      1.0129                 1.1947                 1.1572
 IR Inten    --      2.2010                 1.7277                 5.2112

                     43                     44                     45
                      A                      A                      A
 Frequencies --   1205.0744              1262.3010              1268.2914
 Red. masses --      1.4353                 2.6432                 2.2929
 Frc consts  --      1.2281                 2.4814                 2.1731
 IR Inten    --    319.3720               637.2632               262.4829

                     46                     47                     48
                      A                      A                      A
 Frequencies --   1291.7407              1305.6760              1358.3920
 Red. masses --      3.4286                 4.4235                 7.8448
 Frc consts  --      3.3707                 4.4431                 8.5287
 IR Inten    --     61.3536               409.1424                79.9710

                     49                     50                     51
                      A                      A                      A
 Frequencies --   1396.4567              1414.7843              1457.4536
 Red. masses --      1.9004                 5.9285                 1.5626
 Frc consts  --      2.1835                 6.9916                 1.9556
 IR Inten    --      0.6369                59.0553               101.4484

                     52                     53                     54
                      A                      A                      A
 Frequencies --   1477.8770              1488.6779              1489.1124
 Red. masses --      1.1973                 1.0450                 1.0482
 Frc consts  --      1.5408                 1.3645                 1.3695
 IR Inten    --      0.4962                18.1978                14.8457

                     55                     56                     57
                      A                      A                      A
 Frequencies --   1492.5423              1496.2095              1499.9439
 Red. masses --      1.3155                 1.0726                 1.3229
 Frc consts  --      1.7266                 1.4147                 1.7536
 IR Inten    --     89.9641                 9.4108                 1.9581

                     58                     59                     60
                      A                      A                      A
 Frequencies --   1583.1168              1608.7877              1665.7674
 Red. masses --      5.3581                 6.3496                 9.9886
 Frc consts  --      7.9120                 9.6826                16.3298
 IR Inten    --    379.8097               298.7460                77.6239

                     61                     62                     63
                      A                      A                      A
 Frequencies --   1676.3185              1702.4234              3024.9900
 Red. masses --     11.4558                 7.7007                 1.0328
 Frc consts  --     18.9666                13.1498                 5.5681
 IR Inten    --   1130.2825                 7.4804                71.5323

                     64                     65                     66
                      A                      A                      A
 Frequencies --   3026.1580              3094.4440              3095.5411
 Red. masses --      1.0327                 1.1075                 1.1074
 Frc consts  --      5.5719                 6.2485                 6.2523
 IR Inten    --    100.6777                37.8921                39.2038

                     67                     68                     69
                      A                      A                      A
 Frequencies --   3148.4142              3148.5162              3175.8312
 Red. masses --      1.1016                 1.1016                 1.0870
 Frc consts  --      6.4336                 6.4342                 6.4596
 IR Inten    --     39.0146                 6.5593                 4.6809

                     70                     71                     72
                      A                      A                      A
 Frequencies --   3193.4736              3218.0363              3230.8196
 Red. masses --      1.0996                 1.0875                 1.0938
 Frc consts  --      6.6073                 6.6353                 6.7272
 IR Inten    --     13.5400                 3.8545                 1.8904

 - Thermochemistry -
 -------------------
 Temperature   298.150 Kelvin.  Pressure   1.00000 Atm.
 Atom     1 has atomic number  6 and mass  12.00000

 Molecular mass:   218.05791 amu.
 Principal axes and moments of inertia in atomic units:
                           1         2         3
     Eigenvalues --  2516.164703543.329876029.87922
           X            0.96129  -0.27289   0.03822
           Y            0.26991   0.96042   0.06879
           Z           -0.05548  -0.05581   0.99690
 This molecule is an asymmetric top.
 Rotational symmetry number  1.
 Warning -- assumption of classical behavior for rotation
           may cause significant error
 Rotational temperatures (Kelvin)      0.03442     0.02444     0.01436
 Rotational constants (GHZ):           0.71726     0.50933     0.29930
 Zero-point vibrational energy     514676.1 (Joules/Mol)
                                  123.01054 (Kcal/Mol)
 Warning -- explicit consideration of  21 degrees of freedom as
           vibrations may cause significant error
 Vibrational temperatures:     39.80    60.11   107.01   150.37   164.46
          (Kelvin)            287.31   300.30   324.71   344.46   347.63
                              378.81   484.83   502.83   511.92   542.68
                              567.13   638.85   706.71   723.17   749.26
                              793.75   909.94   943.58   954.28  1037.00
                             1055.83  1096.41  1161.81  1196.07  1254.97
                             1256.69  1311.67  1377.41  1463.85  1484.46
                             1523.99  1602.85  1616.07  1673.28  1673.73
                             1708.46  1732.22  1733.83  1816.17  1824.79
                             1858.53  1878.58  1954.42  2009.19  2035.56
                             2096.95  2126.34  2141.88  2142.50  2147.44
                             2152.71  2158.08  2277.75  2314.69  2396.67
                             2411.85  2449.41  4352.29  4353.97  4452.21
                             4453.79  4529.87  4530.01  4569.31  4594.70
                             4630.04  4648.43

 Zero-point correction=                           0.196030 (Hartree/Particle)
 Thermal correction to Energy=                    0.210185
 Thermal correction to Enthalpy=                  0.211129
 Thermal correction to Gibbs Free Energy=         0.154076
 Sum of electronic and zero-point Energies=           -764.171658
 Sum of electronic and thermal Energies=              -764.157503
 Sum of electronic and thermal Enthalpies=            -764.156558
 Sum of electronic and thermal Free Energies=         -764.213612

                     E (Thermal)             CV                S
                      KCal/Mol        Cal/Mol-Kelvin    Cal/Mol-Kelvin
 Total                  131.893             53.152            120.079
 Electronic               0.000              0.000              0.000
 Translational            0.889              2.981             42.042
 Rotational               0.889              2.981             32.353
 Vibrational            130.116             47.190             45.685
 Vibration     1          0.593              1.984              5.990
 Vibration     2          0.594              1.980              5.173
 Vibration     3          0.599              1.966              4.034
 Vibration     4          0.605              1.946              3.368
 Vibration     5          0.607              1.938              3.194
 Vibration     6          0.638              1.840              2.136
 Vibration     7          0.642              1.827              2.055
 Vibration     8          0.650              1.802              1.913
 Vibration     9          0.657              1.780              1.807
 Vibration    10          0.658              1.777              1.791
 Vibration    11          0.670              1.740              1.640
 Vibration    12          0.718              1.602              1.226
 Vibration    13          0.727              1.576              1.169
 Vibration    14          0.731              1.563              1.140
 Vibration    15          0.748              1.519              1.050
 Vibration    16          0.761              1.483              0.984
 Vibration    17          0.804              1.374              0.814
 Vibration    18          0.847              1.270              0.681
 Vibration    19          0.858              1.244              0.652
 Vibration    20          0.876              1.204              0.608
 Vibration    21          0.907              1.136              0.541

 Optimization completed.
    -- Stationary point found.
 Normal termination of Gaussian 16 at Sun Feb 11 02:18:46 2024.
