 Q-Chem 5.4, Q-Chem, Inc., Pleasanton, CA (2021)
 Q-Chem 5.4.0 for Intel X86 EM64T Linux

User input:
--------------------------------------------------------------
$molecule
-1 2
C                 -3.9106470000     -4.0097940000     -1.3046340000
C                 -2.6600900000     -4.7190590000     -1.2824500000
C                 -1.4780750000     -4.0464000000     -1.5458070000
C                 -1.4624600000     -2.6181240000     -1.8616070000
C                 -2.7270730000     -1.9005260000     -1.8840640000
C                 -3.8767880000     -2.5887270000     -1.6148700000
O                 -5.0576340000     -4.5275880000     -1.0737420000
O                 -0.3753380000     -2.0189880000     -2.1096650000
C                 -0.1368200000     -4.7410770000     -1.5445270000
C                  0.3297230000     -5.1718210000     -2.9493080000
C                  1.7146100000     -5.8283630000     -2.9524080000
C                  2.1939250000     -6.2507190000     -4.3460790000
C                  3.5834450000     -6.8987140000     -4.3544650000
C                  4.0612770000     -7.3195940000     -5.7490560000
C                  5.4520470000     -7.9644630000     -5.7582750000
C                  5.9286760000     -8.3843720000     -7.1535280000
C                  7.3195120000     -9.0284740000     -7.1633990000
C                  7.7964450000     -9.4480850000     -8.5585620000
C                 -2.7161490000     -0.4310750000     -2.2040750000
C                 -2.7139180000     -6.1943100000     -0.9563080000
O                 -5.1134990000     -2.0045040000     -1.6132160000
H                 -0.1599340000     -5.6192040000     -0.8894690000
H                  0.6071690000     -4.0452980000     -1.1437050000
H                  0.3429630000     -4.2834280000     -3.5885840000
H                 -0.4044620000     -5.8636120000     -3.3820030000
H                  1.7049450000     -6.7077130000     -2.2928930000
H                  2.4415050000     -5.1296720000     -2.5176170000
H                  2.2009980000     -5.3720640000     -5.0039500000
H                  1.4673700000     -6.9493580000     -4.7821990000
H                  3.5773050000     -7.7768800000     -3.6948430000
H                  4.3098290000     -6.1992350000     -3.9199780000
H                  4.0658950000     -6.4418660000     -6.4085500000
H                  3.3356030000     -8.0199210000     -6.1833910000
H                  5.4478540000     -8.8423640000     -5.0987150000
H                  6.1776900000     -7.2639010000     -5.3244900000
H                  5.9325890000     -7.5065480000     -7.8129200000
H                  5.2031610000     -9.0850520000     -7.5873530000
H                  7.3166590000     -9.9070050000     -6.5045530000
H                  8.0459600000     -8.3282470000     -6.7300980000
C                  9.1870720000    -10.0903030000     -8.5579880000
H                  7.8002190000     -8.5706790000     -9.2169330000
H                 -2.1061850000      0.1219570000     -1.4809340000
H                 -3.7284170000     -0.0233310000     -2.1997160000
H                 -2.2612190000     -0.2491120000     -3.1840170000
H                 -3.7566030000     -6.5066210000     -0.8829550000
H                 -2.2255130000     -6.4195460000      0.0004750000
H                 -2.2192240000     -6.8048460000     -1.7199580000
H                  7.0715520000    -10.1483390000     -8.9916390000
H                  9.9403520000     -9.4011640000     -8.1625660000
H                  9.4973110000    -10.3777830000     -9.5669970000
H                  9.2062060000    -10.9907140000     -7.9353710000
H                 -5.6906990000     -2.7681340000     -1.3885990000
$end

$rem
BASIS  =  6-311++G(d,p)
GUI  =  2
JOB_TYPE  =  SP
METHOD  =  B3LYP
SCF_CONVERGENCE  = 8
SOLVENT_METHOD = sm12
$end

$smx
solvent dimethylformamide
charges CM5
$end

--------------------------------------------------------------

             Standard Nuclear Orientation (Angstroms)
    I     Atom           X                Y                Z
 ----------------------------------------------------------------
    1      C      -3.9106470000    -4.0097940000    -1.3046340000
    2      C      -2.6600900000    -4.7190590000    -1.2824500000
    3      C      -1.4780750000    -4.0464000000    -1.5458070000
    4      C      -1.4624600000    -2.6181240000    -1.8616070000
    5      C      -2.7270730000    -1.9005260000    -1.8840640000
    6      C      -3.8767880000    -2.5887270000    -1.6148700000
    7      O      -5.0576340000    -4.5275880000    -1.0737420000
    8      O      -0.3753380000    -2.0189880000    -2.1096650000
    9      C      -0.1368200000    -4.7410770000    -1.5445270000
   10      C       0.3297230000    -5.1718210000    -2.9493080000
   11      C       1.7146100000    -5.8283630000    -2.9524080000
   12      C       2.1939250000    -6.2507190000    -4.3460790000
   13      C       3.5834450000    -6.8987140000    -4.3544650000
   14      C       4.0612770000    -7.3195940000    -5.7490560000
   15      C       5.4520470000    -7.9644630000    -5.7582750000
   16      C       5.9286760000    -8.3843720000    -7.1535280000
   17      C       7.3195120000    -9.0284740000    -7.1633990000
   18      C       7.7964450000    -9.4480850000    -8.5585620000
   19      C      -2.7161490000    -0.4310750000    -2.2040750000
   20      C      -2.7139180000    -6.1943100000    -0.9563080000
   21      O      -5.1134990000    -2.0045040000    -1.6132160000
   22      H      -0.1599340000    -5.6192040000    -0.8894690000
   23      H       0.6071690000    -4.0452980000    -1.1437050000
   24      H       0.3429630000    -4.2834280000    -3.5885840000
   25      H      -0.4044620000    -5.8636120000    -3.3820030000
   26      H       1.7049450000    -6.7077130000    -2.2928930000
   27      H       2.4415050000    -5.1296720000    -2.5176170000
   28      H       2.2009980000    -5.3720640000    -5.0039500000
   29      H       1.4673700000    -6.9493580000    -4.7821990000
   30      H       3.5773050000    -7.7768800000    -3.6948430000
   31      H       4.3098290000    -6.1992350000    -3.9199780000
   32      H       4.0658950000    -6.4418660000    -6.4085500000
   33      H       3.3356030000    -8.0199210000    -6.1833910000
   34      H       5.4478540000    -8.8423640000    -5.0987150000
   35      H       6.1776900000    -7.2639010000    -5.3244900000
   36      H       5.9325890000    -7.5065480000    -7.8129200000
   37      H       5.2031610000    -9.0850520000    -7.5873530000
   38      H       7.3166590000    -9.9070050000    -6.5045530000
   39      H       8.0459600000    -8.3282470000    -6.7300980000
   40      C       9.1870720000   -10.0903030000    -8.5579880000
   41      H       7.8002190000    -8.5706790000    -9.2169330000
   42      H      -2.1061850000     0.1219570000    -1.4809340000
   43      H      -3.7284170000    -0.0233310000    -2.1997160000
   44      H      -2.2612190000    -0.2491120000    -3.1840170000
   45      H      -3.7566030000    -6.5066210000    -0.8829550000
   46      H      -2.2255130000    -6.4195460000     0.0004750000
   47      H      -2.2192240000    -6.8048460000    -1.7199580000
   48      H       7.0715520000   -10.1483390000    -8.9916390000
   49      H       9.9403520000    -9.4011640000    -8.1625660000
   50      H       9.4973110000   -10.3777830000    -9.5669970000
   51      H       9.2062060000   -10.9907140000    -7.9353710000
   52      H      -5.6906990000    -2.7681340000    -1.3885990000
 ----------------------------------------------------------------

   17    -968.1270585483      9.39e-09  Convergence criterion met
 Total energy in the final basis set =     -968.2154589839

                    Orbital Energies (a.u.)
 --------------------------------------------------------------

 Alpha MOs
 -- Occupied --
-19.1389 -19.0812 -19.0676 -10.2166 -10.2149 -10.2132 -10.1685 -10.1647
-10.1643 -10.1629 -10.1629 -10.1629 -10.1628 -10.1628 -10.1625 -10.1624
-10.1622 -10.1621 -10.1620 -10.1617 -10.1602 -10.1573  -1.0579  -0.9900
 -0.9890  -0.8302  -0.8154  -0.8031  -0.7876  -0.7732  -0.7506  -0.7224
 -0.7120  -0.6898  -0.6604  -0.6418  -0.6283  -0.5972  -0.5806  -0.5757
 -0.5745  -0.5676  -0.5527  -0.5209  -0.4889  -0.4851  -0.4746  -0.4555
 -0.4459  -0.4401  -0.4336  -0.4313  -0.4262  -0.4179  -0.4150  -0.4124
 -0.4084  -0.4041  -0.3962  -0.3945  -0.3933  -0.3841  -0.3820  -0.3774
 -0.3697  -0.3640  -0.3614  -0.3523  -0.3478  -0.3463  -0.3400  -0.3394
 -0.3320  -0.3295  -0.3285  -0.3246  -0.3244  -0.3225  -0.3223  -0.3004
 -0.2631  -0.2540  -0.2309  -0.2202  -0.1545

 Beta MOs
 -- Occupied --
-19.1385 -19.0744 -19.0612 -10.2157 -10.2125 -10.2121 -10.1681 -10.1647
-10.1629 -10.1629 -10.1629 -10.1628 -10.1628 -10.1624 -10.1623 -10.1622
-10.1621 -10.1620 -10.1619 -10.1617 -10.1599 -10.1573  -1.0559  -0.9789
 -0.9776  -0.8255  -0.8151  -0.8026  -0.7868  -0.7725  -0.7498  -0.7210
 -0.7101  -0.6872  -0.6586  -0.6370  -0.6264  -0.5966  -0.5805  -0.5753
 -0.5745  -0.5652  -0.5496  -0.5182  -0.4884  -0.4837  -0.4744  -0.4553
 -0.4432  -0.4342  -0.4333  -0.4297  -0.4248  -0.4158  -0.4137  -0.4108
 -0.4064  -0.4024  -0.3956  -0.3910  -0.3878  -0.3817  -0.3804  -0.3768
 -0.3691  -0.3607  -0.3541  -0.3514  -0.3440  -0.3387  -0.3355  -0.3314
 -0.3285  -0.3279  -0.3257  -0.3244  -0.3234  -0.3224  -0.3215  -0.2995
 -0.2480  -0.2350  -0.2248  -0.2136

          Ground-State Mulliken Net Atomic Charges

     Atom                 Charge (a.u.)    Spin (a.u.)
  --------------------------------------------------------
      1 C                    -1.551733       0.111185
      2 C                     0.160387       0.041021
      3 C                     0.425926       0.192888
      4 C                    -1.675462       0.056701
      5 C                     0.649424       0.014893
      6 C                    -1.418437       0.064810
      7 O                    -0.396032       0.248794
      8 O                    -0.309142       0.239141
      9 C                    -0.928417       0.007535
     10 C                    -2.778022      -0.012175
     11 C                    -1.193798       0.010423
     12 C                    -0.209307      -0.006563
     13 C                     0.848473      -0.001136
     14 C                     1.248463      -0.000204
     15 C                     1.157595       0.000339
     16 C                     0.666142       0.000020
     17 C                     0.233551       0.000022
     18 C                    -0.048021      -0.000012
     19 C                     0.037269       0.005320
     20 C                     0.367298       0.004581
     21 O                    -0.193904       0.015221
     22 H                     0.225545       0.000305
     23 H                     0.106894       0.006302
     24 H                     0.086029      -0.002265
     25 H                     0.034877       0.000091
     26 H                     0.174839       0.000122
     27 H                     0.169546      -0.000807
     28 H                     0.108032       0.000048
     29 H                     0.157026      -0.000182
     30 H                     0.114158      -0.000026
     31 H                     0.110630       0.000000
     32 H                     0.111923       0.000010
     33 H                     0.110372       0.000008
     34 H                     0.121515       0.000002
     35 H                     0.116259       0.000006
     36 H                     0.115778      -0.000001
     37 H                     0.117707      -0.000001
     38 H                     0.108998      -0.000000
     39 H                     0.106882      -0.000001
     40 C                    -0.445272       0.000002
     41 H                     0.123689       0.000000
     42 H                     0.160566       0.002391
     43 H                     0.191627      -0.000090
     44 H                     0.160146       0.001797
     45 H                     0.201292      -0.001520
     46 H                     0.202623       0.002617
     47 H                     0.227924       0.002119
     48 H                     0.124562       0.000000
     49 H                     0.141232       0.000000
     50 H                     0.188377       0.000002
     51 H                     0.141986      -0.000000
     52 H                     0.291988      -0.003733
  --------------------------------------------------------
  Sum of atomic charges =    -1.000000

                    Cartesian Multipole Moments
 -----------------------------------------------------------------
    Charge (ESU x 10^10)
                -4.8032
    Dipole Moment (Debye)
         X      13.0755      Y      14.3198      Z       7.9914
       Tot      20.9735
    Quadrupole Moments (Debye-Ang)
        XX    -209.7073     XY     -45.1016     YY    -199.1150
        XZ     -16.1213     YZ     -21.5404     ZZ    -159.7857

 Total job time:  2645.76s(wall), 19886.44s(cpu)
        *  Thank you very much for using Q-Chem.  Have a nice day.  *
