 Q-Chem 5.4, Q-Chem, Inc., Pleasanton, CA (2021)
 Q-Chem 5.4.0 for Intel X86 EM64T Linux

User input:
--------------------------------------------------------------
$molecule
-1 2
Cl                 2.6393510000      3.1908290000     -0.5199480000
C                  2.4858320000      1.4525520000     -0.2082550000
C                  3.6866010000      0.7867280000     -0.0609760000
C                  3.6977400000     -0.5960380000      0.1899350000
C                  2.5066150000     -1.2792790000      0.2874560000
C                  1.2702030000     -0.6186640000      0.1403260000
C                  0.0652420000     -1.4600940000      0.2661560000
O                  0.1833100000     -2.6845040000      0.4907220000
C                 -1.2289630000     -0.7907270000      0.1161030000
C                 -2.4857380000     -1.4525140000      0.2082480000
Cl                -2.6388810000     -3.1908500000      0.5199580000
C                 -3.6865770000     -0.7867960000      0.0609940000
C                 -3.6978000000      0.5959610000     -0.1899160000
C                 -2.5067130000      1.2792940000     -0.2874610000
C                 -1.2702500000      0.6187470000     -0.1403500000
C                 -0.0653040000      1.4601830000     -0.2661890000
O                 -0.1835380000      2.6845720000     -0.4907380000
C                  1.2289640000      0.7908420000     -0.1161330000
H                  4.6120450000      1.3433740000     -0.1413930000
H                  4.6450960000     -1.1129550000      0.3045900000
H                  2.4729780000     -2.3441410000      0.4797310000
H                 -4.6119620000     -1.3435350000      0.1414340000
H                 -4.6451690000      1.1128580000     -0.3045610000
H                 -2.4730810000      2.3441550000     -0.4797340000
$end
$rem
MAX_SCF_CYCLES=200
BASIS  =  6-311++G(d,p)
GUI  =  2
JOB_TYPE  =  SP
METHOD  =  B3LYP
SOLVENT_METHOD = PCM
$end
$pcm
theory = CPCM
$end
$solvent
dielectric 37.219
opticaldielectric 1.43
$end

--------------------------------------------------------------

             Standard Nuclear Orientation (Angstroms)
    I     Atom           X                Y                Z
 ----------------------------------------------------------------
    1      Cl      2.6393510000     3.1908290000    -0.5199480000
    2      C       2.4858320000     1.4525520000    -0.2082550000
    3      C       3.6866010000     0.7867280000    -0.0609760000
    4      C       3.6977400000    -0.5960380000     0.1899350000
    5      C       2.5066150000    -1.2792790000     0.2874560000
    6      C       1.2702030000    -0.6186640000     0.1403260000
    7      C       0.0652420000    -1.4600940000     0.2661560000
    8      O       0.1833100000    -2.6845040000     0.4907220000
    9      C      -1.2289630000    -0.7907270000     0.1161030000
   10      C      -2.4857380000    -1.4525140000     0.2082480000
   11      Cl     -2.6388810000    -3.1908500000     0.5199580000
   12      C      -3.6865770000    -0.7867960000     0.0609940000
   13      C      -3.6978000000     0.5959610000    -0.1899160000
   14      C      -2.5067130000     1.2792940000    -0.2874610000
   15      C      -1.2702500000     0.6187470000    -0.1403500000
   16      C      -0.0653040000     1.4601830000    -0.2661890000
   17      O      -0.1835380000     2.6845720000    -0.4907380000
   18      C       1.2289640000     0.7908420000    -0.1161330000
   19      H       4.6120450000     1.3433740000    -0.1413930000
   20      H       4.6450960000    -1.1129550000     0.3045900000
   21      H       2.4729780000    -2.3441410000     0.4797310000
   22      H      -4.6119620000    -1.3435350000     0.1414340000
   23      H      -4.6451690000     1.1128580000    -0.3045610000
   24      H      -2.4730810000     2.3441550000    -0.4797340000
 ----------------------------------------------------------------

    8   -1608.3253420268      8.94e-06  Convergence criterion met
 Total energy in the final basis set =    -1608.3253420268

                    Orbital Energies (a.u.)
 --------------------------------------------------------------

 Alpha MOs
 -- Occupied --
********-101.5482 -19.0798 -19.0798 -10.2398 -10.2397 -10.2358 -10.2357
-10.1924 -10.1924 -10.1838 -10.1838 -10.1822 -10.1822 -10.1793 -10.1793
-10.1734 -10.1734  -9.4631  -9.4630  -7.2274  -7.2274  -7.2183  -7.2183
 -7.2173  -7.2173  -1.0141  -1.0116  -0.8899  -0.8878  -0.8433  -0.8319
 -0.7926  -0.7516  -0.7435  -0.7368  -0.6732  -0.6450  -0.6313  -0.5840
 -0.5540  -0.5492  -0.5292  -0.4828  -0.4769  -0.4693  -0.4688  -0.4353
 -0.4346  -0.4330  -0.4259  -0.4203  -0.4147  -0.3998  -0.3865  -0.3856
 -0.3680  -0.3633  -0.3596  -0.3508  -0.3320  -0.3302  -0.3189  -0.3151
 -0.2763  -0.2594  -0.2543  -0.2523  -0.2465  -0.2350  -0.1468

 Beta MOs
 -- Occupied --
********-101.5482 -19.0745 -19.0745 -10.2396 -10.2396 -10.2340 -10.2340
-10.1918 -10.1917 -10.1829 -10.1829 -10.1818 -10.1818 -10.1787 -10.1787
-10.1734 -10.1734  -9.4630  -9.4630  -7.2274  -7.2274  -7.2182  -7.2182
 -7.2173  -7.2173  -1.0048  -1.0021  -0.8883  -0.8870  -0.8415  -0.8310
 -0.7890  -0.7497  -0.7406  -0.7356  -0.6663  -0.6430  -0.6287  -0.5831
 -0.5516  -0.5467  -0.5279  -0.4804  -0.4754  -0.4687  -0.4671  -0.4339
 -0.4326  -0.4243  -0.4242  -0.4152  -0.4119  -0.3947  -0.3842  -0.3674
 -0.3630  -0.3595  -0.3583  -0.3494  -0.3258  -0.3254  -0.3181  -0.3146
 -0.2576  -0.2538  -0.2473  -0.2459  -0.2419  -0.2304

          Ground-State Mulliken Net Atomic Charges

     Atom                 Charge (a.u.)    Spin (a.u.)
  --------------------------------------------------------
      1 Cl                    0.349626       0.000479
      2 C                     0.868348       0.033976
      3 C                    -0.127361       0.034524
      4 C                    -0.650988       0.047374
      5 C                     0.480233       0.029767
      6 C                     0.225574       0.053833
      7 C                    -1.736047       0.079643
      8 O                    -0.347741       0.203496
      9 C                    -0.173129       0.024908
     10 C                     0.868202       0.033960
     11 Cl                    0.349515       0.000478
     12 C                    -0.127158       0.034535
     13 C                    -0.650860       0.047352
     14 C                     0.480029       0.029779
     15 C                     0.225290       0.053823
     16 C                    -1.736014       0.079652
     17 O                    -0.347822       0.203498
     18 C                    -0.173248       0.024930
     19 H                     0.221198      -0.002782
     20 H                     0.206129      -0.003695
     21 H                     0.184456      -0.001527
     22 H                     0.221181      -0.002783
     23 H                     0.206132      -0.003693
     24 H                     0.184456      -0.001529
  --------------------------------------------------------
  Sum of atomic charges =    -1.000000

                    Cartesian Multipole Moments
 -----------------------------------------------------------------
    Charge (ESU x 10^10)
                -4.8032
    Dipole Moment (Debye)
         X       0.0005      Y      -0.0003      Z       0.0001
       Tot       0.0006
    Quadrupole Moments (Debye-Ang)
        XX    -111.3650     XY     -10.8877     YY    -163.9245
        XZ       2.2302     YZ       7.1540     ZZ    -124.3749

 Total job time:  170.45s(wall), 371.24s(cpu)
        *  Thank you very much for using Q-Chem.  Have a nice day.  *
