 Gaussian 16, Revision A.03,
 Gaussian 16:  ES64L-G16RevA.03 25-Dec-2016

 --------------------------------------
 #P UB3LYP/6-311++G(d,p) nosym opt freq
 --------------------------------------

 -------
 Radical
 -------
 Symbolic Z-matrix:
 Charge = -1 Multiplicity = 2

 SCF Done:  E(UB3LYP) =  -948.072117675     A.U. after   26 cycles
 SCF Done:  E(UB3LYP) =  -948.081934665     A.U. after   19 cycles
 SCF Done:  E(UB3LYP) =  -948.075239741     A.U. after   20 cycles
 SCF Done:  E(UB3LYP) =  -948.084348166     A.U. after   17 cycles
 SCF Done:  E(UB3LYP) =  -948.084410980     A.U. after   15 cycles
 SCF Done:  E(UB3LYP) =  -948.084003524     A.U. after   15 cycles
 SCF Done:  E(UB3LYP) =  -948.084444415     A.U. after   14 cycles
 SCF Done:  E(UB3LYP) =  -948.084435989     A.U. after   13 cycles
 SCF Done:  E(UB3LYP) =  -948.084446888     A.U. after   12 cycles
 SCF Done:  E(UB3LYP) =  -948.084447511     A.U. after   13 cycles
 SCF Done:  E(UB3LYP) =  -948.084507654     A.U. after   16 cycles
 SCF Done:  E(UB3LYP) =  -948.084502632     A.U. after   16 cycles
 SCF Done:  E(UB3LYP) =  -948.084520624     A.U. after   16 cycles
 SCF Done:  E(UB3LYP) =  -948.084533283     A.U. after   19 cycles
 SCF Done:  E(UB3LYP) =  -948.084545329     A.U. after   16 cycles
 SCF Done:  E(UB3LYP) =  -948.084545748     A.U. after   16 cycles
 SCF Done:  E(UB3LYP) =  -948.084546247     A.U. after   16 cycles
 SCF Done:  E(UB3LYP) =  -948.084546263     A.U. after   12 cycles
 SCF Done:  E(UB3LYP) =  -948.084546257     A.U. after   14 cycles
 Optimization completed.
    -- Stationary point found.
 Normal termination of Gaussian 16 at Mon Dec 18 00:58:43 2023.

 ----------------------------------------------------------------------
 #P Geom=AllCheck Guess=TCheck SCRF=Check GenChk UB3LYP/6-311++G(d,p) F
 req
 ----------------------------------------------------------------------

 Structure from the checkpoint file:  "035-rad.chk"
 -------
 Radical
 -------
 Charge = -1 Multiplicity = 2

                          Input orientation:
 ---------------------------------------------------------------------
 Center     Atomic      Atomic             Coordinates (Angstroms)
 Number     Number       Type             X           Y           Z
 ---------------------------------------------------------------------
      1          6           0        2.486138   -4.802815    2.056104
      2          6           0        2.492600   -3.929468    0.898088
      3          6           0        2.109682   -2.615822    0.852256
      4          6           0        1.643885   -1.995002    2.093449
      5          6           0        1.651853   -2.864799    3.256768
      6          6           0        2.023789   -4.181086    3.290360
      7          8           0        2.855073   -5.999229    1.998568
      8          8           0        1.238657   -0.810754    2.152343
      9          6           0        1.990856   -5.037988    4.524832
     10          6           0        2.145773   -1.792947   -0.427032
     11          6           0        0.735528   -1.345427   -0.860281
     12          6           0        3.109037   -0.595157   -0.311087
     13          7           0        2.971216   -4.588575   -0.344393
     14          7           0        1.193827   -2.231204    4.512671
     15          1           0        2.111397   -4.452519    5.438159
     16          1           0        2.779574   -5.788630    4.461836
     17          1           0        1.038300   -5.574269    4.595871
     18          1           0        2.533203   -2.434843   -1.222967
     19          1           0        0.790551   -0.815672   -1.817852
     20          1           0        0.297974   -0.680796   -0.114700
     21          1           0        0.076996   -2.208759   -0.989549
     22          1           0        3.160645   -0.064592   -1.268360
     23          1           0        4.117932   -0.931719   -0.056948
     24          1           0        2.768571    0.098843    0.458071
     25          8           0        4.167373   -4.528174   -0.594890
     26          8           0        2.140686   -5.147743   -1.047379
     27          8           0        0.094251   -2.556609    4.949961
     28          8           0        1.944252   -1.431455    5.053141
 ---------------------------------------------------------------------

 SCF Done:  E(UB3LYP) =  -948.084546257     A.U. after    2 cycles

 Alpha  occ. eigenvalues --  -19.05915 -19.05910 -19.05669 -19.05563 -18.97989
 Alpha  occ. eigenvalues --  -18.97884 -14.44551 -14.44302 -10.13458 -10.13219
 Alpha  occ. eigenvalues --  -10.11694 -10.11461 -10.09256 -10.09074 -10.08721
 Alpha  occ. eigenvalues --  -10.06961 -10.05939 -10.05922  -1.13289  -1.12971
 Alpha  occ. eigenvalues --   -0.95905  -0.95563  -0.90985  -0.90677  -0.76465
 Alpha  occ. eigenvalues --   -0.73284  -0.69014  -0.65231  -0.62648  -0.58667
 Alpha  occ. eigenvalues --   -0.58222  -0.52964  -0.51028  -0.47629  -0.46522
 Alpha  occ. eigenvalues --   -0.45452  -0.44559  -0.41982  -0.41714  -0.41502
 Alpha  occ. eigenvalues --   -0.40561  -0.37747  -0.34494  -0.34190  -0.33879
 Alpha  occ. eigenvalues --   -0.31941  -0.31847  -0.31086  -0.29930  -0.29158
 Alpha  occ. eigenvalues --   -0.28658  -0.28301  -0.27246  -0.25100  -0.24795
 Alpha  occ. eigenvalues --   -0.23947  -0.21853  -0.21565  -0.21326  -0.21182
 Alpha  occ. eigenvalues --   -0.20934  -0.20768  -0.17709  -0.15400  -0.14834
 Alpha  occ. eigenvalues --   -0.14006  -0.06585
 Alpha virt. eigenvalues --    0.02458   0.02645   0.07881   0.08262   0.09022
 Alpha virt. eigenvalues --    0.09975   0.11214   0.11505   0.12162   0.12603
 Alpha virt. eigenvalues --    0.13166   0.13693   0.13856   0.14319   0.14710

  Beta  occ. eigenvalues --  -19.05909 -19.05903 -19.05658 -19.05550 -18.97240
  Beta  occ. eigenvalues --  -18.97164 -14.44558 -14.44306 -10.13367 -10.13126
  Beta  occ. eigenvalues --  -10.11601 -10.11374 -10.09096 -10.08926 -10.08730
  Beta  occ. eigenvalues --  -10.06973 -10.05931 -10.05915  -1.13281  -1.12954
  Beta  occ. eigenvalues --   -0.95892  -0.95539  -0.89775  -0.89410  -0.75949
  Beta  occ. eigenvalues --   -0.73099  -0.68873  -0.64900  -0.62342  -0.58642
  Beta  occ. eigenvalues --   -0.57810  -0.52559  -0.50845  -0.47524  -0.46352
  Beta  occ. eigenvalues --   -0.45369  -0.44479  -0.41826  -0.41676  -0.41427
  Beta  occ. eigenvalues --   -0.40331  -0.37638  -0.34392  -0.34029  -0.33068
  Beta  occ. eigenvalues --   -0.31652  -0.31545  -0.30355  -0.29359  -0.28917
  Beta  occ. eigenvalues --   -0.28190  -0.27722  -0.25148  -0.24921  -0.24552
  Beta  occ. eigenvalues --   -0.23905  -0.21787  -0.21481  -0.21113  -0.20884
  Beta  occ. eigenvalues --   -0.20799  -0.20179  -0.14845  -0.14726  -0.14147
  Beta  occ. eigenvalues --   -0.13353
  Beta virt. eigenvalues --    0.00614   0.02525   0.02773   0.07883   0.09034
  Beta virt. eigenvalues --    0.09478   0.10232   0.11226   0.11513   0.12426
  Beta virt. eigenvalues --    0.13172   0.13711   0.13868   0.14295   0.14452

 Mulliken charges and spin densities:
               1          2
     1  C   -0.776337   0.051394
     2  C    0.081976   0.071513
     3  C    1.198862   0.106109
     4  C   -0.965361   0.074792
     5  C   -1.296725   0.034555
     6  C    1.973171   0.119015
     7  O   -0.328985   0.280170
     8  O   -0.301723   0.266804
     9  C   -0.411090  -0.002680
    10  C   -0.113864  -0.023393
    11  C   -0.627712   0.009716
    12  C   -0.643974   0.011310
    13  N   -0.273261  -0.013627
    14  N   -0.302371  -0.007335
    15  H    0.169490   0.001638
    16  H    0.183521   0.001085
    17  H    0.183405   0.006981
    18  H    0.181295  -0.000807
    19  H    0.120905   0.000446
    20  H    0.202431  -0.001185
    21  H    0.134463   0.000510
    22  H    0.121507   0.000543
    23  H    0.135034   0.000327
    24  H    0.200918  -0.001189
    25  O    0.032483   0.002903
    26  O    0.034565   0.002949
    27  O    0.026626   0.003440
    28  O    0.060751   0.004017
 Sum of Mulliken charges =  -1.00000   1.00000

 Dipole moment (field-independent basis, Debye):
    X=             -9.8977    Y=             16.2038    Z=             -9.7424  Tot=             21.3411
 Quadrupole moment (field-independent basis, Debye-Ang):
   XX=           -140.5796   YY=           -195.4291   ZZ=           -155.6698
   XY=             44.3890   XZ=             -9.1069   YZ=             14.6221

  Exact polarizability: 135.651 -16.571 200.598 -14.433  -7.744 192.003
 Approx polarizability: 246.797 -22.818 352.440 -11.625   6.405 249.115

                      1                      2                      3
                      A                      A                      A
 Frequencies --     32.7458                35.5491                55.6523
 Red. masses --      7.7326                 9.6519                 1.4060
 Frc consts  --      0.0049                 0.0072                 0.0026
 IR Inten    --      0.8073                 0.2075                 0.6960

                      4                      5                      6
                      A                      A                      A
 Frequencies --     59.3687                69.6400                70.0266
 Red. masses --      3.4761                 4.2006                 3.3184
 Frc consts  --      0.0072                 0.0120                 0.0096
 IR Inten    --      0.2136                 1.8006                 0.5412

                      7                      8                      9
                      A                      A                      A
 Frequencies --    114.3461               145.5650               152.9296
 Red. masses --      6.1128                 5.6131                 7.5721
 Frc consts  --      0.0471                 0.0701                 0.1043
 IR Inten    --      3.0639                 2.6058                 2.2367

                     10                     11                     12
                      A                      A                      A
 Frequencies --    160.7044               195.4766               216.3881
 Red. masses --      5.7753                 5.1980                 4.1245
 Frc consts  --      0.0879                 0.1170                 0.1138
 IR Inten    --      3.7469                 0.0550                 1.5275

                     13                     14                     15
                      A                      A                      A
 Frequencies --    227.3103               242.5101               256.6699
 Red. masses --      1.1661                 1.1420                 4.4839
 Frc consts  --      0.0355                 0.0396                 0.1740
 IR Inten    --      0.2200                 0.7299                 0.2264

                     16                     17                     18
                      A                      A                      A
 Frequencies --    259.8150               278.4132               320.6153
 Red. masses --      7.7933                 3.1835                 4.5680
 Frc consts  --      0.3100                 0.1454                 0.2767
 IR Inten    --      0.3628                 0.1980                 0.8279

                     19                     20                     21
                      A                      A                      A
 Frequencies --    355.4402               374.7456               425.9007
 Red. masses --      8.2578                 6.5028                 3.1889
 Frc consts  --      0.6147                 0.5380                 0.3408
 IR Inten    --      5.4268                 0.7160                 0.0795

                     22                     23                     24
                      A                      A                      A
 Frequencies --    459.3007               466.0651               472.7723
 Red. masses --      4.3656                 6.4679                 6.1806
 Frc consts  --      0.5426                 0.8278                 0.8139
 IR Inten    --      0.3802                 0.5123                17.1887

                     25                     26                     27
                      A                      A                      A
 Frequencies --    530.5544               565.0337               611.0003
 Red. masses --      6.5362                 9.9716                 7.4554
 Frc consts  --      1.0840                 1.8757                 1.6398
 IR Inten    --      0.1990                 0.2400                 1.5845

                     28                     29                     30
                      A                      A                      A
 Frequencies --    646.1188               681.2951               741.0172
 Red. masses --      7.7042                 7.6593                 9.1074
 Frc consts  --      1.8950                 2.0946                 2.9465
 IR Inten    --      2.9562                 9.1857                13.4621

                     31                     32                     33
                      A                      A                      A
 Frequencies --    748.2006               776.7539               784.6779
 Red. masses --      6.8857                 9.3596                11.8591
 Frc consts  --      2.2711                 3.3272                 4.3021
 IR Inten    --     48.9576                 3.3834                13.1847

                     34                     35                     36
                      A                      A                      A
 Frequencies --    829.1642               859.3112               898.6625
 Red. masses --      5.1863                 3.8857                 5.5005
 Frc consts  --      2.1008                 1.6905                 2.6172
 IR Inten    --      4.5452                18.1283                14.1878

                     37                     38                     39
                      A                      A                      A
 Frequencies --    933.0950               963.9235               967.3162
 Red. masses --      1.1534                 1.5598                 7.2070
 Frc consts  --      0.5917                 0.8539                 3.9732
 IR Inten    --      0.7694                 0.0236                 2.6621

                     40                     41                     42
                      A                      A                      A
 Frequencies --    968.3761              1046.2953              1055.7152
 Red. masses --      3.0683                 1.5029                 2.3685
 Frc consts  --      1.6953                 0.9694                 1.5553
 IR Inten    --      4.5321                 0.2406                51.2402

                     43                     44                     45
                      A                      A                      A
 Frequencies --   1075.3881              1118.6526              1146.1673
 Red. masses --      2.4522                 2.3599                 2.8274
 Frc consts  --      1.6708                 1.7400                 2.1884
 IR Inten    --     14.6318                 1.8526                16.1151

                     46                     47                     48
                      A                      A                      A
 Frequencies --   1174.8955              1205.7394              1272.1413
 Red. masses --      6.2312                 2.4269                 5.0877
 Frc consts  --      5.0678                 2.0788                 4.8511
 IR Inten    --     11.4596                 2.3888                22.4618

                     49                     50                     51
                      A                      A                      A
 Frequencies --   1337.3082              1380.6934              1383.1346
 Red. masses --      1.3030                 1.9111                 1.2175
 Frc consts  --      1.3730                 2.1465                 1.3723
 IR Inten    --      5.6387                 1.0852                11.9217

                     52                     53                     54
                      A                      A                      A
 Frequencies --   1393.7989              1400.1944              1408.7171
 Red. masses --      3.6825                 1.7357                 1.3631
 Frc consts  --      4.2149                 2.0050                 1.5937
 IR Inten    --    202.3151                71.6383                49.8249

                     55                     56                     57
                      A                      A                      A
 Frequencies --   1414.3809              1421.2026              1473.9955
 Red. masses --      7.8546                 2.3511                 1.1008
 Frc consts  --      9.2577                 2.7979                 1.4091
 IR Inten    --     32.8437                 6.8169                14.2310

                     58                     59                     60
                      A                      A                      A
 Frequencies --   1482.5150              1486.4713              1494.7764
 Red. masses --      1.0401                 1.1967                 1.1012
 Frc consts  --      1.3469                 1.5580                 1.4496
 IR Inten    --      0.4465                10.6453                45.2417

                     61                     62                     63
                      A                      A                      A
 Frequencies --   1503.7510              1517.7446              1529.2442
 Red. masses --      1.0507                 1.2364                 3.7731
 Frc consts  --      1.3999                 1.6780                 5.1988
 IR Inten    --      2.1686                39.0242                19.9149

                     64                     65                     66
                      A                      A                      A
 Frequencies --   1540.7900              1542.0339              1578.1269
 Red. masses --      8.9308                 4.9233                13.4879
 Frc consts  --     12.4919                 6.8975                19.7914
 IR Inten    --     97.8712               247.2316               246.2651

                     67                     68                     69
                      A                      A                      A
 Frequencies --   1583.2024              1643.5471              3012.1130
 Red. masses --     14.1480                 9.0582                 1.0404
 Frc consts  --     20.8939                14.4165                 5.5613
 IR Inten    --    411.4134                 3.5942                34.3348

                     70                     71                     72
                      A                      A                      A
 Frequencies --   3016.6012              3024.4594              3046.1767
 Red. masses --      1.0413                 1.0432                 1.0819
 Frc consts  --      5.5827                 5.6223                 5.9149
 IR Inten    --    102.6801                32.8104                18.5156

                     73                     74                     75
                      A                      A                      A
 Frequencies --   3073.1094              3075.4765              3082.2216
 Red. masses --      1.0971                 1.0978                 1.0905
 Frc consts  --      6.1047                 6.1179                 6.1039
 IR Inten    --     23.8981                57.5511                20.0616

                     76                     77                     78
                      A                      A                      A
 Frequencies --   3116.9533              3120.0094              3121.0733
 Red. masses --      1.1002                 1.1025                 1.0993
 Frc consts  --      6.2977                 6.3231                 6.3092
 IR Inten    --      0.6122                 5.7528                19.1062

 - Thermochemistry -
 -------------------
 Temperature   298.150 Kelvin.  Pressure   1.00000 Atm.
 Atom     1 has atomic number  6 and mass  12.00000

 Molecular mass:   254.05389 amu.
 Principal axes and moments of inertia in atomic units:
                           1         2         3
     Eigenvalues --  3091.203544892.675537065.79389
           X           -0.26946  -0.20785   0.94031
           Y            0.19455   0.94455   0.26454
           Z            0.94316  -0.25422   0.21408
 This molecule is an asymmetric top.
 Rotational symmetry number  1.
 Warning -- assumption of classical behavior for rotation
           may cause significant error
 Rotational temperatures (Kelvin)      0.02802     0.01770     0.01226
 Rotational constants (GHZ):           0.58383     0.36887     0.25542
 Zero-point vibrational energy     521878.5 (Joules/Mol)
                                  124.73195 (Kcal/Mol)
 Warning -- explicit consideration of  27 degrees of freedom as
           vibrations may cause significant error
 Vibrational temperatures:     47.11    51.15    80.07    85.42   100.20
          (Kelvin)            100.75   164.52   209.44   220.03   231.22
                              281.25   311.33   327.05   348.92   369.29
                              373.82   400.57   461.29   511.40   539.18
                              612.78   660.83   670.56   680.21   763.35
                              812.96   879.09   929.62   980.23  1066.16
                             1076.49  1117.58  1128.98  1192.98  1236.36
                             1292.97  1342.52  1386.87  1391.75  1393.28
                             1505.39  1518.94  1547.24  1609.49  1649.08
                             1690.41  1734.79  1830.33  1924.09  1986.51
                             1990.02  2005.37  2014.57  2026.83  2034.98
                             2044.79  2120.75  2133.01  2138.70  2150.65
                             2163.56  2183.70  2200.24  2216.85  2218.64
                             2270.57  2277.88  2364.70  4333.76  4340.22
                             4351.52  4382.77  4421.52  4424.92  4434.63
                             4484.60  4489.00  4490.53

 Zero-point correction=                           0.198773 (Hartree/Particle)
 Thermal correction to Energy=                    0.216638
 Thermal correction to Enthalpy=                  0.217582
 Thermal correction to Gibbs Free Energy=         0.150693
 Sum of electronic and zero-point Energies=           -947.885773
 Sum of electronic and thermal Energies=              -947.867908
 Sum of electronic and thermal Enthalpies=            -947.866964
 Sum of electronic and thermal Free Energies=         -947.933853

                     E (Thermal)             CV                S
                      KCal/Mol        Cal/Mol-Kelvin    Cal/Mol-Kelvin
 Total                  135.943             63.064            140.780
 Electronic               0.000              0.000              1.377
 Translational            0.889              2.981             42.497
 Rotational               0.889              2.981             33.035
 Vibrational            134.165             57.102             63.871
 Vibration     1          0.594              1.983              5.656
 Vibration     2          0.594              1.982              5.493
 Vibration     3          0.596              1.975              4.606
 Vibration     4          0.597              1.974              4.478
 Vibration     5          0.598              1.969              4.164
 Vibration     6          0.598              1.968              4.153
 Vibration     7          0.607              1.938              3.194
 Vibration     8          0.617              1.907              2.729
 Vibration     9          0.619              1.899              2.635
 Vibration    10          0.622              1.891              2.541
 Vibration    11          0.636              1.846              2.175
 Vibration    12          0.645              1.816              1.989
 Vibration    13          0.651              1.799              1.900
 Vibration    14          0.659              1.775              1.784
 Vibration    15          0.666              1.752              1.684
 Vibration    16          0.668              1.746              1.663
 Vibration    17          0.679              1.713              1.543
 Vibration    18          0.706              1.634              1.307
 Vibration    19          0.731              1.564              1.142
 Vibration    20          0.746              1.524              1.060
 Vibration    21          0.788              1.414              0.872
 Vibration    22          0.817              1.340              0.768
 Vibration    23          0.823              1.325              0.749
 Vibration    24          0.830              1.310              0.730
 Vibration    25          0.886              1.182              0.586
 Vibration    26          0.921              1.107              0.514
 Vibration    27          0.970              1.009              0.431

                           ! Non-Optimized Parameters !
 Normal termination of Gaussian 16 at Mon Dec 18 01:59:10 2023.
