 Gaussian 16, Revision A.03,
 Gaussian 16:  ES64L-G16RevA.03 25-Dec-2016

 ----------------------------------------------------------------
 #P UB3LYP/6-311++G(d,p) SCRF=(PCM,Solvent=n,n-DiMethylFormamide)
 ----------------------------------------------------------------

 ------------------
 Radical PCM in DMF
 ------------------
 Symbolic Z-matrix:
 Charge = -1 Multiplicity = 2

                         Standard orientation:
 ---------------------------------------------------------------------
 Center     Atomic      Atomic             Coordinates (Angstroms)
 Number     Number       Type             X           Y           Z
 ---------------------------------------------------------------------
      1          6           0       -2.555542   -1.748807    1.136538
      2          6           0       -2.284210   -1.089736   -0.231492
      3          6           0       -3.583805   -0.539578   -0.833973
      4          6           0       -1.161873   -0.069040   -0.122648
      5          6           0       -1.385810    1.279238   -0.001883
      6          6           0       -0.320410    2.249449    0.129257
      7          8           0       -0.544867    3.490171    0.242168
      8          6           0        1.017442    1.702045    0.120272
      9          6           0        1.288483    0.360668   -0.000591
     10          6           0        2.733352   -0.120649   -0.004156
     11          6           0        3.051763   -1.037287    1.193323
     12          6           0        3.124090   -0.797561   -1.332567
     13          6           0        0.200052   -0.603161   -0.125653
     14          8           0        0.413508   -1.850563   -0.234515
     15          1           0       -3.311353   -2.539773    1.049067
     16          1           0       -2.919699   -1.007544    1.856767
     17          1           0       -1.638764   -2.193044    1.528310
     18          1           0       -1.906657   -1.881590   -0.887365
     19          1           0       -4.308528   -1.349621   -0.975966
     20          1           0       -3.405082   -0.067837   -1.804596
     21          1           0       -4.052092    0.206864   -0.183777
     22          1           0       -2.392510    1.686773   -0.001770
     23          1           0        1.829545    2.420005    0.214815
     24          1           0        3.355113    0.778381    0.099057
     25          1           0        2.452322   -1.947545    1.138985
     26          1           0        4.114480   -1.311176    1.198328
     27          1           0        2.827739   -0.531925    2.137982
     28          1           0        4.186323   -1.073313   -1.328041
     29          1           0        2.953072   -0.121670   -2.176295
     30          1           0        2.525752   -1.697325   -1.485282
 ---------------------------------------------------------------------

 SCF Done:  E(UB3LYP) =  -617.669379874     A.U. after   17 cycles

 The electronic state is 2-A.
 Alpha  occ. eigenvalues --  -19.07048 -19.06834 -10.21174 -10.21074 -10.16835
 Alpha  occ. eigenvalues --  -10.16619 -10.16402 -10.16376 -10.15148 -10.15117
 Alpha  occ. eigenvalues --  -10.15100 -10.15022 -10.14645 -10.14644  -0.99116
 Alpha  occ. eigenvalues --   -0.98857  -0.82647  -0.80263  -0.76713  -0.71691
 Alpha  occ. eigenvalues --   -0.67873  -0.67309  -0.66973  -0.61309  -0.59345
 Alpha  occ. eigenvalues --   -0.54022  -0.53092  -0.48191  -0.46009  -0.44274
 Alpha  occ. eigenvalues --   -0.44126  -0.42784  -0.42225  -0.41365  -0.40196
 Alpha  occ. eigenvalues --   -0.39809  -0.38805  -0.38030  -0.37897  -0.37441
 Alpha  occ. eigenvalues --   -0.36722  -0.35758  -0.33934  -0.33520  -0.33133
 Alpha  occ. eigenvalues --   -0.32646  -0.32280  -0.31683  -0.26990  -0.24132
 Alpha  occ. eigenvalues --   -0.23545  -0.22644  -0.15473
 Alpha virt. eigenvalues --   -0.00415  -0.00008   0.00484   0.01207   0.01349
 Alpha virt. eigenvalues --    0.02445   0.02668   0.02824   0.03508   0.04025
 Alpha virt. eigenvalues --    0.04456   0.04750   0.05062   0.05564   0.05912

  Beta  occ. eigenvalues --  -19.06387 -19.06127 -10.21034 -10.20907 -10.16842
  Beta  occ. eigenvalues --  -10.16628 -10.16282 -10.16261 -10.15116 -10.15052
  Beta  occ. eigenvalues --  -10.15012 -10.15010 -10.14639 -10.14638  -0.97936
  Beta  occ. eigenvalues --   -0.97616  -0.82160  -0.80158  -0.76497  -0.71496
  Beta  occ. eigenvalues --   -0.67759  -0.67289  -0.66070  -0.61034  -0.59108
  Beta  occ. eigenvalues --   -0.53770  -0.52836  -0.48014  -0.45624  -0.44204
  Beta  occ. eigenvalues --   -0.43899  -0.42750  -0.42081  -0.40651  -0.39781
  Beta  occ. eigenvalues --   -0.39489  -0.38433  -0.37864  -0.37099  -0.36614
  Beta  occ. eigenvalues --   -0.36523  -0.34181  -0.33615  -0.33459  -0.32685
  Beta  occ. eigenvalues --   -0.32362  -0.32220  -0.31347  -0.23836  -0.23399
  Beta  occ. eigenvalues --   -0.22928  -0.22038
  Beta virt. eigenvalues --   -0.08262  -0.00378   0.00449   0.01128   0.01396
  Beta virt. eigenvalues --    0.01513   0.02466   0.02711   0.02868   0.03972
  Beta virt. eigenvalues --    0.04404   0.04700   0.05077   0.05492   0.05778

 Mulliken charges and spin densities:
               1          2
     1  C   -0.700909   0.010296
     2  C    0.212004   0.001812
     3  C   -0.561316   0.001255
     4  C    1.115606   0.069768
     5  C   -0.296814   0.090260
     6  C   -0.437005   0.126468
     7  O   -0.528487   0.229258
     8  C   -0.359392   0.044744
     9  C    0.797509   0.057250
    10  C    0.266704  -0.006549
    11  C   -0.671306   0.006430
    12  C   -0.676681   0.007421
    13  C   -1.200457   0.113503
    14  O   -0.431228   0.261367
    15  H    0.134698   0.001997
    16  H    0.143606  -0.001057
    17  H    0.172727  -0.001953
    18  H    0.193353   0.002115
    19  H    0.162076  -0.000433
    20  H    0.131415  -0.000268
    21  H    0.136758  -0.000246
    22  H    0.166470  -0.005044
    23  H    0.170467  -0.007462
    24  H    0.169512  -0.000796
    25  H    0.179146  -0.001001
    26  H    0.139967   0.000457
    27  H    0.124803   0.000492
    28  H    0.139985   0.000371
    29  H    0.124166   0.000388
    30  H    0.182622  -0.000841
 Sum of Mulliken charges =  -1.00000   1.00000

 Dipole moment (field-independent basis, Debye):
    X=              0.4942    Y=             -5.2873    Z=             -0.2004  Tot=              5.3141
 Quadrupole moment (field-independent basis, Debye-Ang):
   XX=            -90.5742   YY=           -134.5749   ZZ=            -92.4853
   XY=              8.5735   XZ=              1.0304   YZ=             -3.0359

 Normal termination of Gaussian 16 at Sun Jan 21 07:23:32 2024.
