 Q-Chem 5.4, Q-Chem, Inc., Pleasanton, CA (2021)
 Q-Chem 5.4.0 for Intel X86 EM64T Linux

User input:
--------------------------------------------------------------
$molecule
-1 2
Br                -2.3374420000      2.1328900000      0.8092820000
C                 -0.9854660000      0.8530680000      0.3359080000
C                 -1.2990150000     -0.4907860000      0.2534490000
Br                -3.0662220000     -1.1507100000      0.5991950000
C                 -0.3280050000     -1.5129200000     -0.0988640000
O                 -0.6040910000     -2.7149470000     -0.1736150000
C                  1.0857870000     -1.0399490000     -0.3818290000
O                  1.9611470000     -1.8567820000     -0.6872270000
C                  1.3295960000      0.3885240000     -0.2727080000
C                  0.3467560000      1.2986780000      0.0692700000
Br                 0.7629310000      3.1703010000      0.1891540000
Br                 3.1340230000      0.9226340000     -0.6420110000
$end
$rem
MAX_SCF_CYCLES=200
BASIS  =  6-311++G(d,p)
GUI  =  2
JOB_TYPE  =  SP
METHOD  =  B3LYP
SOLVENT_METHOD = COSMO
$end
$solvent
dielectric 37.219
opticaldielectric 1.43
$end

--------------------------------------------------------------

             Standard Nuclear Orientation (Angstroms)
    I     Atom           X                Y                Z
 ----------------------------------------------------------------
    1      Br     -1.6643485603    -2.0481117593     0.0002023084
    2      C      -0.7149709584    -0.3782169970    -0.0000253090
    3      C      -1.4103321874     0.8165753684    -0.0000291219
    4      Br     -3.3269999139     0.8832490443    -0.0001310615
    5      C      -0.7582409652     2.1152361455     0.0000607885
    6      O      -1.3759564904     3.1853331631     0.0000072285
    7      C       0.7591839792     2.1148967119     0.0000641543
    8      O       1.3773488121     3.1847618623     0.0001951686
    9      C       1.4109481496     0.8160168879     0.0000184664
   10      C       0.7148820023    -0.3784686239    -0.0000313936
   11      Br      1.6632770054    -2.0491251899    -0.0001527134
   12      Br      3.3275012205     0.8826451290     0.0000253327
 ----------------------------------------------------------------

   10  -10675.7994690158      9.32e-06  Convergence criterion met
 Total energy in the final basis set =   -10675.7994690158
    5  -10675.8767926248      4.93e-06  Convergence criterion met
 Total energy in the final basis set =   -10675.8767926248

                    Orbital Energies (a.u.)
 --------------------------------------------------------------

 Alpha MOs
 -- Occupied --
********-482.8428-482.8348-482.8348 -62.4956 -62.4956 -62.4876 -62.4876
-56.3162 -56.3162 -56.3123 -56.3123 -56.3119 -56.3119 -56.3082 -56.3081
-56.3044 -56.3044 -56.3040 -56.3039 -19.1060 -19.1060 -10.2588 -10.2584
-10.2527 -10.2525 -10.2388 -10.2388  -8.7043  -8.7043  -8.6964  -8.6964
 -6.5362  -6.5362  -6.5280  -6.5279  -6.5231  -6.5231  -6.5219  -6.5219
 -6.5153  -6.5153  -6.5142  -6.5142  -2.6469  -2.6469  -2.6436  -2.6436
 -2.6427  -2.6427  -2.6389  -2.6388  -2.6354  -2.6354  -2.6346  -2.6346
 -2.6322  -2.6322  -2.6321  -2.6321  -2.6245  -2.6245  -2.6244  -2.6244
 -1.0514  -1.0235  -0.8996  -0.8415  -0.8134  -0.7924  -0.7789  -0.7086
 -0.6989  -0.5907  -0.5892  -0.5277  -0.4805  -0.4529  -0.4509  -0.4342
 -0.4203  -0.4043  -0.3948  -0.3897  -0.3897  -0.3394  -0.3296  -0.3177
 -0.3144  -0.3077  -0.2931  -0.2908  -0.2885  -0.2634  -0.2544  -0.2389
 -0.1904

 Beta MOs
 -- Occupied --
********-482.8428-482.8348-482.8348 -62.4956 -62.4956 -62.4876 -62.4876
-56.3162 -56.3162 -56.3122 -56.3122 -56.3118 -56.3118 -56.3082 -56.3081
-56.3043 -56.3043 -56.3040 -56.3039 -19.0999 -19.0999 -10.2571 -10.2567
-10.2517 -10.2515 -10.2378 -10.2378  -8.7043  -8.7043  -8.6964  -8.6964
 -6.5362  -6.5362  -6.5280  -6.5280  -6.5229  -6.5229  -6.5219  -6.5219
 -6.5152  -6.5152  -6.5142  -6.5142  -2.6469  -2.6469  -2.6435  -2.6435
 -2.6427  -2.6427  -2.6389  -2.6388  -2.6354  -2.6354  -2.6346  -2.6346
 -2.6321  -2.6320  -2.6320  -2.6320  -2.6244  -2.6244  -2.6244  -2.6244
 -1.0412  -1.0123  -0.8953  -0.8399  -0.8111  -0.7915  -0.7768  -0.7061
 -0.6902  -0.5865  -0.5842  -0.5254  -0.4773  -0.4452  -0.4357  -0.4291
 -0.4192  -0.4021  -0.3881  -0.3776  -0.3722  -0.3292  -0.3252  -0.3136
 -0.3136  -0.3039  -0.2906  -0.2887  -0.2809  -0.2619  -0.2488  -0.2278

          Ground-State Mulliken Net Atomic Charges

     Atom                 Charge (a.u.)    Spin (a.u.)
  --------------------------------------------------------
      1 Br                   -0.206996       0.011887
      2 C                    -0.551925       0.079364
      3 C                     1.181604       0.084026
      4 Br                   -0.142533       0.007305
      5 C                    -0.380473       0.091495
      6 O                    -0.399756       0.225953
      7 C                    -0.378950       0.091733
      8 O                    -0.400277       0.225713
      9 C                     1.181191       0.083893
     10 C                    -0.552367       0.079451
     11 Br                   -0.206992       0.011884
     12 Br                   -0.142526       0.007296
  --------------------------------------------------------
  Sum of atomic charges =    -1.000000

                    Cartesian Multipole Moments
 -----------------------------------------------------------------
    Charge (ESU x 10^10)
                -4.8032
    Dipole Moment (Debye)
         X      -0.0055      Y     -12.1457      Z      -0.0009
       Tot      12.1457
    Quadrupole Moments (Debye-Ang)
        XX    -138.1755     XY      -0.0105     YY    -166.4439
        XZ       0.0004     YZ      -0.0030     ZZ    -120.9733

 Total job time:  72.06s(wall), 329.94s(cpu)
        *  Thank you very much for using Q-Chem.  Have a nice day.  *
