 Gaussian 16, Revision A.03,
 Gaussian 16:  ES64L-G16RevA.03 25-Dec-2016

 ----------------------------------------------------------------
 #P UB3LYP/6-311++G(d,p) SCRF=(PCM,Solvent=n,n-DiMethylFormamide)
 ----------------------------------------------------------------

 ------------------
 Quinone PCM in DMF
 ------------------
 Symbolic Z-matrix:
 Charge =  0 Multiplicity = 1

                         Standard orientation:
 ---------------------------------------------------------------------
 Center     Atomic      Atomic             Coordinates (Angstroms)
 Number     Number       Type             X           Y           Z
 ---------------------------------------------------------------------
      1         17           0        3.127791   -0.466730    0.000009
      2          6           0        1.409656   -0.269111    0.000009
      3          6           0        0.572789   -1.315600   -0.000043
      4          6           0       -0.897471   -1.145255   -0.000014
      5          8           0       -1.641401   -2.102480    0.000029
      6          6           0       -1.409599    0.269145   -0.000008
      7          6           0       -0.572775    1.315596    0.000045
      8          6           0        0.897446    1.145332    0.000017
      9          8           0        1.641448    2.102524   -0.000034
     10         17           0       -3.127831    0.466672   -0.000009
     11          1           0        0.924273   -2.339798   -0.000070
     12          1           0       -0.924246    2.339799    0.000070
 ---------------------------------------------------------------------

 SCF Done:  E(UB3LYP) =  -1300.80947617     A.U. after   18 cycles

 The electronic state is 1-A.
 Alpha  occ. eigenvalues -- -101.58502-101.58502 -19.16160 -19.16160 -10.31235
 Alpha  occ. eigenvalues --  -10.31234 -10.28446 -10.28445 -10.23004 -10.23003
 Alpha  occ. eigenvalues --   -9.49949  -9.49948  -7.26425  -7.26425  -7.25457
 Alpha  occ. eigenvalues --   -7.25456  -7.25352  -7.25352  -1.09698  -1.09505
 Alpha  occ. eigenvalues --   -0.92595  -0.91157  -0.84602  -0.78533  -0.72036
 Alpha  occ. eigenvalues --   -0.65748  -0.61733  -0.55858  -0.52718  -0.50547
 Alpha  occ. eigenvalues --   -0.48258  -0.47919  -0.47098  -0.45967  -0.44476
 Alpha  occ. eigenvalues --   -0.43769  -0.39694  -0.38103  -0.34569  -0.34556
 Alpha  occ. eigenvalues --   -0.31328  -0.31242  -0.30506  -0.29270
 Alpha virt. eigenvalues --   -0.15340  -0.05072  -0.01915  -0.00732  -0.00193
 Alpha virt. eigenvalues --   -0.00129   0.01182   0.02764   0.04527   0.04891
 Alpha virt. eigenvalues --    0.05179   0.06218   0.06221   0.07593   0.08167

  Beta  occ. eigenvalues -- -101.58502-101.58502 -19.16160 -19.16160 -10.31235
  Beta  occ. eigenvalues --  -10.31234 -10.28446 -10.28445 -10.23004 -10.23003
  Beta  occ. eigenvalues --   -9.49949  -9.49948  -7.26425  -7.26425  -7.25457
  Beta  occ. eigenvalues --   -7.25456  -7.25352  -7.25352  -1.09698  -1.09505
  Beta  occ. eigenvalues --   -0.92595  -0.91157  -0.84602  -0.78533  -0.72036
  Beta  occ. eigenvalues --   -0.65748  -0.61733  -0.55858  -0.52718  -0.50547
  Beta  occ. eigenvalues --   -0.48258  -0.47919  -0.47098  -0.45967  -0.44476
  Beta  occ. eigenvalues --   -0.43769  -0.39694  -0.38103  -0.34569  -0.34556
  Beta  occ. eigenvalues --   -0.31328  -0.31242  -0.30506  -0.29270
  Beta virt. eigenvalues --   -0.15340  -0.05072  -0.01915  -0.00732  -0.00193
  Beta virt. eigenvalues --   -0.00129   0.01182   0.02764   0.04527   0.04891
  Beta virt. eigenvalues --    0.05179   0.06218   0.06221   0.07593   0.08167

 Mulliken charges and spin densities:
               1          2
     1  Cl   0.344044  -0.000000
     2  C    0.912491   0.000000
     3  C   -0.222260  -0.000000
     4  C   -1.067522   0.000000
     5  O   -0.225699  -0.000000
     6  C    0.912863  -0.000000
     7  C   -0.222210   0.000000
     8  C   -1.067236  -0.000000
     9  O   -0.225715   0.000000
    10  Cl   0.344010   0.000000
    11  H    0.258617  -0.000000
    12  H    0.258616   0.000000
 Sum of Mulliken charges =  -0.00000   0.00000

 Dipole moment (field-independent basis, Debye):
    X=              0.0001    Y=              0.0002    Z=              0.0000  Tot=              0.0002
 Quadrupole moment (field-independent basis, Debye-Ang):
   XX=            -78.2350   YY=            -76.5749   ZZ=            -68.9886
   XY=            -12.6983   XZ=              0.0003   YZ=              0.0006

 Normal termination of Gaussian 16 at Sun Jan 21 06:46:26 2024.
