 Q-Chem 5.4, Q-Chem, Inc., Pleasanton, CA (2021)
 Q-Chem 5.4.0 for Intel X86 EM64T Linux

User input:
--------------------------------------------------------------
$molecule
0 1
C                  2.6869040000      0.3681620000      0.4922800000
O                  1.7298450000     -0.6666000000      0.2562920000
C                  0.4478260000     -0.3256040000      0.1189170000
C                 -0.0712460000      0.9230290000      0.1784320000
C                 -1.5083210000      1.1608650000      0.0089150000
O                 -1.9873930000      2.2853410000      0.0606500000
C                 -2.3863630000     -0.0184760000     -0.2317090000
C                 -1.8877110000     -1.2581760000     -0.2931340000
C                 -0.4402530000     -1.5247590000     -0.1249960000
O                  0.0139060000     -2.6486870000     -0.1795770000
H                  2.4653250000      0.8952410000      1.4248340000
H                  3.6482310000     -0.1341380000      0.5697410000
H                  2.7029260000      1.0778770000     -0.3399560000
H                  0.5324610000      1.8040430000      0.3510340000
H                 -3.4425580000      0.1952480000     -0.3520630000
H                 -2.5035790000     -2.1333660000     -0.4671000000
$end
$rem
MAX_SCF_CYCLES=200
BASIS  =  6-311++G(d,p)
GUI  =  2
JOB_TYPE  =  SP
METHOD  =  B3LYP
SOLVENT_METHOD = PCM
$end
$pcm
theory = CPCM
$end
$solvent
dielectric 37.219
opticaldielectric 1.43
$end

--------------------------------------------------------------

             Standard Nuclear Orientation (Angstroms)
    I     Atom           X                Y                Z
 ----------------------------------------------------------------
    1      C       2.6869040000     0.3681620000     0.4922800000
    2      O       1.7298450000    -0.6666000000     0.2562920000
    3      C       0.4478260000    -0.3256040000     0.1189170000
    4      C      -0.0712460000     0.9230290000     0.1784320000
    5      C      -1.5083210000     1.1608650000     0.0089150000
    6      O      -1.9873930000     2.2853410000     0.0606500000
    7      C      -2.3863630000    -0.0184760000    -0.2317090000
    8      C      -1.8877110000    -1.2581760000    -0.2931340000
    9      C      -0.4402530000    -1.5247590000    -0.1249960000
   10      O       0.0139060000    -2.6486870000    -0.1795770000
   11      H       2.4653250000     0.8952410000     1.4248340000
   12      H       3.6482310000    -0.1341380000     0.5697410000
   13      H       2.7029260000     1.0778770000    -0.3399560000
   14      H       0.5324610000     1.8040430000     0.3510340000
   15      H      -3.4425580000     0.1952480000    -0.3520630000
   16      H      -2.5035790000    -2.1333660000    -0.4671000000
 ----------------------------------------------------------------

    9    -496.1397876715      5.32e-06  Convergence criterion met
 Total energy in the final basis set =     -496.1397876715

                    Orbital Energies (a.u.)
 --------------------------------------------------------------

 Alpha MOs
 -- Occupied --
-19.1896 -19.1509 -19.1365 -10.2960 -10.2848 -10.2759 -10.2295 -10.2126
-10.2111 -10.1955  -1.1121  -1.0781  -1.0672  -0.8615  -0.7929  -0.7454
 -0.6974  -0.6300  -0.6102  -0.5457  -0.5346  -0.5066  -0.4946  -0.4814
 -0.4568  -0.4532  -0.4474  -0.4307  -0.4235  -0.4134  -0.3680  -0.3661
 -0.3128  -0.2964  -0.2842  -0.2700

          Ground-State Mulliken Net Atomic Charges

     Atom                 Charge (a.u.)
  ----------------------------------------
      1 C                    -0.334598
      2 O                    -0.165727
      3 C                    -0.195346
      4 C                     0.696168
      5 C                    -0.517473
      6 O                    -0.335775
      7 C                     0.195966
      8 C                     0.209800
      9 C                    -0.636000
     10 O                    -0.297402
     11 H                     0.188255
     12 H                     0.209348
     13 H                     0.188301
     14 H                     0.271895
     15 H                     0.261708
     16 H                     0.260879
  ----------------------------------------
  Sum of atomic charges =     0.000000

                    Cartesian Multipole Moments
 -----------------------------------------------------------------
    Charge (ESU x 10^10)
                 0.0000
    Dipole Moment (Debye)
         X       1.7538      Y       0.8037      Z       0.3170
       Tot       1.9551
    Quadrupole Moments (Debye-Ang)
        XX     -47.3241     XY      15.4967     YY     -76.5694
        XZ       3.1091     YZ       0.1721     ZZ     -56.8236

 Total job time:  12.20s(wall), 88.75s(cpu)
        *  Thank you very much for using Q-Chem.  Have a nice day.  *
