 Gaussian 16, Revision A.03,
 Gaussian 16:  ES64L-G16RevA.03 25-Dec-2016

 --------------------------------------
 #P UB3LYP/6-311++G(d,p) nosym opt freq
 --------------------------------------

 -------
 Reduced
 -------
 Symbolic Z-matrix:
 Charge = -2 Multiplicity = 1

 SCF Done:  E(UB3LYP) =  -5757.71982785     A.U. after   30 cycles
 SCF Done:  E(UB3LYP) =  -5757.75050531     A.U. after   24 cycles
 SCF Done:  E(UB3LYP) =  -5757.75941932     A.U. after   20 cycles
 SCF Done:  E(UB3LYP) =  -5757.76181616     A.U. after   18 cycles
 SCF Done:  E(UB3LYP) =  -5757.76279567     A.U. after   19 cycles
 SCF Done:  E(UB3LYP) =  -5757.76325108     A.U. after   18 cycles
 SCF Done:  E(UB3LYP) =  -5757.76339332     A.U. after   18 cycles
 SCF Done:  E(UB3LYP) =  -5757.76343023     A.U. after   16 cycles
 SCF Done:  E(UB3LYP) =  -5757.76345112     A.U. after   17 cycles
 SCF Done:  E(UB3LYP) =  -5757.76345729     A.U. after   15 cycles
 SCF Done:  E(UB3LYP) =  -5757.76345857     A.U. after   14 cycles
 Optimization completed.
    -- Stationary point found.
 Normal termination of Gaussian 16 at Sun Dec 17 21:41:54 2023.

 ----------------------------------------------------------------------
 #P Geom=AllCheck Guess=TCheck SCRF=Check GenChk UB3LYP/6-311++G(d,p) F
 req
 ----------------------------------------------------------------------

 Structure from the checkpoint file:  "023-an.chk"
 -------
 Reduced
 -------
 Charge = -2 Multiplicity = 1

                          Input orientation:
 ---------------------------------------------------------------------
 Center     Atomic      Atomic             Coordinates (Angstroms)
 Number     Number       Type             X           Y           Z
 ---------------------------------------------------------------------
      1          6           0       -2.702474   -1.616223    0.047523
      2          8           0       -2.235712   -0.656489   -0.889571
      3          6           0       -1.158778    0.099055   -0.433332
      4          6           0       -1.299469    1.489156   -0.333451
      5         35           0       -3.036977    2.276353   -0.769358
      6          6           0       -0.278760    2.422996    0.061527
      7          8           0       -0.424223    3.686465    0.136762
      8          6           0        0.932162    1.704822    0.357572
      9          6           0        1.111196    0.317232    0.290770
     10          8           0        2.337119   -0.223267    0.670747
     11          6           0        2.995762   -0.936893   -0.365390
     12          6           0        0.066019   -0.571356   -0.117790
     13          8           0        0.214765   -1.865028   -0.193816
     14         35           0        2.452739    2.807968    0.904698
     15          1           0       -3.136153   -1.118107    0.929383
     16          1           0       -3.490765   -2.187552   -0.457612
     17          1           0       -1.883527   -2.277594    0.347731
     18          1           0        3.898796   -1.371572    0.080317
     19          1           0        2.342977   -1.725716   -0.752530
     20          1           0        3.295303   -0.254250   -1.176761
 ---------------------------------------------------------------------

 SCF Done:  E(UB3LYP) =  -5757.76345857     A.U. after    1 cycles

 Alpha  occ. eigenvalues -- -482.56342-482.56341 -62.21606 -62.21605 -56.03608
 Alpha  occ. eigenvalues --  -56.03607 -56.03288 -56.03287 -56.03252 -56.03252
 Alpha  occ. eigenvalues --  -18.88383 -18.88382 -18.76928 -18.76695  -9.97418
 Alpha  occ. eigenvalues --   -9.97413  -9.94799  -9.94797  -9.94508  -9.93689
 Alpha  occ. eigenvalues --   -9.93687  -9.93200  -8.42552  -8.42551  -6.25579
 Alpha  occ. eigenvalues --   -6.25578  -6.24505  -6.24504  -6.24392  -6.24391
 Alpha  occ. eigenvalues --   -2.36693  -2.36692  -2.36406  -2.36405  -2.36319
 Alpha  occ. eigenvalues --   -2.36318  -2.35464  -2.35463  -2.35462  -2.35461
 Alpha  occ. eigenvalues --   -0.79690  -0.79405  -0.69161  -0.67673  -0.56596
 Alpha  occ. eigenvalues --   -0.54062  -0.50378  -0.47536  -0.45459  -0.40269
 Alpha  occ. eigenvalues --   -0.39985  -0.31168  -0.30383  -0.24842  -0.24568
 Alpha  occ. eigenvalues --   -0.21845  -0.21144  -0.21107  -0.19711  -0.17533
 Alpha  occ. eigenvalues --   -0.16284  -0.12945  -0.11398  -0.11048  -0.10421
 Alpha  occ. eigenvalues --   -0.09436  -0.09272  -0.07120  -0.06035  -0.04108
 Alpha  occ. eigenvalues --   -0.03325  -0.02876  -0.02343  -0.01561   0.02490
 Alpha  occ. eigenvalues --    0.04461   0.04987   0.05408   0.12476
 Alpha virt. eigenvalues --    0.17021   0.17175   0.19553   0.20242   0.20434
 Alpha virt. eigenvalues --    0.20718   0.21684   0.23422   0.23841   0.24283
 Alpha virt. eigenvalues --    0.24855   0.25013   0.26000   0.26178   0.26261

  Beta  occ. eigenvalues -- -482.56342-482.56341 -62.21606 -62.21605 -56.03608
  Beta  occ. eigenvalues --  -56.03607 -56.03288 -56.03287 -56.03252 -56.03252
  Beta  occ. eigenvalues --  -18.88383 -18.88382 -18.76928 -18.76695  -9.97418
  Beta  occ. eigenvalues --   -9.97413  -9.94799  -9.94797  -9.94508  -9.93689
  Beta  occ. eigenvalues --   -9.93687  -9.93200  -8.42552  -8.42551  -6.25579
  Beta  occ. eigenvalues --   -6.25578  -6.24505  -6.24504  -6.24392  -6.24391
  Beta  occ. eigenvalues --   -2.36693  -2.36692  -2.36406  -2.36405  -2.36319
  Beta  occ. eigenvalues --   -2.36318  -2.35464  -2.35463  -2.35462  -2.35461
  Beta  occ. eigenvalues --   -0.79690  -0.79405  -0.69161  -0.67673  -0.56596
  Beta  occ. eigenvalues --   -0.54062  -0.50378  -0.47536  -0.45459  -0.40269
  Beta  occ. eigenvalues --   -0.39985  -0.31168  -0.30383  -0.24842  -0.24568
  Beta  occ. eigenvalues --   -0.21845  -0.21144  -0.21107  -0.19711  -0.17533
  Beta  occ. eigenvalues --   -0.16284  -0.12945  -0.11398  -0.11048  -0.10421
  Beta  occ. eigenvalues --   -0.09436  -0.09272  -0.07120  -0.06035  -0.04108
  Beta  occ. eigenvalues --   -0.03325  -0.02876  -0.02343  -0.01561   0.02490
  Beta  occ. eigenvalues --    0.04461   0.04987   0.05408   0.12476
  Beta virt. eigenvalues --    0.17021   0.17175   0.19553   0.20242   0.20434
  Beta virt. eigenvalues --    0.20718   0.21684   0.23422   0.23841   0.24283
  Beta virt. eigenvalues --    0.24855   0.25013   0.26000   0.26178   0.26261

 Mulliken charges and spin densities:
               1          2
     1  C   -0.212954   0.000000
     2  O   -0.140154   0.000000
     3  C   -0.425495  -0.000000
     4  C    1.299865   0.000000
     5  Br  -0.315253  -0.000000
     6  C   -1.107444   0.000000
     7  O   -0.435679  -0.000000
     8  C    1.300604  -0.000000
     9  C   -0.426439  -0.000000
    10  O   -0.139930   0.000000
    11  C   -0.212870   0.000000
    12  C   -0.891125   0.000000
    13  O   -0.556745  -0.000000
    14  Br  -0.315429   0.000000
    15  H    0.050103  -0.000000
    16  H    0.047660   0.000000
    17  H    0.191835   0.000000
    18  H    0.047434   0.000000
    19  H    0.192110  -0.000000
    20  H    0.049906   0.000000
 Sum of Mulliken charges =  -2.00000   0.00000

 Dipole moment (field-independent basis, Debye):
    X=              1.3331    Y=            -11.6187    Z=              0.1082  Tot=             11.6955
 Quadrupole moment (field-independent basis, Debye-Ang):
   XX=           -152.3681   YY=           -186.1472   ZZ=           -121.9367
   XY=              4.7471   XZ=            -12.8505   YZ=             -4.3685

  Exact polarizability: 324.585   8.591 238.889  22.982   8.939 131.986
 Approx polarizability: 397.811   2.544 355.503  38.296  13.774 198.309

                      1                      2                      3
                      A                      A                      A
 Frequencies --     56.7838                69.8523                85.5696
 Red. masses --      5.4735                12.7837                 3.5683
 Frc consts  --      0.0104                 0.0368                 0.0154
 IR Inten    --      0.2823                 7.4433                 0.2458

                      4                      5                      6
                      A                      A                      A
 Frequencies --     94.7905               104.3727               129.9245
 Red. masses --      5.0036                 3.4047                11.9994
 Frc consts  --      0.0265                 0.0219                 0.1193
 IR Inten    --      2.6657                 1.5887                10.2073

                      7                      8                      9
                      A                      A                      A
 Frequencies --    163.5986               178.4842               182.4341
 Red. masses --      5.7169                 1.5669                 1.1011
 Frc consts  --      0.0902                 0.0294                 0.0216
 IR Inten    --      5.5955                 3.1597                 0.0942

                     10                     11                     12
                      A                      A                      A
 Frequencies --    209.8762               215.5643               229.6492
 Red. masses --      3.9256                 3.1950                12.7295
 Frc consts  --      0.1019                 0.0875                 0.3955
 IR Inten    --      0.9840                 3.2744                 2.0790

                     13                     14                     15
                      A                      A                      A
 Frequencies --    233.8754               276.9024               346.1452
 Red. masses --     14.1334                 7.5585                 9.2484
 Frc consts  --      0.4555                 0.3415                 0.6529
 IR Inten    --      0.5753                 1.1446                 1.4387

                     16                     17                     18
                      A                      A                      A
 Frequencies --    348.2577               356.0914               396.0748
 Red. masses --     10.5100                 9.3592                 6.8908
 Frc consts  --      0.7510                 0.6992                 0.6369
 IR Inten    --      5.1948                 1.3051                 1.1131

                     19                     20                     21
                      A                      A                      A
 Frequencies --    426.2283               471.8029               550.8379
 Red. masses --      5.7620                11.5606                 9.8700
 Frc consts  --      0.6167                 1.5162                 1.7645
 IR Inten    --      1.3143                 0.4843                 7.6318

                     22                     23                     24
                      A                      A                      A
 Frequencies --    637.5410               653.0600               706.9496
 Red. masses --     11.2926                 6.8275                12.1548
 Frc consts  --      2.7043                 1.7156                 3.5791
 IR Inten    --     68.8983                 3.3775                 2.4943

                     25                     26                     27
                      A                      A                      A
 Frequencies --    734.3650               762.5895               852.9965
 Red. masses --     11.7342                 9.6906                12.5941
 Frc consts  --      3.7284                 3.3203                 5.3990
 IR Inten    --      0.6342                23.7845               205.3235

                     28                     29                     30
                      A                      A                      A
 Frequencies --    942.2382              1004.4983              1080.2901
 Red. masses --      5.9670                 8.3606                11.1802
 Frc consts  --      3.1213                 4.9703                 7.6874
 IR Inten    --     13.7207                 2.3138                36.6033

                     31                     32                     33
                      A                      A                      A
 Frequencies --   1107.3776              1119.6097              1163.5962
 Red. masses --     10.4914                 9.9108                 1.2705
 Frc consts  --      7.5801                 7.3197                 1.0135
 IR Inten    --     42.4548               485.1457                10.1237

                     34                     35                     36
                      A                      A                      A
 Frequencies --   1164.0769              1187.0933              1220.0089
 Red. masses --      1.2935                 2.2257                 1.4958
 Frc consts  --      1.0327                 1.8480                 1.3117
 IR Inten    --     19.7192                13.9098                21.0775

                     37                     38                     39
                      A                      A                      A
 Frequencies --   1235.9790              1353.0483              1390.8214
 Red. masses --      2.6695                11.2553                 6.6046
 Frc consts  --      2.4027                12.1404                 7.5273
 IR Inten    --      2.4345                 1.3529               360.8207

                     40                     41                     42
                      A                      A                      A
 Frequencies --   1403.4331              1421.6789              1450.3323
 Red. masses --      1.9454                 1.6509                 1.6160
 Frc consts  --      2.2576                 1.9659                 2.0027
 IR Inten    --      3.5743                94.2276                 1.6950

                     43                     44                     45
                      A                      A                      A
 Frequencies --   1467.9175              1470.6161              1472.4213
 Red. masses --      3.0550                 1.1386                 1.2704
 Frc consts  --      3.8785                 1.4509                 1.6227
 IR Inten    --    459.4225                33.5173                 0.4585

                     46                     47                     48
                      A                      A                      A
 Frequencies --   1516.9871              1517.0945              1583.8619
 Red. masses --      1.0565                 1.0555                10.2446
 Frc consts  --      1.4324                 1.4314                15.1419
 IR Inten    --      2.2520                 3.8366                74.9024

                     49                     50                     51
                      A                      A                      A
 Frequencies --   2938.9990              2940.3671              3010.6027
 Red. masses --      1.0430                 1.0435                 1.0868
 Frc consts  --      5.3078                 5.3156                 5.8037
 IR Inten    --    376.8049                44.2820               151.7640

                     52                     53                     54
                      A                      A                      A
 Frequencies --   3011.4267              3054.5781              3055.3297
 Red. masses --      1.0863                 1.1043                 1.1043
 Frc consts  --      5.8044                 6.0707                 6.0736
 IR Inten    --    145.8197                44.6445                 1.3493

 - Thermochemistry -
 -------------------
 Temperature   298.150 Kelvin.  Pressure   1.00000 Atm.
 Atom     1 has atomic number  6 and mass  12.00000

 Molecular mass:   323.86328 amu.
 Principal axes and moments of inertia in atomic units:
                           1         2         3
     Eigenvalues --  3339.575096521.914369620.39086
           X            0.96448  -0.11400  -0.23829
           Y            0.09624   0.99173  -0.08492
           Z            0.24600   0.05897   0.96747
 This molecule is an asymmetric top.
 Rotational symmetry number  1.
 Warning -- assumption of classical behavior for rotation
           may cause significant error
 Rotational temperatures (Kelvin)      0.02594     0.01328     0.00900
 Rotational constants (GHZ):           0.54041     0.27672     0.18760
 Zero-point vibrational energy     327531.0 (Joules/Mol)
                                   78.28178 (Kcal/Mol)
 Warning -- explicit consideration of  21 degrees of freedom as
           vibrations may cause significant error
 Vibrational temperatures:     81.70   100.50   123.12   136.38   150.17
          (Kelvin)            186.93   235.38   256.80   262.48   301.97
                              310.15   330.41   336.49   398.40   498.03
                              501.07   512.34   569.86   613.25   678.82
                              792.53   917.28   939.61  1017.14  1056.59
                             1097.20  1227.27  1355.67  1445.25  1554.30
                             1593.27  1610.87  1674.16  1674.85  1707.96
                             1755.32  1778.30  1946.73  2001.08  2019.23
                             2045.48  2086.70  2112.01  2115.89  2118.49
                             2182.61  2182.76  2278.82  4228.56  4230.53
                             4331.59  4332.77  4394.86  4395.94

 Zero-point correction=                           0.124750 (Hartree/Particle)
 Thermal correction to Energy=                    0.139533
 Thermal correction to Enthalpy=                  0.140478
 Thermal correction to Gibbs Free Energy=         0.081142
 Sum of electronic and zero-point Energies=          -5757.638709
 Sum of electronic and thermal Energies=             -5757.623925
 Sum of electronic and thermal Enthalpies=           -5757.622981
 Sum of electronic and thermal Free Energies=        -5757.682317

                     E (Thermal)             CV                S
                      KCal/Mol        Cal/Mol-Kelvin    Cal/Mol-Kelvin
 Total                   87.559             50.726            124.882
 Electronic               0.000              0.000              0.000
 Translational            0.889              2.981             43.221
 Rotational               0.889              2.981             33.704
 Vibrational             85.781             44.764             47.957
 Vibration     1          0.596              1.975              4.566
 Vibration     2          0.598              1.968              4.158
 Vibration     3          0.601              1.959              3.759
 Vibration     4          0.603              1.953              3.559
 Vibration     5          0.605              1.946              3.371
 Vibration     6          0.612              1.923              2.947
 Vibration     7          0.623              1.887              2.508
 Vibration     8          0.629              1.869              2.344
 Vibration     9          0.630              1.864              2.303
 Vibration    10          0.642              1.826              2.045
 Vibration    11          0.645              1.817              1.996
 Vibration    12          0.652              1.796              1.882
 Vibration    13          0.654              1.789              1.849
 Vibration    14          0.678              1.716              1.553
 Vibration    15          0.724              1.583              1.184
 Vibration    16          0.726              1.579              1.174
 Vibration    17          0.732              1.563              1.139
 Vibration    18          0.763              1.479              0.977
 Vibration    19          0.788              1.413              0.871
 Vibration    20          0.829              1.313              0.733
 Vibration    21          0.906              1.138              0.542

                           ! Non-Optimized Parameters !
 Normal termination of Gaussian 16 at Sun Dec 17 22:06:09 2023.
