 Gaussian 16, Revision A.03,
 Gaussian 16:  ES64L-G16RevA.03 25-Dec-2016

 ----------------------------------------------------------------------
 #P UB3LYP/6-311++G(d,p) nosym opt freq SCRF=(PCM,Solvent=n,n-DiMethylF
 ormamide)
 ----------------------------------------------------------------------

 -------
 Reduced
 -------
 Symbolic Z-matrix:
 Charge = -2 Multiplicity = 1

 SCF Done:  E(UB3LYP) =  -767.075427092     A.U. after   17 cycles
 SCF Done:  E(UB3LYP) =  -767.077115777     A.U. after   14 cycles
 SCF Done:  E(UB3LYP) =  -767.077499204     A.U. after   14 cycles
 SCF Done:  E(UB3LYP) =  -767.077668202     A.U. after   13 cycles
 SCF Done:  E(UB3LYP) =  -767.077723213     A.U. after   11 cycles
 SCF Done:  E(UB3LYP) =  -767.077734796     A.U. after   12 cycles
 SCF Done:  E(UB3LYP) =  -767.077737832     A.U. after   11 cycles
 SCF Done:  E(UB3LYP) =  -767.077739097     A.U. after   10 cycles
 SCF Done:  E(UB3LYP) =  -767.077740159     A.U. after   10 cycles
 SCF Done:  E(UB3LYP) =  -767.077740525     A.U. after   10 cycles
 SCF Done:  E(UB3LYP) =  -767.077811101     A.U. after   10 cycles
 SCF Done:  E(UB3LYP) =  -767.077813502     A.U. after   10 cycles
 SCF Done:  E(UB3LYP) =  -767.077708727     A.U. after   13 cycles
 SCF Done:  E(UB3LYP) =  -767.077807864     A.U. after   12 cycles
 SCF Done:  E(UB3LYP) =  -767.077820963     A.U. after   12 cycles
 SCF Done:  E(UB3LYP) =  -767.077822147     A.U. after   10 cycles
 SCF Done:  E(UB3LYP) =  -767.077822821     A.U. after    9 cycles
 SCF Done:  E(UB3LYP) =  -767.077823435     A.U. after   10 cycles
 SCF Done:  E(UB3LYP) =  -767.077823501     A.U. after    8 cycles
 Optimization completed.
    -- Stationary point found.
 Normal termination of Gaussian 16 at Sat Feb 10 12:51:46 2024.

 ----------------------------------------------------------------------
 #P Geom=AllCheck Guess=TCheck SCRF=Check GenChk UB3LYP/6-311++G(d,p) F
 req
 ----------------------------------------------------------------------

 Structure from the checkpoint file:  "042-an.chk"
 -------
 Reduced
 -------
 Charge = -2 Multiplicity = 1

                          Input orientation:
 ---------------------------------------------------------------------
 Center     Atomic      Atomic             Coordinates (Angstroms)
 Number     Number       Type             X           Y           Z
 ---------------------------------------------------------------------
      1          6           0        1.026913    1.526552   -1.181702
      2          6           0       -0.180460    0.798158   -1.271579
      3          6           0       -0.437283   -0.412188   -0.595867
      4          6           0        0.540931   -0.994351    0.270801
      5          6           0        1.776271   -0.260841    0.374206
      6          6           0        2.012874    0.941972   -0.316555
      7          6           0        3.338353    1.653503   -0.155001
      8          6           0        2.854365   -0.823655    1.275351
      9          8           0        1.224453    2.655097   -1.842867
     10          8           0        0.339059   -2.109974    0.936226
     11          1           0       -0.959160    1.205055   -1.917230
     12          1           0        3.537776    1.929554    0.888778
     13          1           0        3.339738    2.564094   -0.754425
     14          1           0        4.185921    1.032079   -0.472946
     15          1           0        2.496974   -1.743358    1.738573
     16          1           0        3.137096   -0.123988    2.073043
     17          1           0        3.778979   -1.050416    0.727755
     18          6           0       -1.777030   -1.048667   -0.843857
     19          6           0       -1.777230   -2.519234   -1.248389
     20          8           0       -2.613298   -0.912916    0.400262
     21          6           0       -3.924169   -0.723607    0.278930
     22          6           0       -4.585871   -0.534695    1.624029
     23          8           0       -4.525885   -0.680598   -0.781879
     24          1           0       -2.306755   -0.470281   -1.600769
     25          1           0       -2.798089   -2.888664   -1.379831
     26          1           0       -1.253242   -3.109578   -0.498768
     27          1           0       -1.255508   -2.623521   -2.204756
     28          1           0       -4.169157   -1.218804    2.363963
     29          1           0       -5.660665   -0.683695    1.533544
     30          1           0       -4.398851    0.485868    1.970411
 ---------------------------------------------------------------------

 SCF Done:  E(UB3LYP) =  -767.077823501     A.U. after    2 cycles

 Alpha  occ. eigenvalues --  -19.14999 -19.10419 -19.00403 -19.00280 -10.29690
 Alpha  occ. eigenvalues --  -10.21132 -10.17048 -10.16057 -10.15657 -10.14168
 Alpha  occ. eigenvalues --  -10.13269 -10.13132 -10.12402 -10.12227 -10.12209
 Alpha  occ. eigenvalues --  -10.11343  -1.09169  -1.00686  -0.91176  -0.90543
 Alpha  occ. eigenvalues --   -0.79091  -0.77233  -0.73658  -0.71233  -0.69197
 Alpha  occ. eigenvalues --   -0.64562  -0.62456  -0.60581  -0.54715  -0.52975
 Alpha  occ. eigenvalues --   -0.49962  -0.48839  -0.46701  -0.46143  -0.44286
 Alpha  occ. eigenvalues --   -0.42185  -0.40760  -0.40437  -0.40271  -0.40011
 Alpha  occ. eigenvalues --   -0.38233  -0.37335  -0.36861  -0.35816  -0.35677
 Alpha  occ. eigenvalues --   -0.35129  -0.34721  -0.34157  -0.32858  -0.32164
 Alpha  occ. eigenvalues --   -0.30590  -0.29891  -0.29364  -0.29048  -0.27532
 Alpha  occ. eigenvalues --   -0.21261  -0.19491  -0.18612  -0.18088  -0.11181
 Alpha virt. eigenvalues --   -0.00251   0.00504   0.00567   0.01610   0.01839
 Alpha virt. eigenvalues --    0.02390   0.02901   0.03325   0.03690   0.04178
 Alpha virt. eigenvalues --    0.04828   0.05184   0.05427   0.05828   0.06080

  Beta  occ. eigenvalues --  -19.14999 -19.10419 -19.00403 -19.00280 -10.29690
  Beta  occ. eigenvalues --  -10.21132 -10.17048 -10.16057 -10.15657 -10.14168
  Beta  occ. eigenvalues --  -10.13269 -10.13132 -10.12402 -10.12227 -10.12209
  Beta  occ. eigenvalues --  -10.11343  -1.09169  -1.00686  -0.91176  -0.90543
  Beta  occ. eigenvalues --   -0.79091  -0.77233  -0.73658  -0.71233  -0.69197
  Beta  occ. eigenvalues --   -0.64562  -0.62456  -0.60581  -0.54715  -0.52975
  Beta  occ. eigenvalues --   -0.49962  -0.48839  -0.46701  -0.46143  -0.44286
  Beta  occ. eigenvalues --   -0.42185  -0.40760  -0.40437  -0.40271  -0.40011
  Beta  occ. eigenvalues --   -0.38233  -0.37335  -0.36861  -0.35816  -0.35677
  Beta  occ. eigenvalues --   -0.35129  -0.34721  -0.34157  -0.32858  -0.32164
  Beta  occ. eigenvalues --   -0.30590  -0.29891  -0.29364  -0.29048  -0.27532
  Beta  occ. eigenvalues --   -0.21261  -0.19491  -0.18612  -0.18088  -0.11181
  Beta virt. eigenvalues --   -0.00251   0.00504   0.00567   0.01610   0.01839
  Beta virt. eigenvalues --    0.02390   0.02901   0.03325   0.03690   0.04178
  Beta virt. eigenvalues --    0.04828   0.05184   0.05427   0.05828   0.06080

 Mulliken charges and spin densities:
               1          2
     1  C   -0.819684   0.000000
     2  C   -0.220454  -0.000000
     3  C    1.008773   0.000000
     4  C   -0.809874  -0.000000
     5  C    0.272352   0.000000
     6  C    0.634764  -0.000000
     7  C   -0.436867  -0.000000
     8  C   -0.575099   0.000000
     9  O   -0.762820  -0.000000
    10  O   -0.708432  -0.000000
    11  H    0.115522  -0.000000
    12  H    0.128118  -0.000000
    13  H    0.171307  -0.000000
    14  H    0.129671  -0.000000
    15  H    0.170954  -0.000000
    16  H    0.124151   0.000000
    17  H    0.126840   0.000000
    18  C   -0.611888  -0.000000
    19  C   -0.571119  -0.000000
    20  O    0.093272  -0.000000
    21  C    0.298584  -0.000000
    22  C   -0.572066  -0.000000
    23  O   -0.380534   0.000000
    24  H    0.185688   0.000000
    25  H    0.146429  -0.000000
    26  H    0.201426   0.000000
    27  H    0.132694  -0.000000
    28  H    0.170859   0.000000
    29  H    0.167706   0.000000
    30  H    0.189727   0.000000
 Sum of Mulliken charges =  -2.00000  -0.00000

 Dipole moment (field-independent basis, Debye):
    X=             -3.4779    Y=             -2.9428    Z=              6.3901  Tot=              7.8479
 Quadrupole moment (field-independent basis, Debye-Ang):
   XX=           -133.2057   YY=           -150.9608   ZZ=           -123.2487
   XY=            -13.6508   XZ=             -4.6818   YZ=             27.9771

  Exact polarizability: 291.999  23.280 249.597  25.535 -40.527 222.775
 Approx polarizability: 298.415  21.443 271.734  32.692 -48.578 244.390

                      1                      2                      3
                      A                      A                      A
 Frequencies --     31.6283                42.8463                55.0900
 Red. masses --      6.0308                 3.0373                 3.4231
 Frc consts  --      0.0036                 0.0033                 0.0061
 IR Inten    --      0.7727                 4.6934                 8.4630

                      4                      5                      6
                      A                      A                      A
 Frequencies --     60.3188                73.4273               107.0172
 Red. masses --      1.1894                 1.1336                 3.5105
 Frc consts  --      0.0025                 0.0036                 0.0237
 IR Inten    --      0.1228                 0.6371                12.2609

                      7                      8                      9
                      A                      A                      A
 Frequencies --    132.1959               141.9442               146.3639
 Red. masses --      4.7046                 1.6936                 1.5971
 Frc consts  --      0.0484                 0.0201                 0.0202
 IR Inten    --     24.2126                 0.1807                 0.2473

                     10                     11                     12
                      A                      A                      A
 Frequencies --    187.7206               204.5922               228.8596
 Red. masses --      3.7577                 3.4982                 1.4614
 Frc consts  --      0.0780                 0.0863                 0.0451
 IR Inten    --     10.1351                 6.3087                 2.5447

                     13                     14                     15
                      A                      A                      A
 Frequencies --    241.2105               272.1372               300.0000
 Red. masses --      2.7154                 4.1481                 3.5788
 Frc consts  --      0.0931                 0.1810                 0.1898
 IR Inten    --      0.7549                 3.9486                 2.1874

                     16                     17                     18
                      A                      A                      A
 Frequencies --    310.3780               321.0935               370.1866
 Red. masses --      3.3518                 2.6166                 4.6788
 Frc consts  --      0.1902                 0.1589                 0.3778
 IR Inten    --     11.2898                 5.3044                 7.6932

                     19                     20                     21
                      A                      A                      A
 Frequencies --    379.8853               448.3235               475.8160
 Red. masses --      7.9484                 4.6060                 4.2899
 Frc consts  --      0.6758                 0.5454                 0.5722
 IR Inten    --     26.4300                 4.2541                16.4154

                     22                     23                     24
                      A                      A                      A
 Frequencies --    488.5025               494.0779               555.9886
 Red. masses --      4.9400                 5.0531                 3.7453
 Frc consts  --      0.6946                 0.7268                 0.6821
 IR Inten    --     21.4242                 2.6618                 5.5300

                     25                     26                     27
                      A                      A                      A
 Frequencies --    577.8408               618.7028               628.6735
 Red. masses --      4.7935                 2.9538                 3.8977
 Frc consts  --      0.9430                 0.6662                 0.9076
 IR Inten    --     16.7515                31.2228                26.8540

                     28                     29                     30
                      A                      A                      A
 Frequencies --    661.8448               687.1672               721.7459
 Red. masses --      3.8195                 3.5591                 4.6356
 Frc consts  --      0.9858                 0.9902                 1.4227
 IR Inten    --      7.3342                 5.2186               155.3625

                     31                     32                     33
                      A                      A                      A
 Frequencies --    762.4669               803.6129               840.2387
 Red. masses --      5.1520                 3.4405                 2.0631
 Frc consts  --      1.7647                 1.3091                 0.8582
 IR Inten    --      7.0750               156.2936                77.9896

                     34                     35                     36
                      A                      A                      A
 Frequencies --    845.7646               909.8939               935.5751
 Red. masses --      2.7236                 2.2412                 3.9084
 Frc consts  --      1.1479                 1.0932                 2.0156
 IR Inten    --     85.0297                13.0192                59.9417

                     37                     38                     39
                      A                      A                      A
 Frequencies --    957.2485              1019.1928              1023.7265
 Red. masses --      1.9026                 2.5148                 1.6308
 Frc consts  --      1.0272                 1.5391                 1.0070
 IR Inten    --     18.0300                37.7204               204.0632

                     40                     41                     42
                      A                      A                      A
 Frequencies --   1025.6404              1052.8637              1059.4378
 Red. masses --      1.4123                 1.5337                 1.8157
 Frc consts  --      0.8754                 1.0017                 1.2007
 IR Inten    --      1.8749                 0.4921                19.4888

                     43                     44                     45
                      A                      A                      A
 Frequencies --   1063.6849              1078.6498              1101.2370
 Red. masses --      1.8222                 2.5253                 2.4391
 Frc consts  --      1.2147                 1.7311                 1.7428
 IR Inten    --    156.5917               261.5644                60.7564

                     46                     47                     48
                      A                      A                      A
 Frequencies --   1151.2772              1198.7685              1218.8640
 Red. masses --      3.4517                 1.6826                 4.2306
 Frc consts  --      2.6956                 1.4246                 3.7031
 IR Inten    --    182.8920               136.2561               108.1013

                     49                     50                     51
                      A                      A                      A
 Frequencies --   1271.4925              1283.1962              1308.2007
 Red. masses --      3.6267                 5.8771                 3.1070
 Frc consts  --      3.4545                 5.7016                 3.1328
 IR Inten    --    669.6555               232.3322               578.5728

                     52                     53                     54
                      A                      A                      A
 Frequencies --   1346.4810              1362.1122              1366.8977
 Red. masses --      2.8688                 1.2075                 1.3438
 Frc consts  --      3.0645                 1.3200                 1.4794
 IR Inten    --    158.6082                 3.6090                33.8734

                     55                     56                     57
                      A                      A                      A
 Frequencies --   1374.7887              1382.2445              1392.1839
 Red. masses --      1.2902                 1.3677                 1.3709
 Frc consts  --      1.4367                 1.5396                 1.5655
 IR Inten    --      3.4470                23.5995               105.5416

                     58                     59                     60
                      A                      A                      A
 Frequencies --   1408.9577              1431.8362              1459.4514
 Red. masses --      2.3985                 4.2108                 1.0586
 Frc consts  --      2.8053                 5.0863                 1.3285
 IR Inten    --    855.1693                85.3256                24.2459

                     61                     62                     63
                      A                      A                      A
 Frequencies --   1463.3462              1469.3162              1470.9660
 Red. masses --      1.2101                 1.0550                 1.0788
 Frc consts  --      1.5267                 1.3419                 1.3753
 IR Inten    --    149.3333                19.4916                35.9250

                     64                     65                     66
                      A                      A                      A
 Frequencies --   1472.0365              1482.0402              1495.4151
 Red. masses --      1.0847                 1.0476                 1.0474
 Frc consts  --      1.3849                 1.3557                 1.3800
 IR Inten    --     32.1266                 0.1455                16.9035

                     67                     68                     69
                      A                      A                      A
 Frequencies --   1496.2930              1512.9276              1595.9552
 Red. masses --      1.0576                 4.0479                 7.0013
 Frc consts  --      1.3951                 5.4591                10.5069
 IR Inten    --      5.8576                16.7729                14.0184

                     70                     71                     72
                      A                      A                      A
 Frequencies --   1704.0109              2979.4587              2982.8265
 Red. masses --     10.4519                 1.0419                 1.0423
 Frc consts  --     17.8810                 5.4496                 5.4638
 IR Inten    --    676.1610               148.2359               190.8087

                     73                     74                     75
                      A                      A                      A
 Frequencies --   3006.5691              3010.8548              3024.6699
 Red. masses --      1.0986                 1.0988                 1.0378
 Frc consts  --      5.8510                 5.8689                 5.5938
 IR Inten    --    128.7877                30.7895                63.0580

                     76                     77                     78
                      A                      A                      A
 Frequencies --   3045.4385              3079.9537              3082.8691
 Red. masses --      1.0385                 1.0999                 1.0874
 Frc consts  --      5.6746                 6.1472                 6.0889
 IR Inten    --      4.9594                64.9695                16.3946

                     79                     80                     81
                      A                      A                      A
 Frequencies --   3092.2216              3098.7590              3107.7377
 Red. masses --      1.0862                 1.0938                 1.0923
 Frc consts  --      6.1192                 6.1883                 6.2155
 IR Inten    --    118.9397                17.6329                24.6821

                     82                     83                     84
                      A                      A                      A
 Frequencies --   3110.8764              3137.8249              3145.8672
 Red. masses --      1.0966                 1.0991                 1.1048
 Frc consts  --      6.2526                 6.3761                 6.4417
 IR Inten    --     11.5909                10.8327                18.4455

 - Thermochemistry -
 -------------------
 Temperature   298.150 Kelvin.  Pressure   1.00000 Atm.
 Atom     1 has atomic number  6 and mass  12.00000

 Molecular mass:   222.08921 amu.
 Principal axes and moments of inertia in atomic units:
                           1         2         3
     Eigenvalues --  1989.631966024.543276925.28570
           X            0.95031  -0.28757  -0.11924
           Y            0.30550   0.78785   0.53475
           Z           -0.05983  -0.54461   0.83655
 This molecule is an asymmetric top.
 Rotational symmetry number  1.
 Warning -- assumption of classical behavior for rotation
           may cause significant error
 Rotational temperatures (Kelvin)      0.04353     0.01438     0.01251
 Rotational constants (GHZ):           0.90707     0.29956     0.26060
 Zero-point vibrational energy     612905.5 (Joules/Mol)
                                  146.48793 (Kcal/Mol)
 Warning -- explicit consideration of  26 degrees of freedom as
           vibrations may cause significant error
 Vibrational temperatures:     45.51    61.65    79.26    86.79   105.65
          (Kelvin)            153.97   190.20   204.23   210.59   270.09
                              294.36   329.28   347.05   391.54   431.63
                              446.56   461.98   532.62   546.57   645.04
                              684.59   702.85   710.87   799.94   831.38
                              890.18   904.52   952.25   988.68  1038.43
                             1097.02  1156.22  1208.92  1216.87  1309.13
                             1346.08  1377.27  1466.39  1472.91  1475.67
                             1514.84  1524.29  1530.41  1551.94  1584.43
                             1656.43  1724.76  1753.67  1829.39  1846.23
                             1882.21  1937.29  1959.78  1966.66  1978.01
                             1988.74  2003.04  2027.18  2060.09  2099.83
                             2105.43  2114.02  2116.39  2117.93  2132.33
                             2151.57  2152.83  2176.77  2296.22  2451.69
                             4286.78  4291.62  4325.78  4331.95  4351.83
                             4381.71  4431.37  4435.56  4449.02  4458.42
                             4471.34  4475.86  4514.63  4526.20

 Zero-point correction=                           0.233443 (Hartree/Particle)
 Thermal correction to Energy=                    0.250488
 Thermal correction to Enthalpy=                  0.251432
 Thermal correction to Gibbs Free Energy=         0.187598
 Sum of electronic and zero-point Energies=           -766.844380
 Sum of electronic and thermal Energies=              -766.827335
 Sum of electronic and thermal Enthalpies=            -766.826391
 Sum of electronic and thermal Free Energies=         -766.890226

                     E (Thermal)             CV                S
                      KCal/Mol        Cal/Mol-Kelvin    Cal/Mol-Kelvin
 Total                  157.184             61.736            134.351
 Electronic               0.000              0.000              0.000
 Translational            0.889              2.981             42.096
 Rotational               0.889              2.981             32.784
 Vibrational            155.406             55.775             59.470
 Vibration     1          0.594              1.983              5.725
 Vibration     2          0.595              1.980              5.123
 Vibration     3          0.596              1.976              4.626
 Vibration     4          0.597              1.973              4.447
 Vibration     5          0.599              1.967              4.059
 Vibration     6          0.606              1.944              3.322
 Vibration     7          0.612              1.921              2.914
 Vibration     8          0.615              1.911              2.777
 Vibration     9          0.617              1.907              2.719
 Vibration    10          0.632              1.857              2.250
 Vibration    11          0.640              1.833              2.091
 Vibration    12          0.652              1.797              1.888
 Vibration    13          0.658              1.777              1.794
 Vibration    14          0.675              1.725              1.583
 Vibration    15          0.693              1.674              1.417
 Vibration    16          0.699              1.654              1.360
 Vibration    17          0.707              1.633              1.305
 Vibration    18          0.742              1.533              1.079
 Vibration    19          0.750              1.513              1.040
 Vibration    20          0.807              1.365              0.801
 Vibration    21          0.832              1.304              0.721
 Vibration    22          0.844              1.276              0.688
 Vibration    23          0.850              1.263              0.673
 Vibration    24          0.911              1.127              0.532
 Vibration    25          0.934              1.079              0.489
 Vibration    26          0.979              0.992              0.419

 Optimization completed.
    -- Stationary point found.
 Normal termination of Gaussian 16 at Sat Feb 10 13:39:30 2024.
