 Gaussian 16, Revision A.03,
 Gaussian 16:  ES64L-G16RevA.03 25-Dec-2016

 ----------------------------------------------------------------------
 #P UB3LYP/6-311++G(d,p) nosym opt freq SCRF=(PCM,Solvent=n,n-DiMethylF
 ormamide)
 ----------------------------------------------------------------------

 -------
 Radical
 -------
 Symbolic Z-matrix:
 Charge = -1 Multiplicity = 2

 SCF Done:  E(UB3LYP) =  -575.703563785     A.U. after   18 cycles
 SCF Done:  E(UB3LYP) =  -575.703816022     A.U. after   14 cycles
 SCF Done:  E(UB3LYP) =  -575.703849941     A.U. after   14 cycles
 SCF Done:  E(UB3LYP) =  -575.703850683     A.U. after   10 cycles
 Optimization completed.
    -- Stationary point found.
 Normal termination of Gaussian 16 at Sun Feb 11 15:37:20 2024.

 ----------------------------------------------------------------------
 #P Geom=AllCheck Guess=TCheck SCRF=Check GenChk UB3LYP/6-311++G(d,p) F
 req
 ----------------------------------------------------------------------

 Structure from the checkpoint file:  "343-rad.chk"
 -------
 Radical
 -------
 Charge = -1 Multiplicity = 2

                          Input orientation:
 ---------------------------------------------------------------------
 Center     Atomic      Atomic             Coordinates (Angstroms)
 Number     Number       Type             X           Y           Z
 ---------------------------------------------------------------------
      1          8           0        0.097021    2.961848    0.903920
      2          6           0        0.057290    1.743585    0.530323
      3          6           0        1.190007    0.844674    0.320425
      4          6           0        2.570306    1.064970    0.459396
      5          6           0        3.457061    0.025203    0.194710
      6          6           0        2.985970   -1.240424   -0.209376
      7          6           0        1.615415   -1.474307   -0.353212
      8          6           0        0.713879   -0.441979   -0.091993
      9          6           0       -0.740901   -0.375978   -0.151923
     10          6           0       -1.707568   -1.323386   -0.490341
     11          6           0       -3.058543   -0.965986   -0.458920
     12          6           0       -3.444869    0.338298   -0.089412
     13          6           0       -2.492451    1.294333    0.251686
     14          6           0       -1.131014    0.949932    0.225014
     15          1           0        2.940063    2.037576    0.769211
     16          1           0        4.525143    0.186941    0.299396
     17          1           0        3.693486   -2.037687   -0.410198
     18          1           0        1.263468   -2.453100   -0.665522
     19          1           0       -1.421181   -2.331131   -0.776458
     20          1           0       -3.816326   -1.696667   -0.720461
     21          1           0       -4.498915    0.596371   -0.071632
     22          1           0       -2.797343    2.296911    0.535367
 ---------------------------------------------------------------------

 SCF Done:  E(UB3LYP) =  -575.703850683     A.U. after    2 cycles

 Alpha  occ. eigenvalues --  -19.06367 -10.19994 -10.16611 -10.16611 -10.16402
 Alpha  occ. eigenvalues --  -10.16368 -10.16337 -10.16336 -10.16282 -10.16281
 Alpha  occ. eigenvalues --  -10.16221 -10.16220 -10.15290 -10.15289  -0.97584
 Alpha  occ. eigenvalues --   -0.86850  -0.83277  -0.78335  -0.74874  -0.73330
 Alpha  occ. eigenvalues --   -0.70227  -0.65114  -0.61601  -0.57778  -0.56253
 Alpha  occ. eigenvalues --   -0.54299  -0.49604  -0.48711  -0.45997  -0.43409
 Alpha  occ. eigenvalues --   -0.43383  -0.41902  -0.41232  -0.40709  -0.40545
 Alpha  occ. eigenvalues --   -0.39054  -0.35465  -0.35291  -0.34991  -0.34507
 Alpha  occ. eigenvalues --   -0.32851  -0.32233  -0.28403  -0.25524  -0.24864
 Alpha  occ. eigenvalues --   -0.22737  -0.20970  -0.12592
 Alpha virt. eigenvalues --   -0.03131  -0.00315  -0.00043   0.00579   0.01241
 Alpha virt. eigenvalues --    0.02396   0.02563   0.03088   0.04488   0.04656
 Alpha virt. eigenvalues --    0.04714   0.04868   0.05538   0.06551   0.07163

  Beta  occ. eigenvalues --  -19.05679 -10.19647 -10.16679 -10.16678 -10.16324
  Beta  occ. eigenvalues --  -10.16324 -10.16247 -10.16214 -10.16210 -10.16210
  Beta  occ. eigenvalues --  -10.16053 -10.16053 -10.15251 -10.15250  -0.96301
  Beta  occ. eigenvalues --   -0.86461  -0.83102  -0.77936  -0.74582  -0.73131
  Beta  occ. eigenvalues --   -0.70072  -0.64397  -0.61421  -0.57495  -0.56128
  Beta  occ. eigenvalues --   -0.53993  -0.49263  -0.48592  -0.45811  -0.43239
  Beta  occ. eigenvalues --   -0.43200  -0.41805  -0.41089  -0.40423  -0.39312
  Beta  occ. eigenvalues --   -0.38625  -0.35317  -0.35056  -0.34487  -0.32785
  Beta  occ. eigenvalues --   -0.32122  -0.32076  -0.27394  -0.24233  -0.23748
  Beta  occ. eigenvalues --   -0.22125  -0.20518
  Beta virt. eigenvalues --   -0.06250  -0.02866  -0.00302   0.00579   0.00957
  Beta virt. eigenvalues --    0.01249   0.02400   0.02566   0.03695   0.04644
  Beta virt. eigenvalues --    0.04732   0.04752   0.04879   0.06614   0.06628

 Mulliken charges and spin densities:
               1          2
     1  O   -0.567966   0.248360
     2  C   -0.225613   0.223461
     3  C    0.692951   0.026448
     4  C   -0.247229   0.098861
     5  C   -0.337033  -0.025512
     6  C   -0.338141   0.139269
     7  C   -0.506897  -0.059535
     8  C    0.018001   0.096390
     9  C    0.017394   0.096369
    10  C   -0.506824  -0.059533
    11  C   -0.338190   0.139304
    12  C   -0.337372  -0.025510
    13  C   -0.246937   0.098872
    14  C    0.692361   0.026466
    15  H    0.147631  -0.005783
    16  H    0.166300   0.000353
    17  H    0.176379  -0.010069
    18  H    0.125530   0.003649
    19  H    0.125533   0.003648
    20  H    0.176436  -0.010071
    21  H    0.166327   0.000352
    22  H    0.147358  -0.005788
 Sum of Mulliken charges =  -1.00000   1.00000

 Dipole moment (field-independent basis, Debye):
    X=             -0.2792    Y=             -8.5743    Z=             -2.6201  Tot=              8.9700
 Quadrupole moment (field-independent basis, Debye-Ang):
   XX=            -88.9906   YY=           -107.7536   ZZ=            -92.5276
   XY=             -0.6340   XZ=             -0.0920   YZ=             -5.1841

  Exact polarizability: 420.300  -8.749 268.282  13.685  43.428 136.460
 Approx polarizability: 447.137  -8.263 313.604  14.498  52.566 154.196

                      1                      2                      3
                      A                      A                      A
 Frequencies --     99.8649               134.8919               163.2896
 Red. masses --      4.6219                 3.7080                 6.7887
 Frc consts  --      0.0272                 0.0398                 0.1066
 IR Inten    --      4.9316                 0.0038                 2.4266

                      4                      5                      6
                      A                      A                      A
 Frequencies --    206.8718               274.9747               278.1298
 Red. masses --      4.6465                 9.3562                 4.9059
 Frc consts  --      0.1172                 0.4168                 0.2236
 IR Inten    --      4.7034                 6.9258                 0.0569

                      7                      8                      9
                      A                      A                      A
 Frequencies --    394.3788               419.7189               434.0659
 Red. masses --      4.2839                 6.5435                 3.0092
 Frc consts  --      0.3926                 0.6792                 0.3341
 IR Inten    --      0.7810                 0.6484                 0.9347

                     10                     11                     12
                      A                      A                      A
 Frequencies --    439.0960               513.1032               562.0870
 Red. masses --      3.5928                 5.6877                 8.4925
 Frc consts  --      0.4081                 0.8823                 1.5809
 IR Inten    --     11.8642                 7.4517                 6.6313

                     13                     14                     15
                      A                      A                      A
 Frequencies --    573.2527               626.7243               633.3869
 Red. masses --      3.6908                 7.0871                 4.4016
 Frc consts  --      0.7146                 1.6401                 1.0404
 IR Inten    --      0.0007                 1.9162                24.8919

                     16                     17                     18
                      A                      A                      A
 Frequencies --    652.0705               725.6407               725.7970
 Red. masses --      6.7613                 1.7690                 3.7173
 Frc consts  --      1.6938                 0.5488                 1.1537
 IR Inten    --      7.7202               167.8861                41.9194

                     19                     20                     21
                      A                      A                      A
 Frequencies --    733.5810               762.7290               770.3122
 Red. masses --      1.5980                 2.7603                 3.0505
 Frc consts  --      0.5067                 0.9461                 1.0665
 IR Inten    --      0.0391                 0.2416                45.9118

                     22                     23                     24
                      A                      A                      A
 Frequencies --    787.0904               854.9169               855.9997
 Red. masses --      6.1591                 1.3846                 1.3961
 Frc consts  --      2.2481                 0.5962                 0.6027
 IR Inten    --      5.0984                 0.6712                 0.2388

                     25                     26                     27
                      A                      A                      A
 Frequencies --    921.7359               940.4031               942.3587
 Red. masses --      6.9006                 1.3703                 1.3935
 Frc consts  --      3.4542                 0.7140                 0.7291
 IR Inten    --      9.2417                 6.4139                 0.7518

                     28                     29                     30
                      A                      A                      A
 Frequencies --    966.7039               968.3413               996.8621
 Red. masses --      1.2668                 1.2623                 6.6088
 Frc consts  --      0.6975                 0.6974                 3.8694
 IR Inten    --      0.0064                 0.0850               153.2302

                     31                     32                     33
                      A                      A                      A
 Frequencies --   1020.1612              1029.8061              1094.1543
 Red. masses --      2.2229                 1.8556                 2.5568
 Frc consts  --      1.3630                 1.1594                 1.8034
 IR Inten    --     15.4407                14.9774                25.5195

                     34                     35                     36
                      A                      A                      A
 Frequencies --   1102.6452              1149.2688              1161.2268
 Red. masses --      1.8771                 1.3969                 1.1575
 Frc consts  --      1.3447                 1.0870                 0.9196
 IR Inten    --     49.0097                19.9697                 0.9084

                     37                     38                     39
                      A                      A                      A
 Frequencies --   1173.4459              1212.1860              1224.2870
 Red. masses --      1.6762                 2.3603                 2.7498
 Frc consts  --      1.3599                 2.0434                 2.4284
 IR Inten    --      0.3994                81.0901                 3.7812

                     40                     41                     42
                      A                      A                      A
 Frequencies --   1305.9684              1318.1783              1342.8742
 Red. masses --      1.9132                 2.0197                 5.1941
 Frc consts  --      1.9225                 2.0677                 5.5187
 IR Inten    --     16.4955                42.4309                82.5406

                     43                     44                     45
                      A                      A                      A
 Frequencies --   1370.8417              1426.6297              1461.7940
 Red. masses --      3.9416                 2.8634                 2.2937
 Frc consts  --      4.3642                 3.4336                 2.8877
 IR Inten    --     35.9887               291.2167                61.1570

                     46                     47                     48
                      A                      A                      A
 Frequencies --   1481.4486              1482.7666              1551.6164
 Red. masses --      2.6470                 2.5840                 9.1276
 Frc consts  --      3.4228                 3.3472                12.9472
 IR Inten    --     57.9090                20.6180               640.5650

                     49                     50                     51
                      A                      A                      A
 Frequencies --   1571.7320              1574.1362              1592.3807
 Red. masses --      5.6276                 5.0225                 5.7796
 Frc consts  --      8.1909                 7.3325                 8.6346
 IR Inten    --     53.9148                 1.0491               142.4395

                     52                     53                     54
                      A                      A                      A
 Frequencies --   1610.7828              3145.0511              3146.0036
 Red. masses --      5.8643                 1.0852                 1.0848
 Frc consts  --      8.9647                 6.3243                 6.3256
 IR Inten    --     19.6908                 0.4514                14.1952

                     55                     56                     57
                      A                      A                      A
 Frequencies --   3149.8445              3151.5402              3162.0796
 Red. masses --      1.0874                 1.0879                 1.0923
 Frc consts  --      6.3564                 6.3660                 6.4347
 IR Inten    --      2.4855                 4.3335                43.9205

                     58                     59                     60
                      A                      A                      A
 Frequencies --   3162.6642              3175.4397              3176.2225
 Red. masses --      1.0924                 1.0962                 1.0961
 Frc consts  --      6.4381                 6.5126                 6.5150
 IR Inten    --     97.5658               115.5712                18.7481

 - Thermochemistry -
 -------------------
 Temperature   298.150 Kelvin.  Pressure   1.00000 Atm.
 Atom     1 has atomic number  8 and mass  15.99491

 Molecular mass:   180.05751 amu.
 Principal axes and moments of inertia in atomic units:
                           1         2         3
     Eigenvalues --  1270.189443081.837514352.01950
           X            0.99813   0.03145  -0.05245
           Y           -0.04529   0.95645  -0.28836
           Z            0.04109   0.29019   0.95609
 This molecule is an asymmetric top.
 Rotational symmetry number  1.
 Warning -- assumption of classical behavior for rotation
           may cause significant error
 Rotational temperatures (Kelvin)      0.06819     0.02810     0.01990
 Rotational constants (GHZ):           1.42084     0.58561     0.41469
 Zero-point vibrational energy     435952.4 (Joules/Mol)
                                  104.19513 (Kcal/Mol)
 Warning -- explicit consideration of  13 degrees of freedom as
           vibrations may cause significant error
 Vibrational temperatures:    143.68   194.08   234.94   297.64   395.63
          (Kelvin)            400.17   567.42   603.88   624.52   631.76
                              738.24   808.72   824.78   901.72   911.30
                              938.18  1044.04  1044.26  1055.46  1097.40
                             1108.31  1132.45  1230.03  1231.59  1326.17
                             1353.03  1355.84  1390.87  1393.23  1434.26
                             1467.78  1481.66  1574.24  1586.46  1653.54
                             1670.75  1688.33  1744.07  1761.48  1879.00
                             1896.56  1932.10  1972.34  2052.60  2103.20
                             2131.47  2133.37  2232.43  2261.37  2264.83
                             2291.08  2317.56  4525.03  4526.40  4531.92
                             4534.36  4549.53  4550.37  4568.75  4569.88

 Zero-point correction=                           0.166046 (Hartree/Particle)
 Thermal correction to Energy=                    0.175746
 Thermal correction to Enthalpy=                  0.176691
 Thermal correction to Gibbs Free Energy=         0.130281
 Sum of electronic and zero-point Energies=           -575.537805
 Sum of electronic and thermal Energies=              -575.528104
 Sum of electronic and thermal Enthalpies=            -575.527160
 Sum of electronic and thermal Free Energies=         -575.573570

                     E (Thermal)             CV                S
                      KCal/Mol        Cal/Mol-Kelvin    Cal/Mol-Kelvin
 Total                  110.282             40.571             97.678
 Electronic               0.000              0.000              1.377
 Translational            0.889              2.981             41.471
 Rotational               0.889              2.981             31.211
 Vibrational            108.505             34.609             23.618
 Vibration     1          0.604              1.949              3.457
 Vibration     2          0.613              1.918              2.875
 Vibration     3          0.623              1.887              2.511
 Vibration     4          0.641              1.830              2.071
 Vibration     5          0.677              1.720              1.565
 Vibration     6          0.679              1.714              1.545
 Vibration     7          0.761              1.482              0.984
 Vibration     8          0.782              1.427              0.893
 Vibration     9          0.795              1.396              0.845
 Vibration    10          0.799              1.385              0.829
 Vibration    11          0.868              1.221              0.626
 Vibration    12          0.918              1.113              0.520
 Vibration    13          0.930              1.089              0.498

 Optimization completed.
    -- Stationary point found.
 Normal termination of Gaussian 16 at Sun Feb 11 15:54:01 2024.
