 Q-Chem 5.4, Q-Chem, Inc., Pleasanton, CA (2021)
 Q-Chem 5.4.0 for Intel X86 EM64T Linux

User input:
--------------------------------------------------------------
$molecule
-1 2
C                 -1.6548570000      2.8517870000     -0.7047740000
C                 -2.8650490000      2.1826710000     -0.6994420000
C                 -2.8897820000      0.7879440000     -0.5010050000
C                 -0.4333050000      2.1771120000     -0.5006570000
C                 -0.4612100000      0.7667360000     -0.2632510000
C                 -1.7069230000      0.1001550000     -0.2906870000
C                  0.8221720000      2.9451180000     -0.5717960000
C                  2.0937280000      2.1772220000     -0.4036830000
C                  1.9716110000      0.7610650000     -0.1175630000
C                  0.7857710000      0.0751420000     -0.0331100000
O                  0.8177960000      4.1772980000     -0.7741800000
O                  3.2169210000      2.7266280000     -0.4772230000
H                 -1.6016340000      3.9210930000     -0.8760160000
H                 -3.7913980000      2.7262870000     -0.8609750000
H                 -3.8329910000      0.2498070000     -0.5223230000
H                 -1.7189890000     -0.9762860000     -0.1643940000
H                  2.9166720000      0.2529110000      0.0460560000
N                  0.7276130000     -1.3310990000      0.2720630000
C                  1.8691400000     -2.1256740000     -0.1470270000
C                  0.3595870000     -1.6159900000      1.6568850000
H                  2.1124290000     -1.9020150000     -1.1869040000
H                  1.6115070000     -3.1880590000     -0.0681140000
H                  2.7768750000     -1.9585040000      0.4611480000
H                 -0.5119810000     -1.0264400000      1.9418010000
H                  1.1767370000     -1.3808170000      2.3634870000
H                  0.1098380000     -2.6782820000      1.7637260000
$end
$rem
MAX_SCF_CYCLES=200
BASIS  =  6-311++G(d,p)
GUI  =  2
JOB_TYPE  =  SP
METHOD  =  B3LYP
SOLVENT_METHOD = COSMO
$end
$solvent
dielectric 37.219
opticaldielectric 1.43
$end

--------------------------------------------------------------

             Standard Nuclear Orientation (Angstroms)
    I     Atom           X                Y                Z
 ----------------------------------------------------------------
    1      C       2.5211862286     0.9240201996     0.0300245257
    2      C       2.4296891329     2.2997771860    -0.0759486990
    3      C       1.1656581790     2.9055425122    -0.2192193728
    4      C       1.3759958959     0.1010208159     0.0141970033
    5      C       0.0902749272     0.7185254526    -0.0949376544
    6      C       0.0233996676     2.1235201387    -0.2305896862
    7      C       1.5514341651    -1.3605610675     0.0783552663
    8      C       0.3121440122    -2.1931880528     0.0030350889
    9      C      -0.9513883473    -1.4845004778    -0.0563430407
   10      C      -1.0864397340    -0.1190622793    -0.0906770712
   11      O       2.6853641458    -1.8735556869     0.1797717571
   12      O       0.3502956300    -3.4450466125     0.0176021802
   13      H       3.4807006784     0.4272073193     0.1199178758
   14      H       3.3278703326     2.9103755820    -0.0627628545
   15      H       1.0857397896     3.9829991146    -0.3305271735
   16      H      -0.9487042676     2.5829661951    -0.3674984041
   17      H      -1.8265683325    -2.1265133403    -0.0597248445
   18      N      -2.3721055350     0.5285446662    -0.1318517665
   19      C      -3.4422701524    -0.2116864229    -0.7775106369
   20      C      -2.7990737270     1.0671158074     1.1573252109
   21      H      -3.0994715698    -0.5899894007    -1.7418410002
   22      H      -4.2896285484     0.4625608980    -0.9467389192
   23      H      -3.8131106188    -1.0681745700    -0.1853021667
   24      H      -1.9887503202     1.6370926093     1.6121653254
   25      H      -3.0960673393     0.2714356977     1.8651492046
   26      H      -3.6562107516     1.7359027559     1.0148682201
 ----------------------------------------------------------------

   11    -669.3186828302      8.38e-06  Convergence criterion met
 Total energy in the final basis set =     -669.3186828302
    5    -669.4142834605      7.56e-06  Convergence criterion met
 Total energy in the final basis set =     -669.4142834605

                    Orbital Energies (a.u.)
 --------------------------------------------------------------

 Alpha MOs
 -- Occupied --
-19.0823 -19.0775 -14.3160 -10.2201 -10.2182 -10.2058 -10.1853 -10.1833
-10.1796 -10.1724 -10.1709 -10.1702 -10.1698 -10.1680 -10.1554  -1.0184
 -0.9913  -0.9344  -0.8576  -0.7972  -0.7536  -0.7287  -0.7036  -0.6912
 -0.6316  -0.6123  -0.5924  -0.5558  -0.5126  -0.4988  -0.4902  -0.4575
 -0.4541  -0.4460  -0.4349  -0.4221  -0.4195  -0.4172  -0.4067  -0.3960
 -0.3833  -0.3773  -0.3697  -0.3652  -0.3514  -0.3509  -0.3339  -0.3061
 -0.2663  -0.2588  -0.2373  -0.2287  -0.2179  -0.1552

 Beta MOs
 -- Occupied --
-19.0761 -19.0719 -14.3155 -10.2181 -10.2165 -10.2035 -10.1851 -10.1833
-10.1788 -10.1721 -10.1706 -10.1700 -10.1695 -10.1676 -10.1559  -1.0080
 -0.9805  -0.9325  -0.8557  -0.7937  -0.7510  -0.7273  -0.7030  -0.6843
 -0.6281  -0.6110  -0.5886  -0.5536  -0.5108  -0.4967  -0.4879  -0.4554
 -0.4525  -0.4438  -0.4337  -0.4200  -0.4146  -0.4036  -0.4017  -0.3929
 -0.3826  -0.3757  -0.3658  -0.3586  -0.3500  -0.3331  -0.3263  -0.2942
 -0.2602  -0.2495  -0.2322  -0.2229  -0.2107

          Ground-State Mulliken Net Atomic Charges

     Atom                 Charge (a.u.)    Spin (a.u.)
  --------------------------------------------------------
      1 C                     0.077838       0.061136
      2 C                    -0.507187       0.007504
      3 C                    -0.429687       0.060351
      4 C                     0.381124       0.013714
      5 C                     0.154633       0.049753
      6 C                    -0.070232       0.002158
      7 C                    -0.426853       0.126877
      8 C                    -0.060137       0.174439
      9 C                    -0.181150      -0.066270
     10 C                    -0.222774       0.111336
     11 O                    -0.520219       0.231224
     12 O                    -0.556467       0.195650
     13 H                     0.184220      -0.003788
     14 H                     0.198986      -0.001451
     15 H                     0.205009      -0.004123
     16 H                     0.195783      -0.000290
     17 H                     0.186778       0.001780
     18 N                     0.118369       0.025895
     19 C                    -0.276722      -0.001593
     20 C                    -0.376554       0.010077
     21 H                     0.167256       0.000049
     22 H                     0.163524       0.000734
     23 H                     0.132672       0.002538
     24 H                     0.132270      -0.000076
     25 H                     0.150557      -0.000833
     26 H                     0.178961       0.003208
  --------------------------------------------------------
  Sum of atomic charges =    -1.000000

                    Cartesian Multipole Moments
 -----------------------------------------------------------------
    Charge (ESU x 10^10)
                -4.8032
    Dipole Moment (Debye)
         X      -8.9462      Y      13.2607      Z       0.0125
       Tot      15.9962
    Quadrupole Moments (Debye-Ang)
        XX    -101.7849     XY      17.5908     YY    -131.6986
        XZ      -1.8738     YZ       2.2644     ZZ     -93.7211

 Total job time:  72.45s(wall), 545.39s(cpu)
        *  Thank you very much for using Q-Chem.  Have a nice day.  *
