 Q-Chem 5.4, Q-Chem, Inc., Pleasanton, CA (2021)
 Q-Chem 5.4.0 for Intel X86 EM64T Linux

User input:
--------------------------------------------------------------
$molecule
-2 1
C                  3.3219330000     -0.9344130000     -0.0939100000
O                  1.9457730000     -1.1614580000      0.0902320000
C                  1.0677350000     -0.1177050000     -0.0841630000
C                  1.5297320000      1.1412310000     -0.4556530000
C                  0.6190990000      2.2073330000     -0.6416280000
C                 -0.7248340000      2.0033680000     -0.4392520000
C                 -1.2310890000      0.7404580000     -0.0480150000
C                 -2.6796580000      0.6363950000      0.1422230000
O                 -3.4707770000      1.6395230000     -0.0159280000
C                 -3.1313780000     -0.6635150000      0.5016740000
C                 -2.2774520000     -1.7469010000      0.6670780000
C                 -0.8520710000     -1.7080920000      0.5067400000
O                 -0.1451200000     -2.7544320000      0.6925980000
C                 -0.3271300000     -0.3832960000      0.1273890000
H                  3.8214140000     -1.8768540000      0.1438170000
H                  3.5718600000     -0.6557200000     -1.1292600000
H                  3.7189410000     -0.1526850000      0.5721410000
H                  2.5852530000      1.3130410000     -0.6219420000
H                  0.9978590000      3.1835010000     -0.9395970000
H                 -1.4543950000      2.7957270000     -0.5672300000
H                 -4.2049330000     -0.7856720000      0.6469560000
H                 -2.6807630000     -2.7198340000      0.9457300000
$end
$rem
MAX_SCF_CYCLES=200
BASIS  =  6-311++G(d,p)
GUI  =  2
JOB_TYPE  =  SP
METHOD  =  B3LYP
SOLVENT_METHOD = PCM
$end
$pcm
theory = CPCM
$end
$solvent
dielectric 37.219
opticaldielectric 1.43
$end

--------------------------------------------------------------

             Standard Nuclear Orientation (Angstroms)
    I     Atom           X                Y                Z
 ----------------------------------------------------------------
    1      C       3.3219330000    -0.9344130000    -0.0939100000
    2      O       1.9457730000    -1.1614580000     0.0902320000
    3      C       1.0677350000    -0.1177050000    -0.0841630000
    4      C       1.5297320000     1.1412310000    -0.4556530000
    5      C       0.6190990000     2.2073330000    -0.6416280000
    6      C      -0.7248340000     2.0033680000    -0.4392520000
    7      C      -1.2310890000     0.7404580000    -0.0480150000
    8      C      -2.6796580000     0.6363950000     0.1422230000
    9      O      -3.4707770000     1.6395230000    -0.0159280000
   10      C      -3.1313780000    -0.6635150000     0.5016740000
   11      C      -2.2774520000    -1.7469010000     0.6670780000
   12      C      -0.8520710000    -1.7080920000     0.5067400000
   13      O      -0.1451200000    -2.7544320000     0.6925980000
   14      C      -0.3271300000    -0.3832960000     0.1273890000
   15      H       3.8214140000    -1.8768540000     0.1438170000
   16      H       3.5718600000    -0.6557200000    -1.1292600000
   17      H       3.7189410000    -0.1526850000     0.5721410000
   18      H       2.5852530000     1.3130410000    -0.6219420000
   19      H       0.9978590000     3.1835010000    -0.9395970000
   20      H      -1.4543950000     2.7957270000    -0.5672300000
   21      H      -4.2049330000    -0.7856720000     0.6469560000
   22      H      -2.6807630000    -2.7198340000     0.9457300000
 ----------------------------------------------------------------

    9    -650.0630549273      7.31e-06  Convergence criterion met
 Total energy in the final basis set =     -650.0630549273

                    Orbital Energies (a.u.)
 --------------------------------------------------------------

 Alpha MOs
 -- Occupied --
-19.1340 -19.0160 -19.0130 -10.2142 -10.2053 -10.1745 -10.1674 -10.1485
-10.1445 -10.1430 -10.1379 -10.1370 -10.1185 -10.1161  -1.0507  -0.9367
 -0.9328  -0.8231  -0.7608  -0.7351  -0.7058  -0.6743  -0.6355  -0.5832
 -0.5763  -0.5347  -0.4890  -0.4716  -0.4586  -0.4528  -0.4407  -0.4209
 -0.4029  -0.3849  -0.3749  -0.3741  -0.3554  -0.3508  -0.3337  -0.3237
 -0.3196  -0.3171  -0.3099  -0.2938  -0.2256  -0.2177  -0.2063  -0.1974
 -0.1886  -0.1081

          Ground-State Mulliken Net Atomic Charges

     Atom                 Charge (a.u.)
  ----------------------------------------
      1 C                    -0.301729
      2 O                    -0.180854
      3 C                     0.164303
      4 C                    -0.143088
      5 C                    -0.459393
      6 C                    -0.117548
      7 C                     0.091884
      8 C                    -0.377006
      9 O                    -0.741971
     10 C                    -0.167561
     11 C                    -0.120213
     12 C                    -0.271051
     13 O                    -0.726944
     14 C                     0.083522
     15 H                     0.191149
     16 H                     0.160086
     17 H                     0.155305
     18 H                     0.178752
     19 H                     0.182852
     20 H                     0.134834
     21 H                     0.134299
     22 H                     0.130372
  ----------------------------------------
  Sum of atomic charges =    -2.000000

                    Cartesian Multipole Moments
 -----------------------------------------------------------------
    Charge (ESU x 10^10)
                -9.6064
    Dipole Moment (Debye)
         X      17.3090      Y       4.4250      Z      -2.9686
       Tot      18.1106
    Quadrupole Moments (Debye-Ang)
        XX    -134.2021     XY      18.8476     YY    -133.5879
        XZ       0.1096     YZ       7.8227     ZZ     -94.6212

 Total job time:  39.71s(wall), 206.17s(cpu)
        *  Thank you very much for using Q-Chem.  Have a nice day.  *
