 Gaussian 16, Revision A.03,
 Gaussian 16:  ES64L-G16RevA.03 25-Dec-2016

 ----------------------------------------------------------------------
 #P UB3LYP/6-311++G(d,p) nosym opt freq SCRF=(PCM,Solvent=n,n-DiMethylF
 ormamide)
 ----------------------------------------------------------------------

 -------
 Radical
 -------
 Symbolic Z-matrix:
 Charge = -1 Multiplicity = 2

 SCF Done:  E(UB3LYP) =  -1663.72005779     A.U. after   21 cycles
 SCF Done:  E(UB3LYP) =  -1663.72028831     A.U. after   16 cycles
 SCF Done:  E(UB3LYP) =  -1663.72039385     A.U. after   16 cycles
 SCF Done:  E(UB3LYP) =  -1663.72041117     A.U. after   14 cycles
 SCF Done:  E(UB3LYP) =  -1663.72042721     A.U. after   13 cycles
 SCF Done:  E(UB3LYP) =  -1663.72043345     A.U. after   13 cycles
 SCF Done:  E(UB3LYP) =  -1663.72043656     A.U. after   13 cycles
 SCF Done:  E(UB3LYP) =  -1663.72043817     A.U. after   11 cycles
 SCF Done:  E(UB3LYP) =  -1663.72043861     A.U. after   12 cycles
 Optimization completed.
    -- Stationary point found.
 Normal termination of Gaussian 16 at Sat Feb 10 17:27:24 2024.

 ----------------------------------------------------------------------
 #P Geom=AllCheck Guess=TCheck SCRF=Check GenChk UB3LYP/6-311++G(d,p) F
 req
 ----------------------------------------------------------------------

 Structure from the checkpoint file:  "158-rad.chk"
 -------
 Radical
 -------
 Charge = -1 Multiplicity = 2

                          Input orientation:
 ---------------------------------------------------------------------
 Center     Atomic      Atomic             Coordinates (Angstroms)
 Number     Number       Type             X           Y           Z
 ---------------------------------------------------------------------
      1          7           0       -2.583866    0.526176    2.310041
      2          6           0       -2.424997    0.289762    0.965233
      3          6           0       -3.556528    0.180634    0.145370
      4          6           0       -3.434512   -0.120690   -1.212362
      5          6           0       -2.188840   -0.322063   -1.782259
      6          6           0       -1.021829   -0.209618   -1.002299
      7          6           0        0.267558   -0.423148   -1.662088
      8          8           0        0.349281   -0.719315   -2.887698
      9          6           0        1.457893   -0.274622   -0.838604
     10          6           0        2.731889   -0.465441   -1.414054
     11          6           0        3.878416   -0.326813   -0.666294
     12         17           0        5.439503   -0.576785   -1.437165
     13          6           0        3.789468    0.013741    0.705095
     14         17           0        5.235435    0.198227    1.689232
     15          6           0        2.555015    0.204137    1.284784
     16          6           0        1.368427    0.065556    0.537968
     17          6           0        0.083181    0.275712    1.201820
     18          8           0        0.057180    0.594428    2.431971
     19          6           0       -1.115467    0.111180    0.393990
     20          1           0       -1.738075    0.776355    2.813337
     21          1           0       -3.467461    0.899041    2.620709
     22          1           0       -4.537368    0.325670    0.586788
     23          1           0       -4.329616   -0.200028   -1.820641
     24          1           0       -2.084139   -0.561894   -2.831947
     25          1           0        2.791227   -0.724096   -2.463038
     26          1           0        2.478225    0.463893    2.332114
 ---------------------------------------------------------------------

 SCF Done:  E(UB3LYP) =  -1663.72043861     A.U. after    2 cycles

 Alpha  occ. eigenvalues -- -101.56249-101.56236 -19.08263 -19.07678 -14.30996
 Alpha  occ. eigenvalues --  -10.24785 -10.24705 -10.23391 -10.22639 -10.22115
 Alpha  occ. eigenvalues --  -10.18878 -10.18852 -10.18403 -10.18293 -10.17740
 Alpha  occ. eigenvalues --  -10.17611 -10.17296 -10.16436 -10.15902  -9.47710
 Alpha  occ. eigenvalues --   -9.47695  -7.24166  -7.24150  -7.23205  -7.23191
 Alpha  occ. eigenvalues --   -7.23153  -7.23139  -1.00825  -1.00061  -0.91838
 Alpha  occ. eigenvalues --   -0.91605  -0.86288  -0.85233  -0.83494  -0.77972
 Alpha  occ. eigenvalues --   -0.75898  -0.73524  -0.73159  -0.66982  -0.64463
 Alpha  occ. eigenvalues --   -0.62423  -0.60144  -0.56553  -0.54763  -0.53062
 Alpha  occ. eigenvalues --   -0.50350  -0.49045  -0.48188  -0.47294  -0.45301
 Alpha  occ. eigenvalues --   -0.44815  -0.44208  -0.43498  -0.42162  -0.41561
 Alpha  occ. eigenvalues --   -0.40989  -0.40623  -0.39842  -0.38585  -0.37220
 Alpha  occ. eigenvalues --   -0.36930  -0.35636  -0.35416  -0.34980  -0.33538
 Alpha  occ. eigenvalues --   -0.32530  -0.31627  -0.31193  -0.26775  -0.26400
 Alpha  occ. eigenvalues --   -0.25183  -0.24931  -0.24187  -0.21332  -0.14451
 Alpha virt. eigenvalues --   -0.05837  -0.02949  -0.01200  -0.00303  -0.00277
 Alpha virt. eigenvalues --    0.00678   0.01023   0.02143   0.02696   0.03265
 Alpha virt. eigenvalues --    0.03966   0.04100   0.04667   0.05127   0.05183

  Beta  occ. eigenvalues -- -101.56247-101.56232 -19.07773 -19.07121 -14.30974
  Beta  occ. eigenvalues --  -10.24737 -10.24624 -10.23226 -10.22452 -10.22119
  Beta  occ. eigenvalues --  -10.18899 -10.18845 -10.18293 -10.18203 -10.17736
  Beta  occ. eigenvalues --  -10.17554 -10.17272 -10.16330 -10.15844  -9.47708
  Beta  occ. eigenvalues --   -9.47692  -7.24167  -7.24152  -7.23195  -7.23177
  Beta  occ. eigenvalues --   -7.23151  -7.23137  -0.99978  -0.99072  -0.91762
  Beta  occ. eigenvalues --   -0.91494  -0.86231  -0.84949  -0.83382  -0.77647
  Beta  occ. eigenvalues --   -0.75693  -0.73331  -0.72938  -0.66282  -0.64335
  Beta  occ. eigenvalues --   -0.62181  -0.60037  -0.56333  -0.54563  -0.52933
  Beta  occ. eigenvalues --   -0.50252  -0.48917  -0.47989  -0.47127  -0.45190
  Beta  occ. eigenvalues --   -0.44699  -0.44169  -0.42698  -0.41996  -0.41139
  Beta  occ. eigenvalues --   -0.40427  -0.40390  -0.39664  -0.37081  -0.36790
  Beta  occ. eigenvalues --   -0.36092  -0.35496  -0.35111  -0.34798  -0.33516
  Beta  occ. eigenvalues --   -0.31835  -0.31609  -0.30439  -0.25764  -0.25006
  Beta  occ. eigenvalues --   -0.24725  -0.24430  -0.23689  -0.20503
  Beta virt. eigenvalues --   -0.08825  -0.04962  -0.01901  -0.01141  -0.00278
  Beta virt. eigenvalues --    0.00138   0.00688   0.01034   0.02154   0.02713
  Beta virt. eigenvalues --    0.03306   0.04077   0.04471   0.04915   0.05145

 Mulliken charges and spin densities:
               1          2
     1  N   -0.399422   0.009577
     2  C    0.156776   0.023636
     3  C   -0.245043   0.091295
     4  C   -0.497486   0.018993
     5  C   -0.035462   0.072151
     6  C    0.405418   0.013285
     7  C   -0.763016   0.096424
     8  O   -0.455884   0.209156
     9  C   -0.481646   0.046692
    10  C   -0.473106   0.031678
    11  C    0.478228   0.025156
    12  Cl   0.535117   0.002355
    13  C    0.372922   0.053991
    14  Cl   0.535066   0.003766
    15  C   -0.253271   0.019395
    16  C   -0.217435   0.077462
    17  C   -0.946416   0.070876
    18  O   -0.441683   0.179976
    19  C    0.208003  -0.027819
    20  H    0.312338  -0.002838
    21  H    0.272728  -0.000617
    22  H    0.161923  -0.006428
    23  H    0.185975  -0.001785
    24  H    0.156087  -0.004637
    25  H    0.209826  -0.001918
    26  H    0.219463   0.000181
 Sum of Mulliken charges =  -1.00000   1.00000

 Dipole moment (field-independent basis, Debye):
    X=             -6.3218    Y=              1.7085    Z=              2.8787  Tot=              7.1533
 Quadrupole moment (field-independent basis, Debye-Ang):
   XX=           -146.5644   YY=           -130.6803   ZZ=           -154.4763
   XY=             -2.3199   XZ=             -2.9253   YZ=             -3.8357

  Exact polarizability: 573.684 -16.499 161.301   2.364  54.129 384.150
 Approx polarizability: 565.246 -15.093 186.691   4.268  65.998 458.496

                      1                      2                      3
                      A                      A                      A
 Frequencies --     42.0765                49.8250                94.1509
 Red. masses --      8.6099                11.9406                 7.7823
 Frc consts  --      0.0090                 0.0175                 0.0406
 IR Inten    --      7.7564                 0.1025                 0.5979

                      4                      5                      6
                      A                      A                      A
 Frequencies --    127.1354               138.6811               181.8593
 Red. masses --     12.0668                 9.5734                 5.3279
 Frc consts  --      0.1149                 0.1085                 0.1038
 IR Inten    --      8.3288                 2.7033                 2.8498

                      7                      8                      9
                      A                      A                      A
 Frequencies --    193.7599               209.1774               239.3608
 Red. masses --     28.6286                 5.8885                 4.1630
 Frc consts  --      0.6333                 0.1518                 0.1405
 IR Inten    --      0.7604                 0.0107                14.8850

                     10                     11                     12
                      A                      A                      A
 Frequencies --    258.3494               282.2881               325.4837
 Red. masses --      9.0549                11.2796                 5.1035
 Frc consts  --      0.3561                 0.5296                 0.3185
 IR Inten    --      7.4913                 8.8226                79.3110

                     13                     14                     15
                      A                      A                      A
 Frequencies --    333.1743               355.8890               395.6392
 Red. masses --      4.6002                 2.2010                 3.0745
 Frc consts  --      0.3009                 0.1642                 0.2835
 IR Inten    --     71.3714               193.8299               100.4348

                     16                     17                     18
                      A                      A                      A
 Frequencies --    408.8045               438.7457               441.4265
 Red. masses --      9.8828                 3.2798                 6.1919
 Frc consts  --      0.9731                 0.3720                 0.7109
 IR Inten    --     31.8047                 8.2118                 7.3253

                     19                     20                     21
                      A                      A                      A
 Frequencies --    457.6987               477.7492               494.1120
 Red. masses --      5.5470                11.7610                 5.6383
 Frc consts  --      0.6846                 1.5816                 0.8111
 IR Inten    --      6.7248                16.1149                 6.4286

                     22                     23                     24
                      A                      A                      A
 Frequencies --    538.5615               541.4992               578.5606
 Red. masses --      6.2791                 5.6755                 5.4652
 Frc consts  --      1.0731                 0.9805                 1.0778
 IR Inten    --     36.7064                18.1656                 7.8819

                     25                     26                     27
                      A                      A                      A
 Frequencies --    601.6256               632.0802               639.9717
 Red. masses --      6.1286                 1.1864                 5.3764
 Frc consts  --      1.3070                 0.2793                 1.2974
 IR Inten    --    119.9358               127.7480                 0.6734

                     28                     29                     30
                      A                      A                      A
 Frequencies --    658.6576               684.9039               711.2526
 Red. masses --      5.9484                 7.4501                 2.9153
 Frc consts  --      1.5204                 2.0591                 0.8689
 IR Inten    --     43.8665                25.3941                31.1203

                     31                     32                     33
                      A                      A                      A
 Frequencies --    721.4404               743.7456               775.7116
 Red. masses --      7.0851                 4.8689                 2.0164
 Frc consts  --      2.1727                 1.5868                 0.7149
 IR Inten    --     21.0376                35.4579                20.1860

                     34                     35                     36
                      A                      A                      A
 Frequencies --    815.0194               828.9034               876.5431
 Red. masses --      3.9237                 7.0223                 1.4667
 Frc consts  --      1.5356                 2.8427                 0.6640
 IR Inten    --     28.1916                43.5324                 0.3469

                     37                     38                     39
                      A                      A                      A
 Frequencies --    898.2914               902.8654               927.0552
 Red. masses --      5.9222                 1.4278                 1.4401
 Frc consts  --      2.8156                 0.6857                 0.7292
 IR Inten    --     12.8288                 0.3719                39.3966

                     40                     41                     42
                      A                      A                      A
 Frequencies --    961.4291               979.1920              1029.4446
 Red. masses --      8.7589                 1.2968                 2.8790
 Frc consts  --      4.7702                 0.7326                 1.7976
 IR Inten    --     75.6023                 0.8832                38.3711

                     43                     44                     45
                      A                      A                      A
 Frequencies --   1067.9569              1110.6410              1137.8190
 Red. masses --      2.2429                 1.7535                 1.6444
 Frc consts  --      1.5072                 1.2744                 1.2543
 IR Inten    --    110.1486                57.2717               167.6143

                     46                     47                     48
                      A                      A                      A
 Frequencies --   1161.6446              1171.4554              1194.4846
 Red. masses --      3.8275                 1.5600                 3.3683
 Frc consts  --      3.0431                 1.2613                 2.8315
 IR Inten    --     49.8370                28.0896                39.9593

                     49                     50                     51
                      A                      A                      A
 Frequencies --   1220.7960              1226.1294              1298.2989
 Red. masses --      2.4978                 1.6812                 2.8114
 Frc consts  --      2.1933                 1.4892                 2.7921
 IR Inten    --    151.1683                28.8729                78.6430

                     52                     53                     54
                      A                      A                      A
 Frequencies --   1325.3441              1351.6532              1358.1677
 Red. masses --      5.3358                 6.4304                 9.7857
 Frc consts  --      5.5221                 6.9217                10.6353
 IR Inten    --     91.2547               130.2287                36.9279

                     55                     56                     57
                      A                      A                      A
 Frequencies --   1396.4994              1435.3470              1453.0466
 Red. masses --      3.5085                 3.0132                 3.8491
 Frc consts  --      4.0313                 3.6576                 4.7882
 IR Inten    --    779.6800               213.3761                67.8494

                     58                     59                     60
                      A                      A                      A
 Frequencies --   1461.8300              1492.6544              1500.7836
 Red. masses --      5.3033                 5.3559                 5.6646
 Frc consts  --      6.6772                 7.0308                 7.5172
 IR Inten    --    414.0877              1421.2994               282.7893

                     61                     62                     63
                      A                      A                      A
 Frequencies --   1548.1458              1588.7100              1594.0512
 Red. masses --      4.0635                 3.2616                 1.7990
 Frc consts  --      5.7381                 4.8504                 2.6933
 IR Inten    --    180.1605                82.9103               279.5888

                     64                     65                     66
                      A                      A                      A
 Frequencies --   1603.9618              1611.9224              3152.5174
 Red. masses --      6.5808                 6.8913                 1.0865
 Frc consts  --      9.9751                10.5498                 6.3622
 IR Inten    --     31.5338               130.7304                29.8160

                     67                     68                     69
                      A                      A                      A
 Frequencies --   3168.8675              3200.4751              3205.2757
 Red. masses --      1.0930                 1.0921                 1.0902
 Frc consts  --      6.4666                 6.5910                 6.5993
 IR Inten    --     46.7150                20.7192                 1.9540

                     70                     71                     72
                      A                      A                      A
 Frequencies --   3206.9436              3456.3474              3656.1950
 Red. masses --      1.0906                 1.0565                 1.0936
 Frc consts  --      6.6087                 7.4366                 8.6136
 IR Inten    --     18.9483               165.1345               109.2094

 - Thermochemistry -
 -------------------
 Temperature   298.150 Kelvin.  Pressure   1.00000 Atm.
 Atom     1 has atomic number  7 and mass  14.00307

 Molecular mass:   290.98538 amu.
 Principal axes and moments of inertia in atomic units:
                           1         2         3
     Eigenvalues --  2682.758049771.69155**********
           X            0.99917   0.01524   0.03772
           Y           -0.04021   0.22915   0.97256
           Z           -0.00618   0.97327  -0.22957
 This molecule is an asymmetric top.
 Rotational symmetry number  1.
 Warning -- assumption of classical behavior for rotation
           may cause significant error
 Rotational temperatures (Kelvin)      0.03229     0.00886     0.00696
 Rotational constants (GHZ):           0.67272     0.18469     0.14493
 Zero-point vibrational energy     456675.0 (Joules/Mol)
                                  109.14795 (Kcal/Mol)
 Warning -- explicit consideration of  25 degrees of freedom as
           vibrations may cause significant error
 Vibrational temperatures:     60.54    71.69   135.46   182.92   199.53
          (Kelvin)            261.66   278.78   300.96   344.39   371.71
                              406.15   468.30   479.36   512.04   569.24
                              588.18   631.26   635.11   658.53   687.37
                              710.92   774.87   779.10   832.42   865.61
                              909.42   920.78   947.66   985.42  1023.33
                             1037.99  1070.08  1116.08  1172.63  1192.61
                             1261.15  1292.44  1299.02  1333.83  1383.28
                             1408.84  1481.14  1536.55  1597.96  1637.07
                             1671.35  1685.46  1718.60  1756.45  1764.13
                             1867.96  1906.87  1944.73  1954.10  2009.25
                             2065.14  2090.61  2103.25  2147.60  2159.29
                             2227.44  2285.80  2293.48  2307.74  2319.20
                             4535.77  4559.29  4604.77  4611.68  4614.08
                             4972.91  5260.45

 Zero-point correction=                           0.173938 (Hartree/Particle)
 Thermal correction to Energy=                    0.189064
 Thermal correction to Enthalpy=                  0.190008
 Thermal correction to Gibbs Free Energy=         0.130533
 Sum of electronic and zero-point Energies=          -1663.546500
 Sum of electronic and thermal Energies=             -1663.531374
 Sum of electronic and thermal Enthalpies=           -1663.530430
 Sum of electronic and thermal Free Energies=        -1663.589906

                     E (Thermal)             CV                S
                      KCal/Mol        Cal/Mol-Kelvin    Cal/Mol-Kelvin
 Total                  118.640             59.634            125.177
 Electronic               0.000              0.000              1.377
 Translational            0.889              2.981             42.902
 Rotational               0.889              2.981             34.145
 Vibrational            116.862             53.672             46.753
 Vibration     1          0.595              1.980              5.159
 Vibration     2          0.595              1.978              4.824
 Vibration     3          0.603              1.953              3.572
 Vibration     4          0.611              1.926              2.989
 Vibration     5          0.614              1.915              2.822
 Vibration     6          0.630              1.864              2.309
 Vibration     7          0.635              1.849              2.192
 Vibration     8          0.642              1.827              2.051
 Vibration     9          0.657              1.780              1.808
 Vibration    10          0.667              1.749              1.673
 Vibration    11          0.681              1.706              1.520
 Vibration    12          0.710              1.625              1.282
 Vibration    13          0.715              1.609              1.245
 Vibration    14          0.731              1.563              1.140
 Vibration    15          0.762              1.479              0.979
 Vibration    16          0.773              1.451              0.931
 Vibration    17          0.799              1.386              0.831
 Vibration    18          0.801              1.380              0.822
 Vibration    19          0.816              1.344              0.773
 Vibration    20          0.834              1.299              0.716
 Vibration    21          0.850              1.263              0.673
 Vibration    22          0.894              1.165              0.568
 Vibration    23          0.897              1.158              0.562
 Vibration    24          0.935              1.078              0.488
 Vibration    25          0.960              1.028              0.447

 Optimization completed.
    -- Stationary point found.
 Normal termination of Gaussian 16 at Sat Feb 10 18:40:16 2024.
