 Q-Chem 5.4, Q-Chem, Inc., Pleasanton, CA (2021)
 Q-Chem 5.4.0 for Intel X86 EM64T Linux

User input:
--------------------------------------------------------------
$molecule
0 1
C                 -1.8111720000      0.1118710000      1.4126850000
C                 -2.8847660000      0.9471410000      0.7601280000
C                 -2.9063380000      0.7906930000     -0.5781560000
C                 -1.8142770000      0.0550290000     -1.3177410000
C                 -0.4501980000     -0.0435930000     -0.6808720000
C                 -0.5217410000     -0.1233360000      0.6624320000
O                 -2.0408460000     -0.4556610000     -2.3927070000
O                 -1.9783760000     -0.3759210000      2.5089530000
Cl                 0.7689080000     -0.6010160000      1.7340130000
Cl                -4.1910950000      1.2832340000     -1.6501200000
C                  0.7666900000     -0.1977630000     -1.6154120000
C                  0.5792330000      0.6782810000     -2.8827350000
C                  2.0852330000      0.2768890000     -0.9605740000
C                  0.9040650000     -1.6836900000     -2.0248710000
C                 -3.8657170000      1.6994350000      1.6819890000
C                 -3.1123590000      2.2582400000      2.9184040000
C                 -4.5154960000      2.9211720000      0.9906980000
C                 -4.9738790000      0.7234190000      2.1443950000
H                 -0.2561460000      0.3548460000     -3.4982840000
H                  1.4884740000      0.6178850000     -3.4853070000
H                  0.4319240000      1.7297590000     -2.6158370000
H                  1.9795260000      1.2656020000     -0.5060030000
H                  2.8461070000      0.3507150000     -1.7414980000
H                  2.4565430000     -0.4093940000     -0.2043650000
H                  1.0617000000     -2.3183520000     -1.1489900000
H                  1.7681130000     -1.8002550000     -2.6860540000
H                  0.0161070000     -2.0305200000     -2.5543620000
H                 -2.7137850000      1.4749190000      3.5578850000
H                 -3.8092000000      2.8572490000      3.5092330000
H                 -2.2908860000      2.9151860000      2.6148720000
H                 -3.7705530000      3.5540020000      0.5008570000
H                 -5.0096280000      3.5233770000      1.7571180000
H                 -5.2664160000      2.6450860000      0.2554530000
H                 -4.5535320000     -0.1162570000      2.6987840000
H                 -5.5354490000      0.3355860000      1.2905570000
H                 -5.6748680000      1.2522430000      2.7972980000
$end
$rem
MAX_SCF_CYCLES=200
BASIS  =  6-311++G(d,p)
GUI  =  2
JOB_TYPE  =  SP
METHOD  =  B3LYP
SOLVENT_METHOD = PCM
$end
$pcm
theory = CPCM
$end
$solvent
dielectric 37.219
opticaldielectric 1.43
$end

--------------------------------------------------------------

             Standard Nuclear Orientation (Angstroms)
    I     Atom           X                Y                Z
 ----------------------------------------------------------------
    1      C      -1.8111720000     0.1118710000     1.4126850000
    2      C      -2.8847660000     0.9471410000     0.7601280000
    3      C      -2.9063380000     0.7906930000    -0.5781560000
    4      C      -1.8142770000     0.0550290000    -1.3177410000
    5      C      -0.4501980000    -0.0435930000    -0.6808720000
    6      C      -0.5217410000    -0.1233360000     0.6624320000
    7      O      -2.0408460000    -0.4556610000    -2.3927070000
    8      O      -1.9783760000    -0.3759210000     2.5089530000
    9      Cl      0.7689080000    -0.6010160000     1.7340130000
   10      Cl     -4.1910950000     1.2832340000    -1.6501200000
   11      C       0.7666900000    -0.1977630000    -1.6154120000
   12      C       0.5792330000     0.6782810000    -2.8827350000
   13      C       2.0852330000     0.2768890000    -0.9605740000
   14      C       0.9040650000    -1.6836900000    -2.0248710000
   15      C      -3.8657170000     1.6994350000     1.6819890000
   16      C      -3.1123590000     2.2582400000     2.9184040000
   17      C      -4.5154960000     2.9211720000     0.9906980000
   18      C      -4.9738790000     0.7234190000     2.1443950000
   19      H      -0.2561460000     0.3548460000    -3.4982840000
   20      H       1.4884740000     0.6178850000    -3.4853070000
   21      H       0.4319240000     1.7297590000    -2.6158370000
   22      H       1.9795260000     1.2656020000    -0.5060030000
   23      H       2.8461070000     0.3507150000    -1.7414980000
   24      H       2.4565430000    -0.4093940000    -0.2043650000
   25      H       1.0617000000    -2.3183520000    -1.1489900000
   26      H       1.7681130000    -1.8002550000    -2.6860540000
   27      H       0.0161070000    -2.0305200000    -2.5543620000
   28      H      -2.7137850000     1.4749190000     3.5578850000
   29      H      -3.8092000000     2.8572490000     3.5092330000
   30      H      -2.2908860000     2.9151860000     2.6148720000
   31      H      -3.7705530000     3.5540020000     0.5008570000
   32      H      -5.0096280000     3.5233770000     1.7571180000
   33      H      -5.2664160000     2.6450860000     0.2554530000
   34      H      -4.5535320000    -0.1162570000     2.6987840000
   35      H      -5.5354490000     0.3355860000     1.2905570000
   36      H      -5.6748680000     1.2522430000     2.7972980000
 ----------------------------------------------------------------

    8   -1615.3813680391      9.97e-06  Convergence criterion met
 Total energy in the final basis set =    -1615.3813680391

                    Orbital Energies (a.u.)
 --------------------------------------------------------------

 Alpha MOs
 -- Occupied --
********-101.5726 -19.1493 -19.1493 -10.3030 -10.3030 -10.2681 -10.2681
-10.2302 -10.2302 -10.2100 -10.2100 -10.1611 -10.1611 -10.1579 -10.1579
-10.1576 -10.1575  -9.4875  -9.4875  -7.2523  -7.2523  -7.2427  -7.2427
 -7.2415  -7.2414  -1.0897  -1.0871  -0.9138  -0.9000  -0.8464  -0.8350
 -0.8098  -0.7595  -0.6971  -0.6911  -0.6908  -0.6874  -0.6864  -0.6464
 -0.5989  -0.5735  -0.5593  -0.5451  -0.4972  -0.4931  -0.4843  -0.4736
 -0.4571  -0.4525  -0.4509  -0.4459  -0.4412  -0.4350  -0.4311  -0.4203
 -0.4026  -0.3958  -0.3859  -0.3806  -0.3742  -0.3737  -0.3701  -0.3677
 -0.3603  -0.3601  -0.3466  -0.3452  -0.3431  -0.3396  -0.3246  -0.3188
 -0.2960  -0.2946  -0.2823  -0.2695

          Ground-State Mulliken Net Atomic Charges

     Atom                 Charge (a.u.)
  ----------------------------------------
      1 C                    -1.267736
      2 C                     1.136814
      3 C                    -0.246716
      4 C                    -1.269525
      5 C                     1.140865
      6 C                    -0.245576
      7 O                    -0.178730
      8 O                    -0.178531
      9 Cl                    0.566597
     10 Cl                    0.567479
     11 C                     0.601883
     12 C                    -0.730760
     13 C                    -0.675036
     14 C                    -0.732079
     15 C                     0.601903
     16 C                    -0.731191
     17 C                    -0.676526
     18 C                    -0.731458
     19 H                     0.166882
     20 H                     0.171623
     21 H                     0.161757
     22 H                     0.172550
     23 H                     0.160477
     24 H                     0.144744
     25 H                     0.156247
     26 H                     0.185448
     27 H                     0.203545
     28 H                     0.167119
     29 H                     0.171848
     30 H                     0.161929
     31 H                     0.172563
     32 H                     0.160796
     33 H                     0.145116
     34 H                     0.204071
     35 H                     0.156222
     36 H                     0.185383
  ----------------------------------------
  Sum of atomic charges =     0.000000

                    Cartesian Multipole Moments
 -----------------------------------------------------------------
    Charge (ESU x 10^10)
                -0.0000
    Dipole Moment (Debye)
         X       1.1149      Y       2.8314      Z      -0.0611
       Tot       3.0437
    Quadrupole Moments (Debye-Ang)
        XX    -118.9601     XY      -8.2216     YY    -120.6438
        XZ      -9.6883     YZ       3.7272     ZZ    -135.7782

 Total job time:  69.23s(wall), 502.51s(cpu)
        *  Thank you very much for using Q-Chem.  Have a nice day.  *
