 Gaussian 16, Revision A.03,
 Gaussian 16:  ES64L-G16RevA.03 25-Dec-2016

 ----------------------------------------------------------------
 #P UB3LYP/6-311++G(d,p) SCRF=(PCM,Solvent=n,n-DiMethylFormamide)
 ----------------------------------------------------------------

 ------------------
 Radical PCM in DMF
 ------------------
 Symbolic Z-matrix:
 Charge = -1 Multiplicity = 2

                         Standard orientation:
 ---------------------------------------------------------------------
 Center     Atomic      Atomic             Coordinates (Angstroms)
 Number     Number       Type             X           Y           Z
 ---------------------------------------------------------------------
      1          6           0       -1.474849    1.931700    0.000011
      2          6           0       -0.690457    0.642375    0.000050
      3          6           0        0.690463    0.642355    0.000046
      4          6           0        1.474925    1.931681   -0.000028
      5          6           0        1.457810   -0.602273    0.000043
      6          8           0        2.725604   -0.617829   -0.000053
      7          6           0        0.683993   -1.822345    0.000027
      8          6           0       -0.684046   -1.822316    0.000024
      9          6           0       -1.457830   -0.602259    0.000012
     10          8           0       -2.725640   -0.617751   -0.000075
     11          1           0       -2.541334    1.702862   -0.000786
     12          1           0       -1.246323    2.547349   -0.879629
     13          1           0       -1.247599    2.546583    0.880528
     14          1           0        1.246999    2.547094    0.879937
     15          1           0        1.247125    2.546770   -0.880237
     16          1           0        2.541403    1.702797    0.000099
     17          1           0        1.248468   -2.751172    0.000026
     18          1           0       -1.248512   -2.751156   -0.000017
 ---------------------------------------------------------------------

 SCF Done:  E(UB3LYP) =  -460.376338151     A.U. after   16 cycles

 The electronic state is 2-A.
 Alpha  occ. eigenvalues --  -19.07219 -19.07218 -10.21320 -10.21319 -10.16426
 Alpha  occ. eigenvalues --  -10.16367 -10.15798 -10.15732 -10.15126 -10.15125
 Alpha  occ. eigenvalues --   -0.99330  -0.99086  -0.82317  -0.76728  -0.72026
 Alpha  occ. eigenvalues --   -0.65900  -0.65857  -0.56519  -0.54636  -0.48214
 Alpha  occ. eigenvalues --   -0.45867  -0.43036  -0.42628  -0.39854  -0.39412
 Alpha  occ. eigenvalues --   -0.39260  -0.38495  -0.38310  -0.38058  -0.36241
 Alpha  occ. eigenvalues --   -0.34546  -0.33723  -0.27504  -0.24076  -0.23835
 Alpha  occ. eigenvalues --   -0.23166  -0.15696
 Alpha virt. eigenvalues --   -0.00282  -0.00229   0.01060   0.01682   0.03144
 Alpha virt. eigenvalues --    0.03467   0.03647   0.04143   0.04868   0.06444
 Alpha virt. eigenvalues --    0.06665   0.07081   0.07610   0.08945   0.09068

  Beta  occ. eigenvalues --  -19.06526 -19.06526 -10.21167 -10.21166 -10.16342
  Beta  occ. eigenvalues --  -10.16281 -10.15672 -10.15606 -10.15133 -10.15133
  Beta  occ. eigenvalues --   -0.98120  -0.97845  -0.81779  -0.76431  -0.71738
  Beta  occ. eigenvalues --   -0.65685  -0.64960  -0.56125  -0.54241  -0.48000
  Beta  occ. eigenvalues --   -0.45448  -0.42476  -0.42195  -0.39653  -0.38862
  Beta  occ. eigenvalues --   -0.38855  -0.38351  -0.37998  -0.36613  -0.34300
  Beta  occ. eigenvalues --   -0.33543  -0.33519  -0.24474  -0.23429  -0.22821
  Beta  occ. eigenvalues --   -0.22555
  Beta virt. eigenvalues --   -0.08432  -0.00259   0.01077   0.01140   0.01709
  Beta virt. eigenvalues --    0.03383   0.03487   0.04168   0.04915   0.05342
  Beta virt. eigenvalues --    0.06510   0.06687   0.07637   0.07712   0.08973

 Mulliken charges and spin densities:
               1          2
     1  C   -0.527307   0.004920
     2  C    0.559077   0.060939
     3  C    0.559120   0.060942
     4  C   -0.527303   0.004917
     5  C   -0.644535   0.112851
     6  O   -0.518429   0.243625
     7  C   -0.019379   0.082328
     8  C   -0.019358   0.082289
     9  C   -0.644564   0.112871
    10  O   -0.518444   0.243635
    11  H    0.179210  -0.002008
    12  H    0.147058   0.002876
    13  H    0.147146   0.002883
    14  H    0.147099   0.002878
    15  H    0.147099   0.002879
    16  H    0.179209  -0.002008
    17  H    0.177151  -0.008410
    18  H    0.177150  -0.008408
 Sum of Mulliken charges =  -1.00000   1.00000

 Dipole moment (field-independent basis, Debye):
    X=              0.0003    Y=              3.6203    Z=              0.0003  Tot=              3.6203
 Quadrupole moment (field-independent basis, Debye-Ang):
   XX=           -104.5627   YY=            -62.3694   ZZ=            -63.5369
   XY=              0.0003   XZ=             -0.0002   YZ=             -0.0001

 Normal termination of Gaussian 16 at Sun Jan 21 07:16:37 2024.
