 Gaussian 16, Revision A.03,
 Gaussian 16:  ES64L-G16RevA.03 25-Dec-2016

 ----------------------------------------------------------------
 #P UB3LYP/6-311++G(d,p) SCRF=(PCM,Solvent=n,n-DiMethylFormamide)
 ----------------------------------------------------------------

 ------------------
 Quinone PCM in DMF
 ------------------
 Symbolic Z-matrix:
 Charge =  0 Multiplicity = 1

                         Standard orientation:
 ---------------------------------------------------------------------
 Center     Atomic      Atomic             Coordinates (Angstroms)
 Number     Number       Type             X           Y           Z
 ---------------------------------------------------------------------
      1          8           0        2.461690    1.180533    0.000637
      2          6           0        1.228168    0.697391    0.000033
      3          6           0        0.118137    1.469932   -0.000719
      4          6           0       -1.170933    0.825061   -0.000137
      5          8           0       -2.253896    1.401608    0.000138
      6          6           0       -1.228228   -0.697420    0.000056
      7          6           0       -0.118136   -1.469921    0.000403
      8          6           0        1.170902   -0.825007   -0.000182
      9          8           0        2.253985   -1.401344   -0.000484
     10          8           0       -2.461694   -1.180786    0.000061
     11          1           0        3.055050    0.399378    0.000651
     12          1           0        0.162232    2.551159   -0.000759
     13          1           0       -0.162170   -2.551139    0.000344
     14          1           0       -3.055251   -0.399696    0.000217
 ---------------------------------------------------------------------

 SCF Done:  E(UB3LYP) =  -532.093888388     A.U. after   14 cycles

 The electronic state is 1-A.
 Alpha  occ. eigenvalues --  -19.19549 -19.19546 -19.15331 -19.15330 -10.29924
 Alpha  occ. eigenvalues --  -10.29922 -10.28837 -10.28834 -10.20207 -10.20206
 Alpha  occ. eigenvalues --   -1.12609  -1.12398  -1.07460  -1.07394  -0.86739
 Alpha  occ. eigenvalues --   -0.79400  -0.71533  -0.65519  -0.64688  -0.60511
 Alpha  occ. eigenvalues --   -0.55311  -0.54051  -0.49038  -0.49033  -0.48581
 Alpha  occ. eigenvalues --   -0.46910  -0.46180  -0.45437  -0.41922  -0.41725
 Alpha  occ. eigenvalues --   -0.40297  -0.39430  -0.31544  -0.30441  -0.29863
 Alpha  occ. eigenvalues --   -0.26808
 Alpha virt. eigenvalues --   -0.13709  -0.02176  -0.00731  -0.00386   0.00642
 Alpha virt. eigenvalues --    0.01270   0.02586   0.04711   0.05309   0.05487
 Alpha virt. eigenvalues --    0.07319   0.07542   0.07931   0.08830   0.10962

  Beta  occ. eigenvalues --  -19.19549 -19.19546 -19.15331 -19.15330 -10.29924
  Beta  occ. eigenvalues --  -10.29922 -10.28837 -10.28834 -10.20207 -10.20206
  Beta  occ. eigenvalues --   -1.12609  -1.12398  -1.07460  -1.07394  -0.86739
  Beta  occ. eigenvalues --   -0.79400  -0.71533  -0.65519  -0.64688  -0.60511
  Beta  occ. eigenvalues --   -0.55311  -0.54051  -0.49038  -0.49033  -0.48581
  Beta  occ. eigenvalues --   -0.46910  -0.46180  -0.45437  -0.41922  -0.41725
  Beta  occ. eigenvalues --   -0.40297  -0.39430  -0.31544  -0.30441  -0.29863
  Beta  occ. eigenvalues --   -0.26808
  Beta virt. eigenvalues --   -0.13709  -0.02176  -0.00731  -0.00386   0.00642
  Beta virt. eigenvalues --    0.01270   0.02586   0.04711   0.05309   0.05487
  Beta virt. eigenvalues --    0.07319   0.07542   0.07931   0.08830   0.10962

 Mulliken charges and spin densities:
               1          2
     1  O   -0.196203   0.000000
     2  C   -0.128363  -0.000000
     3  C    0.225717   0.000000
     4  C   -0.118074  -0.000000
     5  O   -0.344117   0.000000
     6  C   -0.128423  -0.000000
     7  C    0.225568   0.000000
     8  C   -0.118193  -0.000000
     9  O   -0.344135   0.000000
    10  O   -0.196187   0.000000
    11  H    0.310741   0.000000
    12  H    0.250454   0.000000
    13  H    0.250458   0.000000
    14  H    0.310758   0.000000
 Sum of Mulliken charges =  -0.00000   0.00000

 Dipole moment (field-independent basis, Debye):
    X=             -0.0012    Y=             -0.0008    Z=              0.0006  Tot=              0.0016
 Quadrupole moment (field-independent basis, Debye-Ang):
   XX=            -61.2809   YY=            -62.3470   ZZ=            -56.5125
   XY=              5.2229   XZ=              0.0034   YZ=             -0.0035

 Normal termination of Gaussian 16 at Wed Jan 24 22:48:23 2024.
