 Gaussian 16, Revision A.03,
 Gaussian 16:  ES64L-G16RevA.03 25-Dec-2016

 --------------------------------------
 #P UB3LYP/6-311++G(d,p) nosym opt freq
 --------------------------------------

 --------
 Oxidized
 --------
 Symbolic Z-matrix:
 Charge =  0 Multiplicity = 1

 SCF Done:  E(UB3LYP) =  -532.085233766     A.U. after   14 cycles
 Optimization completed.
    -- Stationary point found.
 Normal termination of Gaussian 16 at Wed Jan 10 16:49:05 2024.

 ----------------------------------------------------------------------
 #P Geom=AllCheck Guess=TCheck SCRF=Check GenChk UB3LYP/6-311++G(d,p) F
 req
 ----------------------------------------------------------------------

 Structure from the checkpoint file:  "111.chk"
 --------
 Oxidized
 --------
 Charge =  0 Multiplicity = 1

                          Input orientation:
 ---------------------------------------------------------------------
 Center     Atomic      Atomic             Coordinates (Angstroms)
 Number     Number       Type             X           Y           Z
 ---------------------------------------------------------------------
      1          8           0       -2.687842   -0.173487    0.446179
      2          6           0       -1.391289    0.007297    0.243025
      3          6           0       -0.785047    1.215490    0.284603
      4          6           0        0.634673    1.283343    0.045121
      5          8           0        1.308213    2.308777    0.051802
      6          6           0        1.391312   -0.007266   -0.243078
      7          6           0        0.785066   -1.215501   -0.284247
      8          6           0       -0.634645   -1.283302   -0.044757
      9          8           0       -1.308382   -2.308616   -0.051362
     10          8           0        2.687816    0.173369   -0.446865
     11          1           0       -2.840889   -1.138224    0.355962
     12          1           0       -1.325368    2.130404    0.489495
     13          1           0        1.325347   -2.130449   -0.489034
     14          1           0        2.841035    1.138165   -0.356844
 ---------------------------------------------------------------------

 SCF Done:  E(UB3LYP) =  -532.085233766     A.U. after    1 cycles

 Alpha  occ. eigenvalues --  -19.20114 -19.20110 -19.15690 -19.15690 -10.30323
 Alpha  occ. eigenvalues --  -10.30322 -10.29424 -10.29421 -10.20933 -10.20932
 Alpha  occ. eigenvalues --   -1.13185  -1.12977  -1.07821  -1.07763  -0.87413
 Alpha  occ. eigenvalues --   -0.80094  -0.72110  -0.66144  -0.65309  -0.61097
 Alpha  occ. eigenvalues --   -0.55762  -0.54619  -0.49631  -0.49541  -0.49210
 Alpha  occ. eigenvalues --   -0.47259  -0.46412  -0.46003  -0.42363  -0.42148
 Alpha  occ. eigenvalues --   -0.40729  -0.39909  -0.31816  -0.30741  -0.30410
 Alpha  occ. eigenvalues --   -0.27498
 Alpha virt. eigenvalues --   -0.14219  -0.02897  -0.01317  -0.00914   0.00112
 Alpha virt. eigenvalues --    0.01040   0.01970   0.03864   0.04571   0.05714
 Alpha virt. eigenvalues --    0.06814   0.07291   0.07828   0.08187   0.10483

  Beta  occ. eigenvalues --  -19.20114 -19.20110 -19.15690 -19.15690 -10.30323
  Beta  occ. eigenvalues --  -10.30322 -10.29424 -10.29421 -10.20933 -10.20932
  Beta  occ. eigenvalues --   -1.13185  -1.12977  -1.07821  -1.07763  -0.87413
  Beta  occ. eigenvalues --   -0.80094  -0.72110  -0.66144  -0.65309  -0.61097
  Beta  occ. eigenvalues --   -0.55762  -0.54619  -0.49631  -0.49541  -0.49210
  Beta  occ. eigenvalues --   -0.47259  -0.46412  -0.46003  -0.42363  -0.42148
  Beta  occ. eigenvalues --   -0.40729  -0.39909  -0.31816  -0.30741  -0.30410
  Beta  occ. eigenvalues --   -0.27498
  Beta virt. eigenvalues --   -0.14219  -0.02897  -0.01317  -0.00914   0.00112
  Beta virt. eigenvalues --    0.01040   0.01970   0.03864   0.04571   0.05714
  Beta virt. eigenvalues --    0.06814   0.07291   0.07828   0.08187   0.10483

 Mulliken charges and spin densities:
               1          2
     1  O   -0.174529  -0.000000
     2  C   -0.160420   0.000000
     3  C    0.274234  -0.000000
     4  C   -0.163319   0.000000
     5  O   -0.301906  -0.000000
     6  C   -0.160473  -0.000000
     7  C    0.274079  -0.000000
     8  C   -0.163427  -0.000000
     9  O   -0.301925  -0.000000
    10  O   -0.174525  -0.000000
    11  H    0.290318   0.000000
    12  H    0.235782  -0.000000
    13  H    0.235784  -0.000000
    14  H    0.290328  -0.000000
 Sum of Mulliken charges =  -0.00000   0.00000

 Dipole moment (field-independent basis, Debye):
    X=              0.0011    Y=             -0.0001    Z=             -0.0007  Tot=              0.0013
 Quadrupole moment (field-independent basis, Debye-Ang):
   XX=            -56.9668   YY=            -64.8626   ZZ=            -56.6563
   XY=             -1.8269   XZ=             -0.1567   YZ=             -0.6783

  Exact polarizability: 108.557  28.894 106.399  -7.757   2.549  45.531
 Approx polarizability: 189.140  87.137 203.655 -10.942   1.573  67.685

                      1                      2                      3
                      A                      A                      A
 Frequencies --     98.9284               163.0558               188.3579
 Red. masses --     14.0553                 7.0660                 6.8423
 Frc consts  --      0.0810                 0.1107                 0.1430
 IR Inten    --      2.5283                 1.2055                 0.0000

                      4                      5                      6
                      A                      A                      A
 Frequencies --    329.4493               345.7882               392.2892
 Red. masses --      5.8453                 5.2804                10.5891
 Frc consts  --      0.3738                 0.3720                 0.9601
 IR Inten    --      0.0011                44.4167                 0.0000

                      7                      8                      9
                      A                      A                      A
 Frequencies --    419.7291               428.9522               475.8329
 Red. masses --      3.0968                13.0521                 9.3456
 Frc consts  --      0.3214                 1.4150                 1.2467
 IR Inten    --      0.3593                22.6092                 0.0000

                     10                     11                     12
                      A                      A                      A
 Frequencies --    498.7118               669.9720               683.0509
 Red. masses --     10.9125                 6.8338                 4.4705
 Frc consts  --      1.5991                 1.8073                 1.2289
 IR Inten    --      0.0000                 0.0000                 0.0000

                     13                     14                     15
                      A                      A                      A
 Frequencies --    711.2013               718.5806               727.7593
 Red. masses --      1.4665                 7.4407                 1.0922
 Frc consts  --      0.4370                 2.2637                 0.3408
 IR Inten    --    164.2845                 0.0011                 0.0162

                     16                     17                     18
                      A                      A                      A
 Frequencies --    747.5474               760.8801               816.6306
 Red. masses --      8.6888                 2.8036                 1.2228
 Frc consts  --      2.8608                 0.9563                 0.4804
 IR Inten    --      3.2081                65.7375                 0.0000

                     19                     20                     21
                      A                      A                      A
 Frequencies --    819.8162               858.2739              1189.2009
 Red. masses --      2.6678                 1.4590                 1.4017
 Frc consts  --      1.0564                 0.6332                 1.1679
 IR Inten    --     41.6374                64.4385                 0.0000

                     22                     23                     24
                      A                      A                      A
 Frequencies --   1211.6129              1248.1186              1254.4862
 Red. masses --      2.3684                 1.8020                 2.0661
 Frc consts  --      2.0485                 1.6539                 1.9157
 IR Inten    --      2.0988               408.6691                 0.0001

                     25                     26                     27
                      A                      A                      A
 Frequencies --   1282.5437              1348.6354              1421.7373
 Red. masses --      6.5511                 6.3179                 1.8887
 Frc consts  --      6.3490                 6.7704                 2.2493
 IR Inten    --      0.0002               105.1656               794.8350

                     28                     29                     30
                      A                      A                      A
 Frequencies --   1451.5518              1682.3684              1695.3484
 Red. masses --      2.3029                 6.2301                 7.7413
 Frc consts  --      2.8588                10.3893                13.1094
 IR Inten    --      0.0000               342.7250                 0.0063

                     31                     32                     33
                      A                      A                      A
 Frequencies --   1702.7425              1706.7338              3208.5588
 Red. masses --      9.1342                12.0435                 1.0931
 Frc consts  --     15.6033                20.6696                 6.6302
 IR Inten    --      0.0025               567.8511                 1.0316

                     34                     35                     36
                      A                      A                      A
 Frequencies --   3209.5697              3536.8001              3543.4693
 Red. masses --      1.0930                 1.0638                 1.0640
 Frc consts  --      6.6336                 7.8400                 7.8713
 IR Inten    --      0.0024                 1.0396               320.2833

 - Thermochemistry -
 -------------------
 Temperature   298.150 Kelvin.  Pressure   1.00000 Atm.
 Atom     1 has atomic number  8 and mass  15.99491

 Molecular mass:   140.01096 amu.
 Principal axes and moments of inertia in atomic units:
                           1         2         3
     Eigenvalues --   716.669421588.144172304.81344
           X            0.86292  -0.47579   0.17026
           Y            0.49727   0.85947  -0.11847
           Z           -0.08997   0.18689   0.97825
 This molecule is an asymmetric top.
 Rotational symmetry number  1.
 Warning -- assumption of classical behavior for rotation
           may cause significant error
 Rotational temperatures (Kelvin)      0.12086     0.05454     0.03758
 Rotational constants (GHZ):           2.51823     1.13638     0.78303
 Zero-point vibrational energy     248513.9 (Joules/Mol)
                                   59.39626 (Kcal/Mol)
 Warning -- explicit consideration of  10 degrees of freedom as
           vibrations may cause significant error
 Vibrational temperatures:    142.34   234.60   271.01   474.00   497.51
          (Kelvin)            564.42   603.90   617.17   684.62   717.54
                              963.94   982.76  1023.26  1033.88  1047.08
                             1075.55  1094.74  1174.95  1179.53  1234.86
                             1710.99  1743.24  1795.76  1804.93  1845.29
                             1940.39  2045.56  2088.46  2420.55  2439.23
                             2449.87  2455.61  4616.40  4617.85  5088.67
                             5098.26

 Zero-point correction=                           0.094654 (Hartree/Particle)
 Thermal correction to Energy=                    0.102591
 Thermal correction to Enthalpy=                  0.103535
 Thermal correction to Gibbs Free Energy=         0.061863
 Sum of electronic and zero-point Energies=           -531.990580
 Sum of electronic and thermal Energies=              -531.982643
 Sum of electronic and thermal Enthalpies=            -531.981699
 Sum of electronic and thermal Free Energies=         -532.023371

                     E (Thermal)             CV                S
                      KCal/Mol        Cal/Mol-Kelvin    Cal/Mol-Kelvin
 Total                   64.377             30.497             87.706
 Electronic               0.000              0.000              0.000
 Translational            0.889              2.981             40.721
 Rotational               0.889              2.981             29.352
 Vibrational             62.599             24.536             17.633
 Vibration     1          0.604              1.950              3.475
 Vibration     2          0.623              1.888              2.514
 Vibration     3          0.633              1.856              2.244
 Vibration     4          0.712              1.617              1.263
 Vibration     5          0.724              1.584              1.185
 Vibration     6          0.760              1.487              0.991
 Vibration     7          0.782              1.427              0.893
 Vibration     8          0.790              1.407              0.862
 Vibration     9          0.832              1.304              0.721
 Vibration    10          0.854              1.253              0.661

 Optimization completed.
    -- Stationary point found.
 Normal termination of Gaussian 16 at Wed Jan 10 16:52:38 2024.
