 Q-Chem 5.4, Q-Chem, Inc., Pleasanton, CA (2021)
 Q-Chem 5.4.0 for Intel X86 EM64T Linux

User input:
--------------------------------------------------------------
$molecule
0 1
C                  5.7400620000     -5.3619530000      1.3229850000
C                  6.7079570000     -5.1911710000      0.3275620000
C                  6.6182800000     -4.1847540000     -0.6181560000
C                  4.6526950000     -4.4605450000      1.3307860000
C                  4.5603390000     -3.4233980000      0.3563520000
C                  5.5542700000     -3.2767670000     -0.6364330000
C                  3.5852790000     -4.5927230000      2.3706350000
C                  2.4592020000     -3.6333240000      2.3522230000
C                  2.3728680000     -2.6624090000      1.4403140000
C                  3.3975070000     -2.4826430000      0.3883770000
O                  3.5995190000     -5.4572850000      3.2363020000
O                  3.2536020000     -1.5710120000     -0.4149220000
C                  5.9332400000     -6.4904930000      2.3057860000
H                  7.5530730000     -5.8706750000      0.2998380000
H                  1.5542560000     -1.9515790000      1.4135280000
C                  5.5524260000     -2.2169210000     -1.7104180000
H                  7.3947070000     -4.0934980000     -1.3701840000
H                  6.8548230000     -7.0266980000      2.0696060000
H                  5.0995680000     -7.1947570000      2.2839290000
H                  5.9889800000     -6.1281970000      3.3338830000
H                  1.7167400000     -3.7783440000      3.1293010000
H                  5.5523040000     -1.2106350000     -1.2874810000
H                  4.6605710000     -2.2755510000     -2.3369480000
H                  6.4359810000     -2.3347360000     -2.3413230000
$end

$rem
BASIS  =  6-311++G(d,p)
GUI  =  2
JOB_TYPE  =  SP
METHOD  =  B3LYP
SCF_CONVERGENCE  = 8
SOLVENT_METHOD = sm12
$end

$smx
solvent dimethylformamide
charges CM5
$end

--------------------------------------------------------------

             Standard Nuclear Orientation (Angstroms)
    I     Atom           X                Y                Z
 ----------------------------------------------------------------
    1      C       5.7400620000    -5.3619530000     1.3229850000
    2      C       6.7079570000    -5.1911710000     0.3275620000
    3      C       6.6182800000    -4.1847540000    -0.6181560000
    4      C       4.6526950000    -4.4605450000     1.3307860000
    5      C       4.5603390000    -3.4233980000     0.3563520000
    6      C       5.5542700000    -3.2767670000    -0.6364330000
    7      C       3.5852790000    -4.5927230000     2.3706350000
    8      C       2.4592020000    -3.6333240000     2.3522230000
    9      C       2.3728680000    -2.6624090000     1.4403140000
   10      C       3.3975070000    -2.4826430000     0.3883770000
   11      O       3.5995190000    -5.4572850000     3.2363020000
   12      O       3.2536020000    -1.5710120000    -0.4149220000
   13      C       5.9332400000    -6.4904930000     2.3057860000
   14      H       7.5530730000    -5.8706750000     0.2998380000
   15      H       1.5542560000    -1.9515790000     1.4135280000
   16      C       5.5524260000    -2.2169210000    -1.7104180000
   17      H       7.3947070000    -4.0934980000    -1.3701840000
   18      H       6.8548230000    -7.0266980000     2.0696060000
   19      H       5.0995680000    -7.1947570000     2.2839290000
   20      H       5.9889800000    -6.1281970000     3.3338830000
   21      H       1.7167400000    -3.7783440000     3.1293010000
   22      H       5.5523040000    -1.2106350000    -1.2874810000
   23      H       4.6605710000    -2.2755510000    -2.3369480000
   24      H       6.4359810000    -2.3347360000    -2.3413230000
 ----------------------------------------------------------------

   13    -613.9047151534      9.22e-09  Convergence criterion met
 Total energy in the final basis set =     -613.9208528449

                    Orbital Energies (a.u.)
 --------------------------------------------------------------

 Alpha MOs
 -- Occupied --
-19.1273 -19.1273 -10.2782 -10.2782 -10.2091 -10.2088 -10.2085 -10.2083
-10.2051 -10.2042 -10.1918 -10.1912 -10.1671 -10.1670  -1.0617  -1.0599
 -0.8888  -0.8388  -0.8068  -0.7732  -0.7288  -0.7054  -0.6620  -0.6420
 -0.6340  -0.5582  -0.5318  -0.5272  -0.5011  -0.4861  -0.4582  -0.4562
 -0.4533  -0.4284  -0.4283  -0.4232  -0.4141  -0.4126  -0.4010  -0.3972
 -0.3790  -0.3742  -0.3643  -0.3599  -0.3033  -0.2787  -0.2764  -0.2677
 -0.2604

          Ground-State Mulliken Net Atomic Charges

     Atom                 Charge (a.u.)
  ----------------------------------------
      1 C                     0.876657
      2 C                    -0.273053
      3 C                    -0.277080
      4 C                    -0.179486
      5 C                    -0.180402
      6 C                     0.874990
      7 C                    -1.585618
      8 C                     0.390944
      9 C                     0.390417
     10 C                    -1.588160
     11 O                    -0.280615
     12 O                    -0.281522
     13 C                    -0.023192
     14 H                     0.267715
     15 H                     0.316699
     16 C                    -0.024132
     17 H                     0.267410
     18 H                     0.200733
     19 H                     0.147932
     20 H                     0.147649
     21 H                     0.316794
     22 H                     0.147515
     23 H                     0.147392
     24 H                     0.200414
  ----------------------------------------
  Sum of atomic charges =     0.000000

                    Cartesian Multipole Moments
 -----------------------------------------------------------------
    Charge (ESU x 10^10)
                 0.0000
    Dipole Moment (Debye)
         X       1.8734      Y      -0.6814      Z      -0.8987
       Tot       2.1867
    Quadrupole Moments (Debye-Ang)
        XX     -55.2449     XY     -13.8629     YY     -81.8664
        XZ      -8.1113     YZ      10.0503     ZZ     -87.0450

 Total job time:  332.53s(wall), 2530.65s(cpu)
        *  Thank you very much for using Q-Chem.  Have a nice day.  *
