 Gaussian 16, Revision A.03,
 Gaussian 16:  ES64L-G16RevA.03 25-Dec-2016

 ----------------------------------------------------------------
 #P UB3LYP/6-311++G(d,p) SCRF=(PCM,Solvent=n,n-DiMethylFormamide)
 ----------------------------------------------------------------

 -------
 Reduced
 -------
 Symbolic Z-matrix:
 Charge = -2 Multiplicity = 1

                         Standard orientation:
 ---------------------------------------------------------------------
 Center     Atomic      Atomic             Coordinates (Angstroms)
 Number     Number       Type             X           Y           Z
 ---------------------------------------------------------------------
      1          6           0       -1.076896    0.873267    0.093976
      2          6           0       -1.346409   -0.468241   -0.085270
      3          6           0       -0.253656   -1.419103   -0.234135
      4          8           0       -0.463816   -2.665174   -0.404147
      5          6           0        1.077037   -0.862507   -0.175325
      6          6           0        1.346534    0.478679    0.005964
      7          6           0        0.253715    1.430310    0.149757
      8          8           0        0.463924    2.676848    0.316213
      9          1           0        1.881122   -1.585284   -0.285408
     10          6           0        2.743232    1.058248    0.066162
     11          6           0        3.912747    0.076921   -0.057761
     12          6           0        5.280911    0.766504    0.030146
     13          6           0        6.476398   -0.185819   -0.112940
     14          6           0        7.832569    0.527744   -0.026330
     15          6           0        9.077402   -0.351838   -0.257328
     16          6           0       10.340712    0.515155   -0.362142
     17          6           0        9.250350   -1.425489    0.827327
     18          6           0       -2.743050   -1.047966   -0.144539
     19          6           0       -3.911660   -0.074460    0.036078
     20          6           0       -5.279654   -0.766596   -0.032245
     21          6           0       -6.474115    0.181504    0.143040
     22          6           0       -7.830140   -0.534952    0.083023
     23          6           0       -9.071662    0.341893    0.341063
     24          6           0      -10.329813   -0.528347    0.477026
     25          6           0       -9.272605    1.412113   -0.742213
     26          1           0       -1.880966    1.595848    0.205519
     27          1           0        2.839062    1.625468    1.002630
     28          1           0        2.830772    1.827811   -0.714398
     29          1           0        3.844009   -0.464876   -1.009545
     30          1           0        3.843155   -0.685592    0.728370
     31          1           0        5.356735    1.296886    0.989138
     32          1           0        5.344841    1.541048   -0.746058
     33          1           0        6.406164   -0.710042   -1.075771
     34          1           0        6.407187   -0.960539    0.659626
     35          1           0        7.924288    1.016910    0.953868
     36          1           0        7.844193    1.338829   -0.766635
     37          1           0        8.945505   -0.866494   -1.219524
     38          1           0       10.253371    1.252079   -1.168766
     39          1           0       11.233120   -0.088645   -0.560045
     40          1           0       10.518127    1.064870    0.570399
     41          1           0       10.147235   -2.027374    0.644915
     42          1           0        8.395485   -2.106218    0.869896
     43          1           0        9.360689   -0.963894    1.815982
     44          1           0       -2.814364   -1.848473    0.605078
     45          1           0       -2.856189   -1.577096   -1.101898
     46          1           0       -3.865795    0.708356   -0.731459
     47          1           0       -3.818628    0.442635    0.999563
     48          1           0       -5.326324   -1.549274    0.737139
     49          1           0       -5.373001   -1.287439   -0.994880
     50          1           0       -6.424464    0.959977   -0.627448
     51          1           0       -6.383393    0.701709    1.106220
     52          1           0       -7.824758   -1.347321    0.822029
     53          1           0       -7.940953   -1.022525   -0.895900
     54          1           0       -8.918771    0.859327    1.298668
     55          1           0      -11.219699    0.073444    0.691565
     56          1           0      -10.222551   -1.261961    1.284264
     57          1           0      -10.525745   -1.082182   -0.449374
     58          1           0      -10.165294    2.013856   -0.539502
     59          1           0       -9.407088    0.947314   -1.726350
     60          1           0       -8.419627    2.093355   -0.808458
 ---------------------------------------------------------------------

 SCF Done:  E(UB3LYP) =  -1011.00531954     A.U. after   18 cycles

 The electronic state is 1-A.
 Alpha  occ. eigenvalues --  -19.00181 -19.00180 -10.16719 -10.16717 -10.15469
 Alpha  occ. eigenvalues --  -10.15469 -10.15364 -10.15364 -10.15153 -10.15152
 Alpha  occ. eigenvalues --  -10.15126 -10.15125 -10.15070 -10.15068 -10.14930
 Alpha  occ. eigenvalues --  -10.14929 -10.14554 -10.14554 -10.13705 -10.13704
 Alpha  occ. eigenvalues --  -10.11175 -10.11174 -10.10269 -10.10267  -0.92559
 Alpha  occ. eigenvalues --   -0.92268  -0.80928  -0.80920  -0.78617  -0.78231
 Alpha  occ. eigenvalues --   -0.76234  -0.74286  -0.72055  -0.69273  -0.67812
 Alpha  occ. eigenvalues --   -0.67812  -0.66249  -0.64443  -0.62073  -0.60564
 Alpha  occ. eigenvalues --   -0.57651  -0.57168  -0.56162  -0.55244  -0.55010
 Alpha  occ. eigenvalues --   -0.52095  -0.49181  -0.47135  -0.47119  -0.45065
 Alpha  occ. eigenvalues --   -0.45002  -0.43510  -0.43402  -0.42909  -0.42461
 Alpha  occ. eigenvalues --   -0.42029  -0.41455  -0.40740  -0.40436  -0.39188
 Alpha  occ. eigenvalues --   -0.38465  -0.38119  -0.37915  -0.37603  -0.37307
 Alpha  occ. eigenvalues --   -0.36711  -0.36297  -0.36164  -0.34904  -0.34554
 Alpha  occ. eigenvalues --   -0.34223  -0.34043  -0.33606  -0.33565  -0.32930
 Alpha  occ. eigenvalues --   -0.32278  -0.31681  -0.31636  -0.31607  -0.31300
 Alpha  occ. eigenvalues --   -0.31255  -0.31079  -0.30989  -0.30593  -0.29805
 Alpha  occ. eigenvalues --   -0.29350  -0.29283  -0.28269  -0.21263  -0.19491
 Alpha  occ. eigenvalues --   -0.18309  -0.17741  -0.09469
 Alpha virt. eigenvalues --   -0.00284  -0.00178   0.00513   0.00914   0.01244
 Alpha virt. eigenvalues --    0.01269   0.01281   0.01479   0.02278   0.02529
 Alpha virt. eigenvalues --    0.02595   0.03071   0.03559   0.03596   0.04295

  Beta  occ. eigenvalues --  -19.00181 -19.00180 -10.16719 -10.16717 -10.15469
  Beta  occ. eigenvalues --  -10.15469 -10.15364 -10.15364 -10.15153 -10.15152
  Beta  occ. eigenvalues --  -10.15126 -10.15125 -10.15070 -10.15068 -10.14930
  Beta  occ. eigenvalues --  -10.14929 -10.14554 -10.14554 -10.13705 -10.13704
  Beta  occ. eigenvalues --  -10.11175 -10.11174 -10.10269 -10.10267  -0.92559
  Beta  occ. eigenvalues --   -0.92268  -0.80928  -0.80920  -0.78617  -0.78231
  Beta  occ. eigenvalues --   -0.76234  -0.74286  -0.72055  -0.69273  -0.67812
  Beta  occ. eigenvalues --   -0.67812  -0.66249  -0.64443  -0.62073  -0.60564
  Beta  occ. eigenvalues --   -0.57651  -0.57168  -0.56162  -0.55244  -0.55010
  Beta  occ. eigenvalues --   -0.52095  -0.49181  -0.47135  -0.47119  -0.45065
  Beta  occ. eigenvalues --   -0.45002  -0.43510  -0.43402  -0.42909  -0.42461
  Beta  occ. eigenvalues --   -0.42029  -0.41455  -0.40740  -0.40436  -0.39188
  Beta  occ. eigenvalues --   -0.38465  -0.38119  -0.37915  -0.37603  -0.37307
  Beta  occ. eigenvalues --   -0.36711  -0.36297  -0.36164  -0.34904  -0.34554
  Beta  occ. eigenvalues --   -0.34223  -0.34043  -0.33606  -0.33565  -0.32930
  Beta  occ. eigenvalues --   -0.32278  -0.31681  -0.31636  -0.31607  -0.31300
  Beta  occ. eigenvalues --   -0.31255  -0.31079  -0.30989  -0.30593  -0.29805
  Beta  occ. eigenvalues --   -0.29350  -0.29283  -0.28269  -0.21263  -0.19491
  Beta  occ. eigenvalues --   -0.18309  -0.17741  -0.09469
  Beta virt. eigenvalues --   -0.00284  -0.00178   0.00513   0.00914   0.01244
  Beta virt. eigenvalues --    0.01269   0.01281   0.01479   0.02278   0.02529
  Beta virt. eigenvalues --    0.02595   0.03071   0.03559   0.03596   0.04295

 Mulliken charges and spin densities:
               1          2
     1  C   -1.196082   0.000000
     2  C    1.486508  -0.000000
     3  C   -0.666207  -0.000000
     4  O   -0.703511   0.000000
     5  C   -1.197788   0.000000
     6  C    1.478318  -0.000000
     7  C   -0.669518  -0.000000
     8  O   -0.703483  -0.000000
     9  H    0.092675   0.000000
    10  C   -0.326092  -0.000000
    11  C   -0.123107   0.000000
    12  C   -0.368632  -0.000000
    13  C    0.035959   0.000000
    14  C   -0.698984   0.000000
    15  C    0.503892  -0.000000
    16  C   -0.648383   0.000000
    17  C   -0.694527  -0.000000
    18  C   -0.331572  -0.000000
    19  C   -0.130170   0.000000
    20  C   -0.359792  -0.000000
    21  C    0.035975   0.000000
    22  C   -0.704734  -0.000000
    23  C    0.501843   0.000000
    24  C   -0.648963  -0.000000
    25  C   -0.693014  -0.000000
    26  H    0.092632   0.000000
    27  H    0.150713   0.000000
    28  H    0.149748   0.000000
    29  H    0.129958  -0.000000
    30  H    0.131912  -0.000000
    31  H    0.129782   0.000000
    32  H    0.117856   0.000000
    33  H    0.132082   0.000000
    34  H    0.103319   0.000000
    35  H    0.132705  -0.000000
    36  H    0.129455  -0.000000
    37  H    0.139173  -0.000000
    38  H    0.135222   0.000000
    39  H    0.159280   0.000000
    40  H    0.140544   0.000000
    41  H    0.145400   0.000000
    42  H    0.147137   0.000000
    43  H    0.144647  -0.000000
    44  H    0.149864   0.000000
    45  H    0.150268   0.000000
    46  H    0.131468  -0.000000
    47  H    0.130733  -0.000000
    48  H    0.116989   0.000000
    49  H    0.130126   0.000000
    50  H    0.102722   0.000000
    51  H    0.132061   0.000000
    52  H    0.129109   0.000000
    53  H    0.133602  -0.000000
    54  H    0.139207   0.000000
    55  H    0.159342  -0.000000
    56  H    0.135172  -0.000000
    57  H    0.140676   0.000000
    58  H    0.145247   0.000000
    59  H    0.144441   0.000000
    60  H    0.146796   0.000000
 Sum of Mulliken charges =  -2.00000  -0.00000

 Dipole moment (field-independent basis, Debye):
    X=              0.0026    Y=             -0.0538    Z=              0.4083  Tot=              0.4119
 Quadrupole moment (field-independent basis, Debye-Ang):
   XX=           -179.7043   YY=           -225.4913   ZZ=           -164.4774
   XY=            -10.9773   XZ=             -3.3076   YZ=             -7.7259

 Normal termination of Gaussian 16 at Sun Jan 21 08:02:06 2024.
