 Gaussian 16, Revision A.03,
 Gaussian 16:  ES64L-G16RevA.03 25-Dec-2016

 -------------------------------
 #P UB3LYP/genecp nosym opt freq
 -------------------------------

 --------
 Oxidized
 --------
 Symbolic Z-matrix:
 Charge =  0 Multiplicity = 1

 SCF Done:  E(UB3LYP) =  -1570.30394316     A.U. after   19 cycles
 SCF Done:  E(UB3LYP) =  -1570.32523124     A.U. after   14 cycles
 SCF Done:  E(UB3LYP) =  -1570.32903593     A.U. after   16 cycles
 SCF Done:  E(UB3LYP) =  -1570.32943116     A.U. after   13 cycles
 SCF Done:  E(UB3LYP) =  -1570.32947245     A.U. after   11 cycles
 SCF Done:  E(UB3LYP) =  -1570.32947327     A.U. after    9 cycles
 Optimization completed.
    -- Stationary point found.

 1\1\GINC-ACIDSCN001\FOpt\UB3LYP\GenECP\C6I4O2\SELHAJJ1\21-Dec-2023\0\\
 #P UB3LYP/genecp nosym opt freq\\Oxidized\\0,1\I,-3.3692516084,-1.0643
 852254,-0.1527129549\C,-1.4119389219,-0.3340071812,-0.0622527344\C,-1.
 0789587215,0.9714769715,-0.0284224804\I,-2.4466603741,2.5529746735,-0.
 0588385434\C,0.3589143186,1.4069811217,0.0364082239\O,0.6574134936,2.5
 784795981,0.0667689885\C,1.411935853,0.3340231953,0.0622206919\C,1.078
 985176,-0.9714935006,0.028395331\I,2.4466410094,-2.5529902383,0.058917
 3534\C,-0.3589220414,-1.406984841,-0.0365225167\O,-0.6574496655,-2.578

 Normal termination of Gaussian 16 at Thu Dec 21 04:26:56 2023.

 ------------------------------------------------------------------
 #P Geom=AllCheck Guess=TCheck SCRF=Check GenChk UB3LYP/GenECP Freq
 ------------------------------------------------------------------

 Structure from the checkpoint file:  "031.chk"
 --------
 Oxidized
 --------
 Charge =  0 Multiplicity = 1

                          Input orientation:
 ---------------------------------------------------------------------
 Center     Atomic      Atomic             Coordinates (Angstroms)
 Number     Number       Type             X           Y           Z
 ---------------------------------------------------------------------
      1         53           0       -3.369252   -1.064385   -0.152713
      2          6           0       -1.411939   -0.334007   -0.062253
      3          6           0       -1.078959    0.971477   -0.028422
      4         53           0       -2.446660    2.552975   -0.058839
      5          6           0        0.358914    1.406981    0.036408
      6          8           0        0.657413    2.578480    0.066769
      7          6           0        1.411936    0.334023    0.062221
      8          6           0        1.078985   -0.971494    0.028395
      9         53           0        2.446641   -2.552990    0.058917
     10          6           0       -0.358922   -1.406985   -0.036523
     11          8           0       -0.657450   -2.578487   -0.066736
     12         53           0        3.369291    1.064413    0.152775
 ---------------------------------------------------------------------

 SCF Done:  E(UB3LYP) =  -1570.32947327     A.U. after    2 cycles

 Alpha  occ. eigenvalues --  -19.16326 -19.16326 -10.31964 -10.31963 -10.27402
 Alpha  occ. eigenvalues --  -10.27400 -10.27326 -10.27326  -6.87094  -6.87094
 Alpha  occ. eigenvalues --   -6.87093  -6.87093  -4.89616  -4.89616  -4.89615
 Alpha  occ. eigenvalues --   -4.89615  -4.88405  -4.88404  -4.88404  -4.88404
 Alpha  occ. eigenvalues --   -4.88234  -4.88234  -4.88234  -4.88233  -1.94432
 Alpha  occ. eigenvalues --   -1.94432  -1.94430  -1.94430  -1.94053  -1.94052
 Alpha  occ. eigenvalues --   -1.94052  -1.94052  -1.93922  -1.93922  -1.93917
 Alpha  occ. eigenvalues --   -1.93917  -1.92870  -1.92870  -1.92869  -1.92869
 Alpha  occ. eigenvalues --   -1.92867  -1.92867  -1.92864  -1.92864  -1.10198
 Alpha  occ. eigenvalues --   -1.10014  -0.89899  -0.84546  -0.76288  -0.75148
 Alpha  occ. eigenvalues --   -0.73554  -0.70102  -0.69169  -0.61601  -0.61238
 Alpha  occ. eigenvalues --   -0.56358  -0.50062  -0.48732  -0.48323  -0.44827
 Alpha  occ. eigenvalues --   -0.43217  -0.42742  -0.41876  -0.39352  -0.37686
 Alpha  occ. eigenvalues --   -0.35863  -0.31809  -0.30949  -0.30752  -0.29960
 Alpha  occ. eigenvalues --   -0.29868  -0.29606  -0.27951  -0.27071  -0.26383
 Alpha  occ. eigenvalues --   -0.25890
 Alpha virt. eigenvalues --   -0.15731  -0.09031  -0.07381  -0.06496  -0.05020
 Alpha virt. eigenvalues --   -0.02803  -0.01271  -0.00355   0.02669   0.03603
 Alpha virt. eigenvalues --    0.04934   0.06157   0.06429   0.06773   0.06982

  Beta  occ. eigenvalues --  -19.16326 -19.16326 -10.31964 -10.31963 -10.27402
  Beta  occ. eigenvalues --  -10.27400 -10.27326 -10.27326  -6.87094  -6.87094
  Beta  occ. eigenvalues --   -6.87093  -6.87093  -4.89616  -4.89616  -4.89615
  Beta  occ. eigenvalues --   -4.89615  -4.88405  -4.88404  -4.88404  -4.88404
  Beta  occ. eigenvalues --   -4.88234  -4.88234  -4.88234  -4.88233  -1.94432
  Beta  occ. eigenvalues --   -1.94432  -1.94430  -1.94430  -1.94053  -1.94052
  Beta  occ. eigenvalues --   -1.94052  -1.94052  -1.93922  -1.93922  -1.93917
  Beta  occ. eigenvalues --   -1.93917  -1.92870  -1.92870  -1.92869  -1.92869
  Beta  occ. eigenvalues --   -1.92867  -1.92867  -1.92864  -1.92864  -1.10198
  Beta  occ. eigenvalues --   -1.10014  -0.89899  -0.84546  -0.76288  -0.75148
  Beta  occ. eigenvalues --   -0.73554  -0.70102  -0.69169  -0.61601  -0.61238
  Beta  occ. eigenvalues --   -0.56358  -0.50062  -0.48732  -0.48323  -0.44827
  Beta  occ. eigenvalues --   -0.43217  -0.42742  -0.41876  -0.39352  -0.37686
  Beta  occ. eigenvalues --   -0.35863  -0.31809  -0.30949  -0.30752  -0.29960
  Beta  occ. eigenvalues --   -0.29868  -0.29606  -0.27951  -0.27071  -0.26383
  Beta  occ. eigenvalues --   -0.25890
  Beta virt. eigenvalues --   -0.15731  -0.09031  -0.07381  -0.06496  -0.05020
  Beta virt. eigenvalues --   -0.02803  -0.01271  -0.00355   0.02669   0.03603
  Beta virt. eigenvalues --    0.04934   0.06157   0.06429   0.06773   0.06982

 Mulliken charges and spin densities:
               1          2
     1  I    0.022079   0.000000
     2  C    0.980220  -0.000000
     3  C    0.980758   0.000000
     4  I    0.022093  -0.000000
     5  C   -1.942150  -0.000000
     6  O   -0.063079   0.000000
     7  C    0.980512   0.000000
     8  C    0.980421  -0.000000
     9  I    0.022106  -0.000000
    10  C   -1.941952   0.000000
    11  O   -0.063079   0.000000
    12  I    0.022071  -0.000000
 Sum of Mulliken charges =  -0.00000   0.00000

 Dipole moment (field-independent basis, Debye):
    X=              0.0000    Y=             -0.0002    Z=             -0.0001  Tot=              0.0003
 Quadrupole moment (field-independent basis, Debye-Ang):
   XX=           -137.7148   YY=           -157.8186   ZZ=           -150.3539
   XY=             -5.4997   XZ=              0.4251   YZ=             -0.3376

  Exact polarizability: 267.038  -0.535 265.647   5.779   2.197 124.004
 Approx polarizability: 412.915  35.556 544.078   8.280   6.473 222.075

                      1                      2                      3
                      A                      A                      A
 Frequencies --     19.2106                23.6203                54.2161
 Red. masses --     16.7852               122.3275                17.6146
 Frc consts  --      0.0036                 0.0402                 0.0305
 IR Inten    --      1.8057                 0.0002                 0.0000

                      4                      5                      6
                      A                      A                      A
 Frequencies --     91.1535                98.6538               100.8144
 Red. masses --    125.7366                56.0540               100.9444
 Frc consts  --      0.6155                 0.3214                 0.6045
 IR Inten    --      0.0000                 0.3324                 0.8911

                      7                      8                      9
                      A                      A                      A
 Frequencies --    140.0093               150.3600               156.1305
 Red. masses --     97.3519                13.1647               109.2579
 Frc consts  --      1.1244                 0.1754                 1.5692
 IR Inten    --      0.0000                 0.8393                 0.0000

                     10                     11                     12
                      A                      A                      A
 Frequencies --    261.4305               279.8116               288.6190
 Red. masses --     12.1882                15.6588                18.4256
 Frc consts  --      0.4908                 0.7223                 0.9043
 IR Inten    --      0.0000                 0.0000                 0.0023

                     13                     14                     15
                      A                      A                      A
 Frequencies --    326.5897               379.2047               468.6444
 Red. masses --     17.2004                12.2754                13.9809
 Frc consts  --      1.0809                 1.0400                 1.8091
 IR Inten    --      4.9635                 0.0000                 0.0000

                     16                     17                     18
                      A                      A                      A
 Frequencies --    500.7191               571.6442               679.4794
 Red. masses --     12.0420                13.4320                12.6586
 Frc consts  --      1.7788                 2.5861                 3.4434
 IR Inten    --      0.0000               118.7418                 0.0000

                     19                     20                     21
                      A                      A                      A
 Frequencies --    715.7199               722.2948               771.8491
 Red. masses --     12.4152                12.2093                12.1472
 Frc consts  --      3.7471                 3.7529                 4.2637
 IR Inten    --      0.0000                15.7096                 0.0000

                     22                     23                     24
                      A                      A                      A
 Frequencies --    843.7113               862.2577              1010.1394
 Red. masses --     12.8020                12.3119                12.0287
 Frc consts  --      5.3693                 5.3933                 7.2316
 IR Inten    --     22.8883                 0.0000               407.6286

                     25                     26                     27
                      A                      A                      A
 Frequencies --   1156.9126              1169.7924              1552.3759
 Red. masses --     12.0637                12.0224                12.0086
 Frc consts  --      9.5133                 9.6930                17.0504
 IR Inten    --    305.1349                 0.0009               317.3217

                     28                     29                     30
                      A                      A                      A
 Frequencies --   1582.4385              1729.1737              1730.8555
 Red. masses --     12.0006                13.3160                13.2805
 Frc consts  --     17.7054                23.4586                23.4415
 IR Inten    --      0.0010                 0.0606               318.5011

 - Thermochemistry -
 -------------------
 Temperature   298.150 Kelvin.  Pressure   1.00000 Atm.
 Atom     1 has atomic number 53 and mass 126.90040

 Molecular mass:   611.59143 amu.
 Principal axes and moments of inertia in atomic units:
                           1         2         3
     Eigenvalues --  7387.72632********************
           X            0.96818   0.24699  -0.04035
           Y           -0.24777   0.96869  -0.01563
           Z            0.03523   0.02513   0.99906
 This molecule is an asymmetric top.
 Rotational symmetry number  1.
 Warning -- assumption of classical behavior for rotation
           may cause significant error
 Rotational temperatures (Kelvin)      0.01172     0.00521     0.00361
 Rotational constants (GHZ):           0.24429     0.10848     0.07512
 Zero-point vibrational energy     110282.7 (Joules/Mol)
                                   26.35820 (Kcal/Mol)
 Warning -- explicit consideration of  17 degrees of freedom as
           vibrations may cause significant error
 Vibrational temperatures:     27.64    33.98    78.00   131.15   141.94
          (Kelvin)            145.05   201.44   216.33   224.64   376.14
                              402.59   415.26   469.89   545.59   674.27
                              720.42   822.47   977.62  1029.76  1039.22
                             1110.52  1213.91  1240.60  1453.37  1664.54
                             1683.07  2233.52  2276.78  2487.90  2490.32

 Zero-point correction=                           0.042004 (Hartree/Particle)
 Thermal correction to Energy=                    0.054964
 Thermal correction to Enthalpy=                  0.055908
 Thermal correction to Gibbs Free Energy=        -0.005058
 Sum of electronic and zero-point Energies=          -1570.287469
 Sum of electronic and thermal Energies=             -1570.274509
 Sum of electronic and thermal Enthalpies=           -1570.273565
 Sum of electronic and thermal Free Energies=        -1570.334531

                     E (Thermal)             CV                S
                      KCal/Mol        Cal/Mol-Kelvin    Cal/Mol-Kelvin
 Total                   34.491             40.720            128.314
 Electronic               0.000              0.000              0.000
 Translational            0.889              2.981             45.116
 Rotational               0.889              2.981             36.333
 Vibrational             32.713             34.758             46.865
 Vibration     1          0.593              1.986              6.714
 Vibration     2          0.593              1.985              6.304
 Vibration     3          0.596              1.976              4.657
 Vibration     4          0.602              1.955              3.635
 Vibration     5          0.604              1.950              3.481
 Vibration     6          0.604              1.948              3.439
 Vibration     7          0.615              1.913              2.804
 Vibration     8          0.618              1.902              2.668
 Vibration     9          0.620              1.896              2.596
 Vibration    10          0.669              1.743              1.652
 Vibration    11          0.680              1.711              1.535
 Vibration    12          0.685              1.695              1.482
 Vibration    13          0.710              1.622              1.277
 Vibration    14          0.749              1.514              1.042
 Vibration    15          0.826              1.320              0.741
 Vibration    16          0.856              1.248              0.656
 Vibration    17          0.928              1.093              0.501

 Optimization completed.
    -- Stationary point found.

 1\1\GINC-ACIDSCN001\Freq\UB3LYP\GenECP\C6I4O2\SELHAJJ1\21-Dec-2023\0\\
 #P Geom=AllCheck Guess=TCheck SCRF=Check GenChk UB3LYP/GenECP Freq\\Ox
 idized\\0,1\I,-3.3692516084,-1.0643852254,-0.1527129549\C,-1.411938921
 9,-0.3340071812,-0.0622527344\C,-1.0789587215,0.9714769715,-0.02842248
 04\I,-2.4466603741,2.5529746735,-0.0588385434\C,0.3589143186,1.4069811
 217,0.0364082239\O,0.6574134936,2.5784795981,0.0667689885\C,1.41193585
 3,0.3340231953,0.0622206919\C,1.078985176,-0.9714935006,0.028395331\I,
 2.4466410094,-2.5529902383,0.0589173534\C,-0.3589220414,-1.406984841,-

 Normal termination of Gaussian 16 at Thu Dec 21 04:43:29 2023.
