 Gaussian 16, Revision A.03,
 Gaussian 16:  ES64L-G16RevA.03 25-Dec-2016

 --------------------------------------
 #P UB3LYP/6-311++G(d,p) nosym opt freq
 --------------------------------------

 --------
 Oxidized
 --------
 Symbolic Z-matrix:
 Charge =  0 Multiplicity = 1

 SCF Done:  E(UB3LYP) =  -1029.21514014     A.U. after   16 cycles
 SCF Done:  E(UB3LYP) =  -1029.26097622     A.U. after   13 cycles
 SCF Done:  E(UB3LYP) =  -1029.30210009     A.U. after   14 cycles
 SCF Done:  E(UB3LYP) =  -1029.31344765     A.U. after   14 cycles
 SCF Done:  E(UB3LYP) =  -1029.31569941     A.U. after   13 cycles
 SCF Done:  E(UB3LYP) =  -1029.31589177     A.U. after   13 cycles
 SCF Done:  E(UB3LYP) =  -1029.31637236     A.U. after   12 cycles
 SCF Done:  E(UB3LYP) =  -1029.31659650     A.U. after   12 cycles
 SCF Done:  E(UB3LYP) =  -1029.31680343     A.U. after   13 cycles
 SCF Done:  E(UB3LYP) =  -1029.31697127     A.U. after   12 cycles
 SCF Done:  E(UB3LYP) =  -1029.31704162     A.U. after   13 cycles
 SCF Done:  E(UB3LYP) =  -1029.31717362     A.U. after   12 cycles
 SCF Done:  E(UB3LYP) =  -1029.31719024     A.U. after   11 cycles
 SCF Done:  E(UB3LYP) =  -1029.31719535     A.U. after   10 cycles
 SCF Done:  E(UB3LYP) =  -1029.31719564     A.U. after    9 cycles
 SCF Done:  E(UB3LYP) =  -1029.31719582     A.U. after    8 cycles
 Optimization completed.
    -- Stationary point found.
 Normal termination of Gaussian 16 at Thu Dec 21 20:09:23 2023.

 ----------------------------------------------------------------------
 #P Geom=AllCheck Guess=TCheck SCRF=Check GenChk UB3LYP/6-311++G(d,p) F
 req
 ----------------------------------------------------------------------

 Structure from the checkpoint file:  "206.chk"
 --------
 Oxidized
 --------
 Charge =  0 Multiplicity = 1

                          Input orientation:
 ---------------------------------------------------------------------
 Center     Atomic      Atomic             Coordinates (Angstroms)
 Number     Number       Type             X           Y           Z
 ---------------------------------------------------------------------
      1          6           0       -4.559483    0.890396    0.345829
      2          6           0       -3.215420    0.241374    0.178017
      3          6           0       -3.076650   -1.108366   -0.057443
      4          6           0       -1.813788   -1.718110   -0.214985
      5          8           0       -1.795875   -3.037536   -0.440230
      6          6           0       -0.650275   -0.934643   -0.131363
      7          6           0        0.656386   -1.546896   -0.291218
      8          8           0        0.759757   -2.789418   -0.506572
      9          6           0        1.849585   -0.715605   -0.200546
     10          6           0        3.122107   -1.293490   -0.352829
     11          8           0        3.317098   -2.598075   -0.582945
     12          6           0        4.269551   -0.474295   -0.262296
     13          6           0        4.157662    0.873420   -0.028517
     14          6           0        2.891929    1.480413    0.128449
     15          8           0        2.869811    2.800110    0.353748
     16          6           0        1.732239    0.688495    0.043185
     17          6           0        0.420281    1.299882    0.203110
     18          8           0        0.319045    2.542526    0.418277
     19          6           0       -0.771670    0.468753    0.112513
     20          6           0       -2.042801    1.045946    0.264829
     21          8           0       -2.226660    2.352995    0.494973
     22          1           0       -4.708630    1.672423   -0.403887
     23          1           0       -4.634901    1.378957    1.321281
     24          1           0       -5.361266    0.157002    0.255334
     25          1           0       -3.950377   -1.746034   -0.128667
     26          1           0       -0.849119   -3.304697   -0.526197
     27          1           0        2.426595   -3.023392   -0.617654
     28          1           0        5.238343   -0.943725   -0.383218
     29          1           0        5.034858    1.505152    0.041610
     30          1           0        1.922963    3.065044    0.439270
     31          1           0       -1.331295    2.771392    0.528142
 ---------------------------------------------------------------------

 SCF Done:  E(UB3LYP) =  -1029.31719582     A.U. after    1 cycles

 Alpha  occ. eigenvalues --  -19.16875 -19.16734 -19.16675 -19.16622 -19.14893
 Alpha  occ. eigenvalues --  -19.14634 -10.29660 -10.29442 -10.27406 -10.27329
 Alpha  occ. eigenvalues --  -10.27313 -10.27294 -10.22208 -10.21833 -10.21761
 Alpha  occ. eigenvalues --  -10.21758 -10.21479 -10.21186 -10.21118 -10.20684
 Alpha  occ. eigenvalues --  -10.18748  -1.10243  -1.09954  -1.09009  -1.08808
 Alpha  occ. eigenvalues --   -1.06070  -1.05839  -0.90284  -0.88478  -0.83724
 Alpha  occ. eigenvalues --   -0.80020  -0.78318  -0.76895  -0.73671  -0.70680
 Alpha  occ. eigenvalues --   -0.68735  -0.66514  -0.64268  -0.63129  -0.59169
 Alpha  occ. eigenvalues --   -0.56803  -0.56128  -0.55485  -0.55138  -0.54911
 Alpha  occ. eigenvalues --   -0.50769  -0.49284  -0.48473  -0.48116  -0.47547
 Alpha  occ. eigenvalues --   -0.46849  -0.45924  -0.44761  -0.44759  -0.44477
 Alpha  occ. eigenvalues --   -0.43789  -0.43322  -0.43285  -0.42058  -0.40635
 Alpha  occ. eigenvalues --   -0.40365  -0.39926  -0.39918  -0.39764  -0.38297
 Alpha  occ. eigenvalues --   -0.38155  -0.34295  -0.33350  -0.31034  -0.30151
 Alpha  occ. eigenvalues --   -0.29154  -0.28611  -0.25068  -0.23001
 Alpha virt. eigenvalues --   -0.13157  -0.07230  -0.05016  -0.01259  -0.00987
 Alpha virt. eigenvalues --   -0.00387   0.00546   0.00635   0.01821   0.01981
 Alpha virt. eigenvalues --    0.02819   0.03218   0.03282   0.03490   0.03599

  Beta  occ. eigenvalues --  -19.16875 -19.16734 -19.16675 -19.16622 -19.14893
  Beta  occ. eigenvalues --  -19.14634 -10.29660 -10.29442 -10.27406 -10.27329
  Beta  occ. eigenvalues --  -10.27313 -10.27294 -10.22208 -10.21833 -10.21761
  Beta  occ. eigenvalues --  -10.21758 -10.21479 -10.21186 -10.21118 -10.20684
  Beta  occ. eigenvalues --  -10.18748  -1.10243  -1.09954  -1.09009  -1.08808
  Beta  occ. eigenvalues --   -1.06070  -1.05839  -0.90284  -0.88478  -0.83724
  Beta  occ. eigenvalues --   -0.80020  -0.78318  -0.76895  -0.73671  -0.70680
  Beta  occ. eigenvalues --   -0.68735  -0.66514  -0.64268  -0.63129  -0.59169
  Beta  occ. eigenvalues --   -0.56803  -0.56128  -0.55485  -0.55138  -0.54911
  Beta  occ. eigenvalues --   -0.50769  -0.49284  -0.48473  -0.48116  -0.47547
  Beta  occ. eigenvalues --   -0.46849  -0.45924  -0.44761  -0.44759  -0.44477
  Beta  occ. eigenvalues --   -0.43789  -0.43322  -0.43285  -0.42058  -0.40635
  Beta  occ. eigenvalues --   -0.40365  -0.39926  -0.39918  -0.39764  -0.38297
  Beta  occ. eigenvalues --   -0.38155  -0.34295  -0.33350  -0.31034  -0.30151
  Beta  occ. eigenvalues --   -0.29154  -0.28611  -0.25068  -0.23001
  Beta virt. eigenvalues --   -0.13157  -0.07230  -0.05016  -0.01259  -0.00987
  Beta virt. eigenvalues --   -0.00387   0.00546   0.00635   0.01821   0.01981
  Beta virt. eigenvalues --    0.02819   0.03218   0.03282   0.03490   0.03599

 Mulliken charges and spin densities:
               1          2
     1  C   -0.065704  -0.000000
     2  C    1.076571  -0.000000
     3  C   -0.784018   0.000000
     4  C   -0.416242  -0.000000
     5  O   -0.290273   0.000000
     6  C    0.592452  -0.000000
     7  C   -0.539790   0.000000
     8  O   -0.398350  -0.000000
     9  C    0.395336   0.000000
    10  C   -0.382026   0.000000
    11  O   -0.294810   0.000000
    12  C    0.009504  -0.000000
    13  C   -0.028244  -0.000000
    14  C   -0.345240  -0.000000
    15  O   -0.296787   0.000000
    16  C    0.440061   0.000000
    17  C   -0.433379   0.000000
    18  O   -0.405913  -0.000000
    19  C    0.143146   0.000000
    20  C   -0.297008  -0.000000
    21  O   -0.302276  -0.000000
    22  H    0.191974  -0.000000
    23  H    0.191969  -0.000000
    24  H    0.165677  -0.000000
    25  H    0.171595   0.000000
    26  H    0.364631  -0.000000
    27  H    0.364765  -0.000000
    28  H    0.210961  -0.000000
    29  H    0.209883   0.000000
    30  H    0.364336   0.000000
    31  H    0.387196   0.000000
 Sum of Mulliken charges =  -0.00000   0.00000

 Dipole moment (field-independent basis, Debye):
    X=             -0.8936    Y=              0.4647    Z=              0.1175  Tot=              1.0141
 Quadrupole moment (field-independent basis, Debye-Ang):
   XX=           -106.3976   YY=           -134.4279   ZZ=           -121.9954
   XY=              0.3720   XZ=             -0.5867   YZ=             -2.1807

  Exact polarizability: 364.956   1.654 224.754 -11.224  22.027  99.005
 Approx polarizability: 620.414   5.671 425.749 -18.877  45.891 162.977

                      1                      2                      3
                      A                      A                      A
 Frequencies --     45.8770                66.6759               114.7537
 Red. masses --      5.5133                 8.1686                 5.6641
 Frc consts  --      0.0068                 0.0214                 0.0439
 IR Inten    --      0.9822                 0.0048                 0.0740

                      4                      5                      6
                      A                      A                      A
 Frequencies --    129.7579               141.0790               153.2954
 Red. masses --      2.0893                 1.8273                 7.4625
 Frc consts  --      0.0207                 0.0214                 0.1033
 IR Inten    --      0.0200                 0.0476                 1.6686

                      7                      8                      9
                      A                      A                      A
 Frequencies --    170.3645               189.0518               217.7913
 Red. masses --      6.5685                 5.2412                 6.6227
 Frc consts  --      0.1123                 0.1104                 0.1851
 IR Inten    --      0.0002                 0.6518                 0.0567

                     10                     11                     12
                      A                      A                      A
 Frequencies --    262.3456               275.6367               301.2903
 Red. masses --      5.2399                 4.4640                 6.3111
 Frc consts  --      0.2125                 0.1998                 0.3375
 IR Inten    --      0.4815                 2.5984                 0.6375

                     13                     14                     15
                      A                      A                      A
 Frequencies --    321.7439               364.9168               388.3661
 Red. masses --      4.8572                 5.5928                 6.8095
 Frc consts  --      0.2963                 0.4388                 0.6051
 IR Inten    --      1.9689                 0.0002                 0.9750

                     16                     17                     18
                      A                      A                      A
 Frequencies --    402.1152               416.6409               431.7071
 Red. masses --      5.3831                 7.9482                 7.9359
 Frc consts  --      0.5128                 0.8129                 0.8714
 IR Inten    --      0.2246                 3.2551                 1.6195

                     19                     20                     21
                      A                      A                      A
 Frequencies --    433.0834               460.5251               467.3180
 Red. masses --      6.2961                10.6572                 9.9842
 Frc consts  --      0.6958                 1.3317                 1.2847
 IR Inten    --      1.0471                 9.0625                14.1192

                     22                     23                     24
                      A                      A                      A
 Frequencies --    477.7078               495.0743               497.6125
 Red. masses --     11.0048                 5.5744                 8.0300
 Frc consts  --      1.4796                 0.8050                 1.1715
 IR Inten    --     18.1706                 1.7350                15.9159

                     25                     26                     27
                      A                      A                      A
 Frequencies --    535.7921               543.6056               565.5541
 Red. masses --      5.3507                 9.3247                 3.9099
 Frc consts  --      0.9050                 1.6235                 0.7368
 IR Inten    --      0.9738                 1.2025                 6.4201

                     28                     29                     30
                      A                      A                      A
 Frequencies --    618.9495               636.0259               676.1757
 Red. masses --      4.9451                 4.5087                 6.6804
 Frc consts  --      1.1162                 1.0746                 1.7996
 IR Inten    --      8.9360                 0.6102                 0.4807

                     31                     32                     33
                      A                      A                      A
 Frequencies --    676.4435               696.3504               722.5450
 Red. masses --      4.6853                 7.2754                11.2954
 Frc consts  --      1.2631                 2.0786                 3.4744
 IR Inten    --     20.4971                 0.7733                 0.0852

                     34                     35                     36
                      A                      A                      A
 Frequencies --    732.1620               760.2091               783.6867
 Red. masses --      7.2506                 3.4095                 1.0963
 Frc consts  --      2.2900                 1.1609                 0.3967
 IR Inten    --      8.0348                36.7452                10.1088

                     37                     38                     39
                      A                      A                      A
 Frequencies --    791.2990               792.0435               806.5039
 Red. masses --      1.1516                 1.1564                 1.0931
 Frc consts  --      0.4249                 0.4274                 0.4189
 IR Inten    --    143.7043                92.8706               104.7323

                     40                     41                     42
                      A                      A                      A
 Frequencies --    807.7411               857.6997               866.5079
 Red. masses --      7.7512                 1.5811                 8.6291
 Frc consts  --      2.9796                 0.6853                 3.8173
 IR Inten    --     11.4502                19.0520                 4.9270

                     43                     44                     45
                      A                      A                      A
 Frequencies --    903.2450               938.2871               980.0921
 Red. masses --      1.3882                 5.5679                 1.2923
 Frc consts  --      0.6673                 2.8881                 0.7314
 IR Inten    --      9.7844                14.2786                 0.0001

                     46                     47                     48
                      A                      A                      A
 Frequencies --    993.8282               997.9317              1046.3586
 Red. masses --      7.4699                 2.7775                 2.1089
 Frc consts  --      4.3470                 1.6297                 1.3604
 IR Inten    --     54.7702                 1.6764                39.4253

                     49                     50                     51
                      A                      A                      A
 Frequencies --   1057.6976              1100.1919              1158.7376
 Red. masses --      1.5153                 3.1019                 1.6723
 Frc consts  --      0.9988                 2.2121                 1.3230
 IR Inten    --      2.3123                67.7117                 1.0424

                     52                     53                     54
                      A                      A                      A
 Frequencies --   1202.6070              1214.4223              1246.6486
 Red. masses --      2.0468                 2.2855                 1.8686
 Frc consts  --      1.7441                 1.9859                 1.7110
 IR Inten    --    208.2580               557.8954               147.1283

                     55                     56                     57
                      A                      A                      A
 Frequencies --   1289.4554              1298.0684              1319.1774
 Red. masses --      5.2833                 4.9035                 4.3920
 Frc consts  --      5.1756                 4.8680                 4.5031
 IR Inten    --    169.5204               147.8634               139.6420

                     58                     59                     60
                      A                      A                      A
 Frequencies --   1330.3741              1356.4920              1361.5381
 Red. masses --      2.9613                 2.4099                 2.2021
 Frc consts  --      3.0880                 2.6126                 2.4052
 IR Inten    --      4.4107               398.4113               129.2112

                     61                     62                     63
                      A                      A                      A
 Frequencies --   1392.9062              1418.1593              1422.1577
 Red. masses --      3.0663                 1.3517                 4.5290
 Frc consts  --      3.5051                 1.6017                 5.3969
 IR Inten    --    321.3405                29.6326                24.7108

                     64                     65                     66
                      A                      A                      A
 Frequencies --   1428.8656              1440.4274              1453.1546
 Red. masses --      5.0524                 3.8096                 4.6324
 Frc consts  --      6.0776                 4.6571                 5.7634
 IR Inten    --    185.0785                19.5465               142.6557

                     67                     68                     69
                      A                      A                      A
 Frequencies --   1473.5295              1473.8189              1483.8986
 Red. masses --      3.6964                 1.0430                 2.4199
 Frc consts  --      4.7287                 1.3349                 3.1395
 IR Inten    --    103.4625                 9.1385               253.9270

                     70                     71                     72
                      A                      A                      A
 Frequencies --   1496.1857              1515.4531              1599.5859
 Red. masses --      1.2738                 2.3511                 2.7707
 Frc consts  --      1.6801                 3.1813                 4.1769
 IR Inten    --     33.2486               131.3296                37.4408

                     73                     74                     75
                      A                      A                      A
 Frequencies --   1606.2527              1611.3018              1630.0232
 Red. masses --      3.3006                 5.6685                 4.4427
 Frc consts  --      5.0173                 8.6710                 6.9548
 IR Inten    --    158.4627               424.8334               142.8137

                     76                     77                     78
                      A                      A                      A
 Frequencies --   1643.4100              1677.8106              3035.2380
 Red. masses --      3.9596                 7.8166                 1.0362
 Frc consts  --      6.3008                12.9644                 5.6243
 IR Inten    --     33.7303                13.9280                16.3779

                     79                     80                     81
                      A                      A                      A
 Frequencies --   3085.1052              3121.0666              3185.7177
 Red. masses --      1.0992                 1.1027                 1.0912
 Frc consts  --      6.1642                 6.3287                 6.5247
 IR Inten    --      7.1693                16.9811                 4.1326

                     82                     83                     84
                      A                      A                      A
 Frequencies --   3189.3078              3202.9689              3307.0204
 Red. masses --      1.0882                 1.0960                 1.0671
 Frc consts  --      6.5215                 6.6245                 6.8759
 IR Inten    --      1.2028                 2.2581               178.1282

                     85                     86                     87
                      A                      A                      A
 Frequencies --   3327.5685              3358.8037              3363.8048
 Red. masses --      1.0664                 1.0687                 1.0681
 Frc consts  --      6.9573                 7.1033                 7.1205
 IR Inten    --    246.5768                28.7763                94.5350

 - Thermochemistry -
 -------------------
 Temperature   298.150 Kelvin.  Pressure   1.00000 Atm.
 Atom     1 has atomic number  6 and mass  12.00000

 Molecular mass:   286.04774 amu.
 Principal axes and moments of inertia in atomic units:
                           1         2         3
     Eigenvalues --  3494.026946796.12694**********
           X            0.99858   0.03281   0.04195
           Y           -0.02534   0.98555  -0.16747
           Z           -0.04684   0.16617   0.98498
 This molecule is an asymmetric top.
 Rotational symmetry number  1.
 Warning -- assumption of classical behavior for rotation
           may cause significant error
 Rotational temperatures (Kelvin)      0.02479     0.01274     0.00843
 Rotational constants (GHZ):           0.51652     0.26555     0.17557
 Zero-point vibrational energy     591150.9 (Joules/Mol)
                                  141.28847 (Kcal/Mol)
 Warning -- explicit consideration of  28 degrees of freedom as
           vibrations may cause significant error
 Vibrational temperatures:     66.01    95.93   165.10   186.69   202.98
          (Kelvin)            220.56   245.12   272.00   313.35   377.46
                              396.58   433.49   462.92   525.03   558.77
                              578.55   599.45   621.13   623.11   662.59
                              672.37   687.31   712.30   715.95   770.89
                              782.13   813.71   890.53   915.10   972.87
                              973.25  1001.89  1039.58  1053.42  1093.77
                             1127.55  1138.50  1139.57  1160.38  1162.16
                             1234.04  1246.71  1299.57  1349.99  1410.13
                             1429.90  1435.80  1505.48  1521.79  1582.93
                             1667.17  1730.28  1747.28  1793.65  1855.24
                             1867.63  1898.00  1914.11  1951.69  1958.95
                             2004.08  2040.41  2046.17  2055.82  2072.45
                             2090.77  2120.08  2120.50  2135.00  2152.68
                             2180.40  2301.45  2311.04  2318.30  2345.24
                             2364.50  2414.00  4367.03  4438.78  4490.52
                             4583.54  4588.70  4608.36  4758.06  4787.63
                             4832.57  4839.76

 Zero-point correction=                           0.225158 (Hartree/Particle)
 Thermal correction to Energy=                    0.241344
 Thermal correction to Enthalpy=                  0.242288
 Thermal correction to Gibbs Free Energy=         0.182340
 Sum of electronic and zero-point Energies=          -1029.092038
 Sum of electronic and thermal Energies=             -1029.075852
 Sum of electronic and thermal Enthalpies=           -1029.074907
 Sum of electronic and thermal Free Energies=        -1029.134856

                     E (Thermal)             CV                S
                      KCal/Mol        Cal/Mol-Kelvin    Cal/Mol-Kelvin
 Total                  151.446             65.663            126.172
 Electronic               0.000              0.000              0.000
 Translational            0.889              2.981             42.851
 Rotational               0.889              2.981             33.856
 Vibrational            149.668             59.701             49.465
 Vibration     1          0.595              1.979              4.988
 Vibration     2          0.598              1.970              4.249
 Vibration     3          0.608              1.937              3.187
 Vibration     4          0.612              1.924              2.950
 Vibration     5          0.615              1.912              2.789
 Vibration     6          0.619              1.899              2.631
 Vibration     7          0.625              1.879              2.431
 Vibration     8          0.633              1.855              2.237
 Vibration     9          0.646              1.814              1.977
 Vibration    10          0.670              1.742              1.646
 Vibration    11          0.677              1.718              1.561
 Vibration    12          0.693              1.671              1.410
 Vibration    13          0.707              1.632              1.301
 Vibration    14          0.738              1.544              1.101
 Vibration    15          0.757              1.495              1.006
 Vibration    16          0.768              1.466              0.955
 Vibration    17          0.780              1.434              0.903
 Vibration    18          0.793              1.401              0.853
 Vibration    19          0.794              1.398              0.849
 Vibration    20          0.818              1.338              0.765
 Vibration    21          0.825              1.323              0.745
 Vibration    22          0.834              1.300              0.716
 Vibration    23          0.851              1.261              0.671
 Vibration    24          0.853              1.255              0.664
 Vibration    25          0.891              1.171              0.574
 Vibration    26          0.899              1.154              0.558
 Vibration    27          0.921              1.106              0.513
 Vibration    28          0.979              0.992              0.418

                           ! Non-Optimized Parameters !
 Normal termination of Gaussian 16 at Thu Dec 21 20:54:39 2023.
