 Q-Chem 5.4, Q-Chem, Inc., Pleasanton, CA (2021)
 Q-Chem 5.4.0 for Intel X86 EM64T Linux

User input:
--------------------------------------------------------------
$molecule
-2 1
C                 -2.9857520000      3.7689990000      0.5287770000
C                 -4.2323360000      3.2024660000      0.5762260000
C                 -4.4257640000      1.8095190000      0.4306560000
C                 -1.8320000000      2.9698960000      0.3364170000
C                 -2.0011580000      1.5459900000      0.1857350000
C                 -3.3123390000      1.0169720000      0.2439180000
C                 -0.5326470000      3.6167330000      0.2840680000
C                  0.5855840000      2.7150270000      0.0697120000
C                  0.4212460000      1.2905930000     -0.0813410000
C                 -0.8807310000      0.6451920000     -0.0319030000
C                  1.8929200000      3.2547280000     -0.0096770000
C                  2.9763290000      2.4425940000     -0.2191490000
C                  2.8426580000      1.0432810000     -0.3708250000
C                  1.5763590000      0.5015850000     -0.2949320000
O                 -0.3858720000      4.8757280000      0.4113820000
O                 -1.0286510000     -0.6112710000     -0.1718340000
H                 -3.4094120000     -0.0573150000      0.1288640000
H                  1.4229230000     -0.5667930000     -0.4034790000
H                 -2.8499150000      4.8400300000      0.6255580000
H                  2.0047500000      4.3283220000      0.0893850000
H                  3.7151800000      0.4212030000     -0.5280310000
O                  4.2373940000      3.0802190000     -0.4002470000
C                  5.3305230000      2.7153760000      0.2954570000
C                  6.5371940000      3.5039830000     -0.1728570000
O                  5.3767160000      1.8589680000      1.1482680000
O                 -5.3437820000      4.0900270000      0.6576160000
H                  6.2555080000      4.4894350000     -0.5439670000
H                  7.0301940000      2.9631550000     -0.9908810000
H                  7.2525710000      3.5914840000      0.6446360000
C                 -6.3109040000      3.9429150000      1.5823240000
C                 -7.4013520000      4.9737040000      1.3685620000
O                 -6.3462150000      3.0956280000      2.4446910000
H                 -5.4206880000      1.3843340000      0.4791780000
H                 -7.0087970000      5.8899040000      0.9273000000
H                 -7.8921820000      5.1845420000      2.3184640000
H                 -8.1577640000      4.5670200000      0.6850950000
$end

$rem
BASIS  =  6-311++G(d,p)
GUI  =  2
JOB_TYPE  =  SP
METHOD  =  B3LYP
SCF_CONVERGENCE  = 8
SOLVENT_METHOD = sm12
$end

$smx
solvent dimethylformamide
charges CM5
$end

--------------------------------------------------------------

             Standard Nuclear Orientation (Angstroms)
    I     Atom           X                Y                Z
 ----------------------------------------------------------------
    1      C      -2.9857520000     3.7689990000     0.5287770000
    2      C      -4.2323360000     3.2024660000     0.5762260000
    3      C      -4.4257640000     1.8095190000     0.4306560000
    4      C      -1.8320000000     2.9698960000     0.3364170000
    5      C      -2.0011580000     1.5459900000     0.1857350000
    6      C      -3.3123390000     1.0169720000     0.2439180000
    7      C      -0.5326470000     3.6167330000     0.2840680000
    8      C       0.5855840000     2.7150270000     0.0697120000
    9      C       0.4212460000     1.2905930000    -0.0813410000
   10      C      -0.8807310000     0.6451920000    -0.0319030000
   11      C       1.8929200000     3.2547280000    -0.0096770000
   12      C       2.9763290000     2.4425940000    -0.2191490000
   13      C       2.8426580000     1.0432810000    -0.3708250000
   14      C       1.5763590000     0.5015850000    -0.2949320000
   15      O      -0.3858720000     4.8757280000     0.4113820000
   16      O      -1.0286510000    -0.6112710000    -0.1718340000
   17      H      -3.4094120000    -0.0573150000     0.1288640000
   18      H       1.4229230000    -0.5667930000    -0.4034790000
   19      H      -2.8499150000     4.8400300000     0.6255580000
   20      H       2.0047500000     4.3283220000     0.0893850000
   21      H       3.7151800000     0.4212030000    -0.5280310000
   22      O       4.2373940000     3.0802190000    -0.4002470000
   23      C       5.3305230000     2.7153760000     0.2954570000
   24      C       6.5371940000     3.5039830000    -0.1728570000
   25      O       5.3767160000     1.8589680000     1.1482680000
   26      O      -5.3437820000     4.0900270000     0.6576160000
   27      H       6.2555080000     4.4894350000    -0.5439670000
   28      H       7.0301940000     2.9631550000    -0.9908810000
   29      H       7.2525710000     3.5914840000     0.6446360000
   30      C      -6.3109040000     3.9429150000     1.5823240000
   31      C      -7.4013520000     4.9737040000     1.3685620000
   32      O      -6.3462150000     3.0956280000     2.4446910000
   33      H      -5.4206880000     1.3843340000     0.4791780000
   34      H      -7.0087970000     5.8899040000     0.9273000000
   35      H      -7.8921820000     5.1845420000     2.3184640000
   36      H      -8.1577640000     4.5670200000     0.6850950000
 ----------------------------------------------------------------

   17   -1144.8155667931      5.97e-09  Convergence criterion met
 Total energy in the final basis set =    -1145.0932046826

                    Orbital Energies (a.u.)
 --------------------------------------------------------------

 Alpha MOs
 -- Occupied --
-19.1786 -19.1786 -19.1151 -19.1150 -19.0274 -19.0224 -10.3094 -10.3093
-10.2253 -10.2253 -10.1860 -10.1811 -10.1781 -10.1781 -10.1698 -10.1697
-10.1676 -10.1676 -10.1632 -10.1632 -10.1501 -10.1501 -10.1483 -10.1483
 -1.1140  -1.1139  -1.0297  -1.0297  -0.9504  -0.9452  -0.8471  -0.8445
 -0.7796  -0.7667  -0.7531  -0.7414  -0.7356  -0.7175  -0.6601  -0.6396
 -0.6391  -0.5939  -0.5906  -0.5652  -0.5429  -0.5064  -0.5052  -0.4929
 -0.4898  -0.4880  -0.4811  -0.4741  -0.4715  -0.4482  -0.4479  -0.4271
 -0.4266  -0.4193  -0.4117  -0.4113  -0.4065  -0.3981  -0.3919  -0.3908
 -0.3839  -0.3797  -0.3723  -0.3640  -0.3590  -0.3447  -0.3432  -0.3364
 -0.3323  -0.3196  -0.3156  -0.3023  -0.2855  -0.2854  -0.2505  -0.2381
 -0.2296  -0.2276  -0.2062  -0.1986  -0.1102

          Ground-State Mulliken Net Atomic Charges

     Atom                 Charge (a.u.)
  ----------------------------------------
      1 C                    -0.209659
      2 C                     2.724424
      3 C                     2.545765
      4 C                    -1.800601
      5 C                    -2.502948
      6 C                    -0.239589
      7 C                    -2.335698
      8 C                    -1.790346
      9 C                    -2.502783
     10 C                    -3.318877
     11 C                    -0.215023
     12 C                     2.721336
     13 C                     2.549966
     14 C                    -0.242210
     15 O                    -0.352583
     16 O                    -0.324372
     17 H                     0.137865
     18 H                     0.138035
     19 H                     0.114477
     20 H                     0.114235
     21 H                     0.334903
     22 O                     0.171176
     23 C                    -0.048016
     24 C                     0.453035
     25 O                    -0.303560
     26 O                     0.171457
     27 H                     0.251987
     28 H                     0.262581
     29 H                     0.272521
     30 C                    -0.049864
     31 C                     0.454444
     32 O                    -0.304112
     33 H                     0.335204
     34 H                     0.251681
     35 H                     0.272577
     36 H                     0.262572
  ----------------------------------------
  Sum of atomic charges =    -2.000000

                    Cartesian Multipole Moments
 -----------------------------------------------------------------
    Charge (ESU x 10^10)
                -9.6064
    Dipole Moment (Debye)
         X       6.6378      Y     -18.2990      Z      -4.6231
       Tot      20.0072
    Quadrupole Moments (Debye-Ang)
        XX    -188.1566     XY      11.7300     YY    -224.2895
        XZ       5.4857     YZ     -11.6453     ZZ    -162.3745

 Total job time:  1317.56s(wall), 10136.47s(cpu)
        *  Thank you very much for using Q-Chem.  Have a nice day.  *
