 Q-Chem 5.4, Q-Chem, Inc., Pleasanton, CA (2021)
 Q-Chem 5.4.0 for Intel X86 EM64T Linux

User input:
--------------------------------------------------------------
$molecule
-2 1
C                 -1.2589170000      1.8428960000     -0.8742170000
C                 -2.5236280000      1.1893750000     -0.8061160000
C                 -2.8530040000      0.1179500000      0.0414790000
C                 -1.8634210000     -0.4113190000      0.9463240000
C                 -0.5987170000      0.2422230000      0.8782460000
C                 -0.2693290000      1.3136170000      0.0306200000
O                 -1.0389250000      2.8407450000     -1.7001790000
O                 -2.0833980000     -1.4091930000      1.7722600000
C                  1.1369240000      1.9473780000      0.0406510000
C                  1.0195450000      3.4497720000      0.4006900000
C                  2.1013170000      1.2940300000      1.0492330000
C                  1.7665490000      1.8204740000     -1.3693190000
C                 -4.2592800000     -0.5157620000      0.0315000000
C                 -5.2236670000      0.1375670000     -0.9771000000
C                 -4.8888810000     -0.3887830000      1.4414760000
C                 -4.1419510000     -2.0181710000     -0.3284820000
H                 -3.2645030000      1.5940010000     -1.4913140000
H                  0.1421330000     -0.1623540000      1.5634980000
H                  0.3167550000      3.9180250000     -0.2936650000
H                  1.9997700000      3.9517820000      0.3378550000
H                  0.6422630000      3.5621260000      1.4241840000
H                  1.7277990000      1.3744620000      2.0751490000
H                  3.0787150000      1.7954980000      1.0006550000
H                  2.2524920000      0.2314730000      0.8333260000
H                  2.7409430000      2.3352810000     -1.4178150000
H                  1.9248740000      0.7638000000     -1.6160610000
H                  1.0777710000      2.2587930000     -2.0964840000
H                 -4.8503060000      0.0568540000     -2.0030510000
H                 -5.3745910000      1.2001990000     -0.7613830000
H                 -6.2011580000     -0.3636990000     -0.9283010000
H                 -5.0470700000      0.6679070000      1.6882210000
H                 -4.2001570000     -0.8271990000      2.1686380000
H                 -5.8633440000     -0.9034650000      1.4899780000
H                 -3.7647930000     -2.1305720000     -1.3520190000
H                 -5.1221670000     -2.5201730000     -0.2655000000
H                 -3.4390730000     -2.4863900000      0.3658030000
$end

$rem
BASIS  =  6-311++G(d,p)
GUI  =  2
JOB_TYPE  =  SP
METHOD  =  B3LYP
SCF_CONVERGENCE  = 8
SOLVENT_METHOD = sm12
$end

$smx
solvent dimethylformamide
charges CM5
$end

--------------------------------------------------------------

             Standard Nuclear Orientation (Angstroms)
    I     Atom           X                Y                Z
 ----------------------------------------------------------------
    1      C      -1.2589170000     1.8428960000    -0.8742170000
    2      C      -2.5236280000     1.1893750000    -0.8061160000
    3      C      -2.8530040000     0.1179500000     0.0414790000
    4      C      -1.8634210000    -0.4113190000     0.9463240000
    5      C      -0.5987170000     0.2422230000     0.8782460000
    6      C      -0.2693290000     1.3136170000     0.0306200000
    7      O      -1.0389250000     2.8407450000    -1.7001790000
    8      O      -2.0833980000    -1.4091930000     1.7722600000
    9      C       1.1369240000     1.9473780000     0.0406510000
   10      C       1.0195450000     3.4497720000     0.4006900000
   11      C       2.1013170000     1.2940300000     1.0492330000
   12      C       1.7665490000     1.8204740000    -1.3693190000
   13      C      -4.2592800000    -0.5157620000     0.0315000000
   14      C      -5.2236670000     0.1375670000    -0.9771000000
   15      C      -4.8888810000    -0.3887830000     1.4414760000
   16      C      -4.1419510000    -2.0181710000    -0.3284820000
   17      H      -3.2645030000     1.5940010000    -1.4913140000
   18      H       0.1421330000    -0.1623540000     1.5634980000
   19      H       0.3167550000     3.9180250000    -0.2936650000
   20      H       1.9997700000     3.9517820000     0.3378550000
   21      H       0.6422630000     3.5621260000     1.4241840000
   22      H       1.7277990000     1.3744620000     2.0751490000
   23      H       3.0787150000     1.7954980000     1.0006550000
   24      H       2.2524920000     0.2314730000     0.8333260000
   25      H       2.7409430000     2.3352810000    -1.4178150000
   26      H       1.9248740000     0.7638000000    -1.6160610000
   27      H       1.0777710000     2.2587930000    -2.0964840000
   28      H      -4.8503060000     0.0568540000    -2.0030510000
   29      H      -5.3745910000     1.2001990000    -0.7613830000
   30      H      -6.2011580000    -0.3636990000    -0.9283010000
   31      H      -5.0470700000     0.6679070000     1.6882210000
   32      H      -4.2001570000    -0.8271990000     2.1686380000
   33      H      -5.8633440000    -0.9034650000     1.4899780000
   34      H      -3.7647930000    -2.1305720000    -1.3520190000
   35      H      -5.1221670000    -2.5201730000    -0.2655000000
   36      H      -3.4390730000    -2.4863900000     0.3658030000
 ----------------------------------------------------------------

   15    -696.1264079776      8.72e-09  Convergence criterion met
 Total energy in the final basis set =     -696.4080961548

                    Orbital Energies (a.u.)
 --------------------------------------------------------------

 Alpha MOs
 -- Occupied --
-19.0123 -19.0123 -10.1868 -10.1868 -10.1727 -10.1727 -10.1675 -10.1675
-10.1590 -10.1590 -10.1590 -10.1590 -10.1414 -10.1414 -10.1314 -10.1314
 -0.9222  -0.9188  -0.8224  -0.8204  -0.7704  -0.7013  -0.6912  -0.6901
 -0.6860  -0.6860  -0.6513  -0.5994  -0.5523  -0.5431  -0.5035  -0.4634
 -0.4565  -0.4561  -0.4404  -0.4397  -0.4364  -0.4150  -0.4110  -0.4013
 -0.3971  -0.3929  -0.3871  -0.3717  -0.3711  -0.3710  -0.3505  -0.3475
 -0.3359  -0.3325  -0.3311  -0.3280  -0.3255  -0.3154  -0.3085  -0.2995
 -0.2201  -0.2199  -0.1894  -0.1882  -0.1212

          Ground-State Mulliken Net Atomic Charges

     Atom                 Charge (a.u.)
  ----------------------------------------
      1 C                    -2.297541
      2 C                    -1.934084
      3 C                    -0.613398
      4 C                    -2.297550
      5 C                    -1.934094
      6 C                    -0.613382
      7 O                    -0.296934
      8 O                    -0.296936
      9 C                     2.363571
     10 C                    -0.299327
     11 C                     0.837763
     12 C                    -0.296186
     13 C                     2.363584
     14 C                     0.837759
     15 C                    -0.296161
     16 C                    -0.299349
     17 H                    -0.151686
     18 H                    -0.151683
     19 H                     0.073643
     20 H                     0.349905
     21 H                     0.049894
     22 H                     0.132083
     23 H                     0.476738
     24 H                     0.132486
     25 H                     0.349917
     26 H                     0.049294
     27 H                     0.073857
     28 H                     0.132027
     29 H                     0.132542
     30 H                     0.476738
     31 H                     0.049308
     32 H                     0.073857
     33 H                     0.349905
     34 H                     0.049878
     35 H                     0.349917
     36 H                     0.073644
  ----------------------------------------
  Sum of atomic charges =    -2.000000

                    Cartesian Multipole Moments
 -----------------------------------------------------------------
    Charge (ESU x 10^10)
                -9.6064
    Dipole Moment (Debye)
         X      14.9972      Y      -6.8761      Z      -0.3463
       Tot      16.5020
    Quadrupole Moments (Debye-Ang)
        XX    -163.4519     XY      -4.5381     YY    -156.4903
        XZ       4.9816     YZ      24.9097     ZZ    -138.5507

 Total job time:  1046.89s(wall), 8144.30s(cpu)
        *  Thank you very much for using Q-Chem.  Have a nice day.  *
