 Gaussian 16, Revision A.03,
 Gaussian 16:  ES64L-G16RevA.03 25-Dec-2016

 ----------------------------------------------------------------
 #P UB3LYP/6-311++G(d,p) SCRF=(PCM,Solvent=n,n-DiMethylFormamide)
 ----------------------------------------------------------------

 ------------------
 Quinone PCM in DMF
 ------------------
 Symbolic Z-matrix:
 Charge =  0 Multiplicity = 1

                         Standard orientation:
 ---------------------------------------------------------------------
 Center     Atomic      Atomic             Coordinates (Angstroms)
 Number     Number       Type             X           Y           Z
 ---------------------------------------------------------------------
      1          6           0       -6.496818    1.254956    1.231056
      2          6           0       -6.954759    2.420389    0.624240
      3          6           0       -6.353409    2.878634   -0.549384
      4          6           0       -5.434988    0.548672    0.660896
      5          6           0       -4.828000    1.007158   -0.519883
      6          6           0       -5.294308    2.175256   -1.120343
      7          6           0       -4.938421   -0.687768    1.291444
      8          6           0       -3.799027   -1.400491    0.645060
      9          6           0       -3.203923   -0.983091   -0.499386
     10          6           0       -3.685686    0.256396   -1.144337
     11          8           0       -5.404194   -1.170015    2.317806
     12          8           0       -3.170168    0.669813   -2.173690
     13          8           0       -3.411161   -2.509684    1.295004
     14          6           0       -2.048792   -1.714905   -1.121854
     15          1           0       -6.947403    0.879440    2.141624
     16          1           0       -7.778087    2.971597    1.063538
     17          1           0       -6.711527    3.786980   -1.020519
     18          1           0       -4.816734    2.516631   -2.030325
     19          1           0       -4.002592   -2.590925    2.067402
     20          6           0       -0.681577   -1.180274   -0.644933
     21          6           0        0.493743   -1.922317   -1.308028
     22          6           0        1.843752   -1.417351   -0.851470
     23          6           0        2.458594   -0.328615   -1.480591
     24          6           0        2.506863   -1.999116    0.232055
     25          6           0        3.736597   -1.509848    0.670354
     26          6           0        4.352357   -0.421812    0.044526
     27          6           0        3.686434    0.159296   -1.042453
     28          6           0        5.695663    0.093802    0.528871
     29          6           0        6.805032   -0.053735   -0.536481
     30          6           0        5.626058    1.553068    1.031779
     31          6           0        6.985763    2.045944    1.547247
     32          6           0        8.163890    0.440503   -0.020323
     33          6           0        8.085625    1.886247    0.488836
     34          1           0       -2.113333   -1.605074   -2.207310
     35          1           0       -2.125538   -2.778366   -0.881027
     36          1           0       -0.608128   -1.281397    0.442693
     37          1           0       -0.610486   -0.112316   -0.871736
     38          1           0        0.411179   -1.817778   -2.395522
     39          1           0        0.410504   -2.992595   -1.089001
     40          1           0        1.971249    0.141341   -2.329779
     41          1           0        2.060455   -2.849991    0.738226
     42          1           0        4.229005   -1.986881    1.512492
     43          1           0        4.130949    1.002152   -1.561354
     44          1           0        5.987494   -0.528306    1.385703
     45          1           0        6.526080    0.519791   -1.429274
     46          1           0        6.874109   -1.100284   -0.850236
     47          1           0        4.868320    1.633569    1.817818
     48          1           0        5.292879    2.201944    0.212185
     49          1           0        7.261215    1.473852    2.443059
     50          1           0        6.908851    3.092476    1.860428
     51          1           0        8.916472    0.356362   -0.811360
     52          1           0        8.498735   -0.212123    0.796741
     53          1           0        7.873637    2.555260   -0.355653
     54          1           0        9.052904    2.197732    0.896834
 ---------------------------------------------------------------------

 SCF Done:  E(UB3LYP) =  -1194.35483700     A.U. after   16 cycles

 The electronic state is 1-A.
 Alpha  occ. eigenvalues --  -19.18113 -19.15160 -19.13115 -10.29546 -10.28269
 Alpha  occ. eigenvalues --  -10.26957 -10.21306 -10.21179 -10.20623 -10.20367
 Alpha  occ. eigenvalues --  -10.20197 -10.20028 -10.19988 -10.18165 -10.18008
 Alpha  occ. eigenvalues --  -10.17969 -10.17498 -10.17433 -10.17366 -10.17332
 Alpha  occ. eigenvalues --  -10.17306 -10.17296 -10.17272 -10.16269 -10.16268
 Alpha  occ. eigenvalues --  -10.16128 -10.16126 -10.16047  -1.11106  -1.06947
 Alpha  occ. eigenvalues --   -1.06471  -0.89505  -0.86736  -0.84685  -0.83277
 Alpha  occ. eigenvalues --   -0.80604  -0.78627  -0.78232  -0.76154  -0.74804
 Alpha  occ. eigenvalues --   -0.73996  -0.73117  -0.70380  -0.68074  -0.65748
 Alpha  occ. eigenvalues --   -0.63832  -0.61657  -0.61073  -0.60858  -0.60678
 Alpha  occ. eigenvalues --   -0.59476  -0.57632  -0.57273  -0.54999  -0.54518
 Alpha  occ. eigenvalues --   -0.52224  -0.50363  -0.50015  -0.48385  -0.47953
 Alpha  occ. eigenvalues --   -0.47404  -0.47192  -0.46872  -0.45672  -0.45504
 Alpha  occ. eigenvalues --   -0.45290  -0.44159  -0.43803  -0.43740  -0.43333
 Alpha  occ. eigenvalues --   -0.42901  -0.42354  -0.41912  -0.41426  -0.40845
 Alpha  occ. eigenvalues --   -0.40249  -0.39185  -0.38831  -0.38086  -0.37938
 Alpha  occ. eigenvalues --   -0.37751  -0.37460  -0.37181  -0.36401  -0.35123
 Alpha  occ. eigenvalues --   -0.34642  -0.34303  -0.34229  -0.33722  -0.33144
 Alpha  occ. eigenvalues --   -0.31569  -0.30565  -0.30263  -0.30049  -0.29220
 Alpha  occ. eigenvalues --   -0.28249  -0.28133  -0.26109  -0.25829  -0.23975
 Alpha virt. eigenvalues --   -0.12774  -0.05846  -0.02890  -0.01718  -0.01308
 Alpha virt. eigenvalues --   -0.00992  -0.00514   0.00099   0.00350   0.00653
 Alpha virt. eigenvalues --    0.01186   0.01211   0.01662   0.01939   0.02220

  Beta  occ. eigenvalues --  -19.18113 -19.15160 -19.13115 -10.29546 -10.28269
  Beta  occ. eigenvalues --  -10.26957 -10.21306 -10.21179 -10.20623 -10.20367
  Beta  occ. eigenvalues --  -10.20197 -10.20028 -10.19988 -10.18165 -10.18008
  Beta  occ. eigenvalues --  -10.17969 -10.17498 -10.17433 -10.17366 -10.17332
  Beta  occ. eigenvalues --  -10.17306 -10.17296 -10.17272 -10.16269 -10.16268
  Beta  occ. eigenvalues --  -10.16128 -10.16126 -10.16047  -1.11106  -1.06947
  Beta  occ. eigenvalues --   -1.06471  -0.89505  -0.86736  -0.84685  -0.83277
  Beta  occ. eigenvalues --   -0.80604  -0.78627  -0.78232  -0.76154  -0.74804
  Beta  occ. eigenvalues --   -0.73996  -0.73117  -0.70380  -0.68074  -0.65748
  Beta  occ. eigenvalues --   -0.63832  -0.61657  -0.61073  -0.60858  -0.60678
  Beta  occ. eigenvalues --   -0.59476  -0.57632  -0.57273  -0.54999  -0.54518
  Beta  occ. eigenvalues --   -0.52224  -0.50363  -0.50015  -0.48385  -0.47953
  Beta  occ. eigenvalues --   -0.47404  -0.47192  -0.46872  -0.45672  -0.45504
  Beta  occ. eigenvalues --   -0.45290  -0.44159  -0.43803  -0.43740  -0.43333
  Beta  occ. eigenvalues --   -0.42901  -0.42354  -0.41912  -0.41426  -0.40845
  Beta  occ. eigenvalues --   -0.40249  -0.39185  -0.38831  -0.38086  -0.37938
  Beta  occ. eigenvalues --   -0.37751  -0.37460  -0.37181  -0.36401  -0.35123
  Beta  occ. eigenvalues --   -0.34642  -0.34303  -0.34229  -0.33722  -0.33144
  Beta  occ. eigenvalues --   -0.31569  -0.30565  -0.30263  -0.30049  -0.29220
  Beta  occ. eigenvalues --   -0.28249  -0.28133  -0.26109  -0.25829  -0.23975
  Beta virt. eigenvalues --   -0.12774  -0.05846  -0.02890  -0.01718  -0.01308
  Beta virt. eigenvalues --   -0.00992  -0.00514   0.00099   0.00350   0.00653
  Beta virt. eigenvalues --    0.01186   0.01211   0.01662   0.01939   0.02220

 Mulliken charges and spin densities:
               1          2
     1  C    0.180612  -0.000000
     2  C   -0.402148  -0.000000
     3  C   -0.437233  -0.000000
     4  C    0.212754   0.000000
     5  C    0.293405   0.000000
     6  C    0.176654  -0.000000
     7  C   -0.618459  -0.000000
     8  C   -0.629732   0.000000
     9  C    1.762345   0.000000
    10  C   -0.892520  -0.000000
    11  O   -0.312592  -0.000000
    12  O   -0.272703  -0.000000
    13  O   -0.217433  -0.000000
    14  C   -0.378145  -0.000000
    15  H    0.198594   0.000000
    16  H    0.206195   0.000000
    17  H    0.208519  -0.000000
    18  H    0.192872   0.000000
    19  H    0.308112   0.000000
    20  C   -0.433474   0.000000
    21  C   -0.632657  -0.000000
    22  C    1.023238   0.000000
    23  C   -0.357363   0.000000
    24  C   -0.537625   0.000000
    25  C   -0.392622   0.000000
    26  C    0.492204  -0.000000
    27  C   -0.539826  -0.000000
    28  C    0.261024  -0.000000
    29  C   -0.443505   0.000000
    30  C   -0.436756   0.000000
    31  C   -0.406092  -0.000000
    32  C   -0.390681   0.000000
    33  C   -0.386789   0.000000
    34  H    0.210572   0.000000
    35  H    0.231545   0.000000
    36  H    0.186563   0.000000
    37  H    0.191495   0.000000
    38  H    0.166546  -0.000000
    39  H    0.155905   0.000000
    40  H    0.188895   0.000000
    41  H    0.189228  -0.000000
    42  H    0.178382   0.000000
    43  H    0.186505  -0.000000
    44  H    0.183132  -0.000000
    45  H    0.141273   0.000000
    46  H    0.174469   0.000000
    47  H    0.173800   0.000000
    48  H    0.140169  -0.000000
    49  H    0.131496   0.000000
    50  H    0.174354  -0.000000
    51  H    0.173696  -0.000000
    52  H    0.131026  -0.000000
    53  H    0.116671   0.000000
    54  H    0.176105  -0.000000
 Sum of Mulliken charges =  -0.00000  -0.00000

 Dipole moment (field-independent basis, Debye):
    X=             -2.0116    Y=              1.9544    Z=              1.2452  Tot=              3.0687
 Quadrupole moment (field-independent basis, Debye-Ang):
   XX=           -136.7108   YY=           -158.2859   ZZ=           -173.5570
   XY=            -13.6906   XZ=              1.1233   YZ=             -0.8021

 Normal termination of Gaussian 16 at Thu Jan 25 06:05:32 2024.
