 Q-Chem 5.4, Q-Chem, Inc., Pleasanton, CA (2021)
 Q-Chem 5.4.0 for Intel X86 EM64T Linux

User input:
--------------------------------------------------------------
$molecule
-1 2
C                 -0.2610560000      1.0566330000      0.1557060000
C                 -1.4173420000      0.2742460000     -0.2199470000
C                 -1.3309530000     -1.0481460000     -0.5440810000
C                 -0.0848620000     -1.7898590000     -0.5417660000
C                  1.0781290000     -0.9865690000     -0.1810350000
C                  1.0176660000      0.3479920000      0.1413630000
O                 -0.3409970000      2.2776630000      0.4661050000
O                 -0.0282280000     -3.0113350000     -0.8219830000
C                  2.2383550000      1.1556070000      0.5045960000
C                  2.3144150000      1.6247670000      1.9426760000
O                  3.1086410000      1.4156060000     -0.3008840000
H                  2.3514520000      0.7528570000      2.6049260000
H                  1.4086380000      2.1895720000      2.1746150000
H                  3.2032780000      2.2409250000      2.0879270000
H                 -2.2125850000     -1.6193090000     -0.8194210000
Cl                 2.6208700000     -1.8514290000     -0.1176880000
H                 -2.3689910000      0.7974010000     -0.2287090000
$end
$rem
MAX_SCF_CYCLES=200
BASIS  =  6-311++G(d,p)
GUI  =  2
JOB_TYPE  =  SP
METHOD  =  B3LYP
SOLVENT_METHOD = COSMO
$end
$solvent
dielectric 37.219
opticaldielectric 1.43
$end

--------------------------------------------------------------

             Standard Nuclear Orientation (Angstroms)
    I     Atom           X                Y                Z
 ----------------------------------------------------------------
    1      C       0.5739888888    -1.6469912536     0.0967689505
    2      C      -0.6962635725    -2.3361265434     0.0544234094
    3      C      -1.8861582061    -1.6719220663    -0.0106126156
    4      C      -1.9913147177    -0.2260127029    -0.0448841031
    5      C      -0.7053975524     0.4597954008     0.0186299382
    6      C       0.5051164359    -0.1865983490     0.0926590682
    7      O       1.6762230475    -2.2604078138     0.1462901239
    8      O      -3.0938715699     0.3668106610    -0.1265017627
    9      C       1.8197112565     0.5489801900     0.1635569221
   10      C       2.7175293257     0.4127293948    -1.0486017932
   11      O       2.1426798996     1.2107003372     1.1287579035
   12      H       2.2099169556     0.8353416515    -1.9226169030
   13      H       2.8917966038    -0.6490261226    -1.2371183668
   14      H       3.6597304164     0.9355279312    -0.8760771230
   15      H      -2.8295676651    -2.2086159178    -0.0460043380
   16      Cl     -0.7706163159     2.2263516074    -0.0654601134
   17      H      -0.6549211069    -3.4211547665     0.0746298812
 ----------------------------------------------------------------

    9    -993.9602894738      9.82e-06  Convergence criterion met
 Total energy in the final basis set =     -993.9602894738
    5    -994.0445704029      4.59e-06  Convergence criterion met
 Total energy in the final basis set =     -994.0445704029

                    Orbital Energies (a.u.)
 --------------------------------------------------------------

 Alpha MOs
 -- Occupied --
******** -19.1293 -19.0957 -19.0943 -10.2785 -10.2420 -10.2417 -10.2398
-10.1933 -10.1776 -10.1756 -10.1661  -9.4692  -7.2333  -7.2245  -7.2237
 -1.0631  -1.0220  -1.0172  -0.8803  -0.8239  -0.7728  -0.7313  -0.6970
 -0.6319  -0.5856  -0.5456  -0.5025  -0.4862  -0.4706  -0.4555  -0.4444
 -0.4353  -0.4275  -0.4258  -0.4046  -0.3998  -0.3865  -0.3821  -0.3696
 -0.3526  -0.3180  -0.2947  -0.2770  -0.2637  -0.2627  -0.2526  -0.1796

 Beta MOs
 -- Occupied --
******** -19.1292 -19.0887 -19.0875 -10.2785 -10.2407 -10.2404 -10.2382
-10.1921 -10.1768 -10.1746 -10.1661  -9.4691  -7.2334  -7.2243  -7.2237
 -1.0628  -1.0099  -1.0052  -0.8772  -0.8195  -0.7706  -0.7301  -0.6870
 -0.6284  -0.5813  -0.5433  -0.5003  -0.4836  -0.4679  -0.4526  -0.4425
 -0.4340  -0.4201  -0.4126  -0.4008  -0.3904  -0.3800  -0.3742  -0.3614
 -0.3425  -0.3175  -0.2750  -0.2647  -0.2566  -0.2553  -0.2476

          Ground-State Mulliken Net Atomic Charges

     Atom                 Charge (a.u.)    Spin (a.u.)
  --------------------------------------------------------
      1 C                    -0.949988       0.067802
      2 C                     0.103290       0.090773
      3 C                    -0.031353       0.066890
      4 C                    -0.640714       0.127889
      5 C                     0.269873       0.073635
      6 C                     0.922627       0.077798
      7 O                    -0.471379       0.244263
      8 O                    -0.462680       0.247073
      9 C                    -0.244300       0.003415
     10 C                    -0.567270       0.002417
     11 O                    -0.332446       0.001866
     12 H                     0.171766       0.000463
     13 H                     0.209747      -0.001197
     14 H                     0.174865       0.000603
     15 H                     0.223256      -0.005592
     16 Cl                    0.402344       0.008830
     17 H                     0.222363      -0.006926
  --------------------------------------------------------
  Sum of atomic charges =    -1.000000

                    Cartesian Multipole Moments
 -----------------------------------------------------------------
    Charge (ESU x 10^10)
                -4.8032
    Dipole Moment (Debye)
         X       2.0442      Y      -0.4108      Z      -3.2418
       Tot       3.8545
    Quadrupole Moments (Debye-Ang)
        XX    -110.6671     XY      12.8741     YY     -92.9117
        XZ      -9.0789     YZ      -2.7158     ZZ     -81.4036

 Total job time:  33.43s(wall), 240.78s(cpu)
        *  Thank you very much for using Q-Chem.  Have a nice day.  *
