 Gaussian 16, Revision A.03,
 Gaussian 16:  ES64L-G16RevA.03 25-Dec-2016

 -------------------------------
 #P UB3LYP/genecp nosym opt freq
 -------------------------------

 -------
 Reduced
 -------
 Symbolic Z-matrix:
 Charge = -2 Multiplicity = 1

 SCF Done:  E(UB3LYP) =  -796.701172885     A.U. after   39 cycles
 SCF Done:  E(UB3LYP) =  -796.727716733     A.U. after   30 cycles
 SCF Done:  E(UB3LYP) =  -796.732509898     A.U. after   24 cycles
 SCF Done:  E(UB3LYP) =  -796.732835945     A.U. after   25 cycles
 SCF Done:  E(UB3LYP) =  -796.732743397     A.U. after   29 cycles
 SCF Done:  E(UB3LYP) =  -796.733099969     A.U. after   28 cycles
 SCF Done:  E(UB3LYP) =  -796.733107843     A.U. after   22 cycles
 SCF Done:  E(UB3LYP) =  -796.733114232     A.U. after   24 cycles
 SCF Done:  E(UB3LYP) =  -796.733114674     A.U. after   22 cycles
 Optimization completed.
    -- Stationary point found.
 Normal termination of Gaussian 16 at Thu Dec 21 03:45:54 2023.

 ------------------------------------------------------------------
 #P Geom=AllCheck Guess=TCheck SCRF=Check GenChk UB3LYP/GenECP Freq
 ------------------------------------------------------------------

 Structure from the checkpoint file:  "006-an.chk"
 -------
 Reduced
 -------
 Charge = -2 Multiplicity = 1

                          Input orientation:
 ---------------------------------------------------------------------
 Center     Atomic      Atomic             Coordinates (Angstroms)
 Number     Number       Type             X           Y           Z
 ---------------------------------------------------------------------
      1          6           0       -1.321029    2.024772    0.539761
      2          6           0       -2.585691    1.369325    0.246182
      3          6           0       -2.663577    0.078269   -0.279052
      4          6           0       -1.530766   -0.744948   -0.589914
      5          6           0       -0.274507   -0.114653   -0.295239
      6          6           0       -0.220521    1.170554    0.234567
      7          8           0       -1.242729    3.217577    1.019303
      8          8           0       -1.622873   -1.939074   -1.080322
      9          1           0        0.631834   -0.675808   -0.494734
     10         53           0        1.745192    2.021547    0.639763
     11          6           0       -3.824045    2.201177    0.551559
     12          6           0       -4.041127    3.281400   -0.530111
     13          6           0       -5.112631    1.393253    0.761926
     14          1           0       -3.634841   -0.368125   -0.482331
     15          1           0       -3.600876    2.745155    1.479481
     16          1           0       -4.259230    2.814228   -1.498693
     17          1           0       -3.134757    3.882781   -0.622195
     18          1           0       -4.882872    3.945488   -0.272579
     19          1           0       -5.427603    0.884899   -0.156797
     20          1           0       -5.934905    2.052371    1.071653
     21          1           0       -4.979326    0.625011    1.530334
 ---------------------------------------------------------------------

 SCF Done:  E(UB3LYP) =  -796.733114674     A.U. after    4 cycles

 Alpha  occ. eigenvalues --  -18.77008 -18.76204  -9.93807  -9.93320  -9.93243
 Alpha  occ. eigenvalues --   -9.92851  -9.92619  -9.92541  -9.89582  -9.88513
 Alpha  occ. eigenvalues --   -9.87875  -6.57862  -4.60092  -4.59257  -4.59213
 Alpha  occ. eigenvalues --   -1.64921  -1.64643  -1.64610  -1.63885  -1.63884
 Alpha  occ. eigenvalues --   -0.68684  -0.67253  -0.56790  -0.53325  -0.46872
 Alpha  occ. eigenvalues --   -0.45673  -0.42464  -0.39745  -0.35990  -0.28437
 Alpha  occ. eigenvalues --   -0.28019  -0.22079  -0.20477  -0.19490  -0.18395
 Alpha  occ. eigenvalues --   -0.16559  -0.16182  -0.12520  -0.11777  -0.10988
 Alpha  occ. eigenvalues --   -0.10686  -0.10341  -0.09480  -0.07243  -0.05997
 Alpha  occ. eigenvalues --   -0.05639  -0.02223  -0.00604   0.02766   0.03520
 Alpha  occ. eigenvalues --    0.05225   0.06173   0.13319
 Alpha virt. eigenvalues --    0.15142   0.17663   0.19176   0.20343   0.20841
 Alpha virt. eigenvalues --    0.21630   0.21784   0.22103   0.23391   0.23787
 Alpha virt. eigenvalues --    0.26037   0.26865   0.27631   0.27869   0.28577

  Beta  occ. eigenvalues --  -18.77008 -18.76204  -9.93807  -9.93320  -9.93243
  Beta  occ. eigenvalues --   -9.92851  -9.92619  -9.92541  -9.89582  -9.88513
  Beta  occ. eigenvalues --   -9.87875  -6.57862  -4.60092  -4.59257  -4.59213
  Beta  occ. eigenvalues --   -1.64921  -1.64643  -1.64610  -1.63885  -1.63884
  Beta  occ. eigenvalues --   -0.68684  -0.67253  -0.56790  -0.53325  -0.46872
  Beta  occ. eigenvalues --   -0.45673  -0.42464  -0.39745  -0.35990  -0.28437
  Beta  occ. eigenvalues --   -0.28019  -0.22079  -0.20477  -0.19490  -0.18395
  Beta  occ. eigenvalues --   -0.16559  -0.16182  -0.12520  -0.11777  -0.10988
  Beta  occ. eigenvalues --   -0.10686  -0.10341  -0.09480  -0.07243  -0.05997
  Beta  occ. eigenvalues --   -0.05639  -0.02223  -0.00604   0.02766   0.03520
  Beta  occ. eigenvalues --    0.05225   0.06173   0.13319
  Beta virt. eigenvalues --    0.15142   0.17663   0.19176   0.20343   0.20841
  Beta virt. eigenvalues --    0.21630   0.21784   0.22103   0.23391   0.23787
  Beta virt. eigenvalues --    0.26037   0.26865   0.27631   0.27869   0.28577

 Mulliken charges and spin densities:
               1          2
     1  C   -2.659439   0.000000
     2  C    2.166908  -0.000000
     3  C   -0.110733   0.000000
     4  C   -0.832939  -0.000000
     5  C    0.132150   0.000000
     6  C    1.513685  -0.000000
     7  O   -0.437742  -0.000000
     8  O   -0.559604  -0.000000
     9  H    0.025053   0.000000
    10  I   -0.361017  -0.000000
    11  C   -0.585569   0.000000
    12  C   -0.234946  -0.000000
    13  C   -0.229805  -0.000000
    14  H    0.079118  -0.000000
    15  H    0.134002   0.000000
    16  H    0.092021   0.000000
    17  H    0.245010  -0.000000
    18  H   -0.302393   0.000000
    19  H    0.085236   0.000000
    20  H   -0.270882   0.000000
    21  H    0.111887  -0.000000
 Sum of Mulliken charges =  -2.00000   0.00000

 Dipole moment (field-independent basis, Debye):
    X=             14.0154    Y=            -10.1619    Z=             -0.7989  Tot=             17.3301
 Quadrupole moment (field-independent basis, Debye-Ang):
   XX=           -176.4739   YY=           -171.8327   ZZ=           -115.2714
   XY=             19.6670   XZ=             -0.8925   YZ=            -20.0502

  Exact polarizability:1433.228-456.436 565.280-193.937  28.201 284.071
 Approx polarizability:2018.732-882.906 919.309-239.819 165.333 320.735

                      1                      2                      3
                      A                      A                      A
 Frequencies --     44.5405                77.2552               115.0045
 Red. masses --      3.1620                 5.0317                 6.6629
 Frc consts  --      0.0037                 0.0177                 0.0519
 IR Inten    --      4.9973                 0.4414                10.8466

                      4                      5                      6
                      A                      A                      A
 Frequencies --    145.8431               162.2234               186.6320
 Red. masses --      7.8925                 4.4986                12.9138
 Frc consts  --      0.0989                 0.0698                 0.2650
 IR Inten    --      4.6541                 0.1920                 0.4343

                      7                      8                      9
                      A                      A                      A
 Frequencies --    200.3549               253.6514               274.1906
 Red. masses --      3.9398                 1.1616                 1.5591
 Frc consts  --      0.0932                 0.0440                 0.0691
 IR Inten    --     14.3286                 4.4727                17.4881

                     10                     11                     12
                      A                      A                      A
 Frequencies --    281.1636               304.3344               359.2990
 Red. masses --      1.6549                 4.8713                 4.7859
 Frc consts  --      0.0771                 0.2658                 0.3640
 IR Inten    --     20.1151                34.6599                 8.9716

                     13                     14                     15
                      A                      A                      A
 Frequencies --    398.9189               428.7172               450.8254
 Red. masses --      3.9452                 3.8031                 7.3913
 Frc consts  --      0.3699                 0.4118                 0.8851
 IR Inten    --     23.8370               185.3563              1243.4175

                     16                     17                     18
                      A                      A                      A
 Frequencies --    513.5199               565.7644               599.1282
 Red. masses --      4.9687                 3.3481                 2.0174
 Frc consts  --      0.7720                 0.6314                 0.4267
 IR Inten    --     90.8667                 4.4016                 6.1816

                     19                     20                     21
                      A                      A                      A
 Frequencies --    624.6028               718.1131               742.8902
 Red. masses --      5.2077                 6.9968                 6.8094
 Frc consts  --      1.1970                 2.1259                 2.2142
 IR Inten    --      5.7394               317.4615                 7.9763

                     22                     23                     24
                      A                      A                      A
 Frequencies --    796.8965               816.5725               837.6318
 Red. masses --      1.5356                 5.9128                 1.7306
 Frc consts  --      0.5745                 2.3229                 0.7154
 IR Inten    --      9.2765                66.3209                50.9179

                     25                     26                     27
                      A                      A                      A
 Frequencies --    857.8728               917.8709               942.9113
 Red. masses --      3.0716                 1.1994                 1.9100
 Frc consts  --      1.3319                 0.5954                 1.0005
 IR Inten    --     97.1541                34.6666                57.7542

                     28                     29                     30
                      A                      A                      A
 Frequencies --    958.3309              1028.9212              1090.0574
 Red. masses --      2.0026                 2.4630                 1.6092
 Frc consts  --      1.0836                 1.5363                 1.1265
 IR Inten    --    143.7793               133.0484               230.8658

                     31                     32                     33
                      A                      A                      A
 Frequencies --   1113.5877              1127.7180              1182.7167
 Red. masses --      2.7066                 3.5859                 1.9615
 Frc consts  --      1.9775                 2.6869                 1.6166
 IR Inten    --     79.7208                67.0296               294.0234

                     34                     35                     36
                      A                      A                      A
 Frequencies --   1218.3910              1262.4153              1328.0846
 Red. masses --      1.6171                 1.9103                 2.0791
 Frc consts  --      1.4144                 1.7938                 2.1607
 IR Inten    --     39.1976               738.0798               522.4134

                     37                     38                     39
                      A                      A                      A
 Frequencies --   1334.6727              1356.5226              1370.8375
 Red. masses --      1.3261                 1.5281                 3.0068
 Frc consts  --      1.3918                 1.6567                 3.3291
 IR Inten    --    110.5899               371.5079               685.9587

                     40                     41                     42
                      A                      A                      A
 Frequencies --   1385.6066              1410.5410              1414.3280
 Red. masses --      1.2844                 4.9399                 4.1881
 Frc consts  --      1.4529                 5.7908                 4.9359
 IR Inten    --     98.1695               104.7686              1300.3114

                     43                     44                     45
                      A                      A                      A
 Frequencies --   1451.5550              1475.2948              1479.5647
 Red. masses --      4.3523                 1.1434                 1.0505
 Frc consts  --      5.4030                 1.4663                 1.3549
 IR Inten    --    652.3968               107.2466                64.9281

                     46                     47                     48
                      A                      A                      A
 Frequencies --   1494.6340              1506.2304              1570.4190
 Red. masses --      1.0531                 1.0541                 6.0003
 Frc consts  --      1.3861                 1.4090                 8.7187
 IR Inten    --     27.4362                 1.3149              3758.2003

                     49                     50                     51
                      A                      A                      A
 Frequencies --   2938.5310              2979.3314              2982.2667
 Red. masses --      1.0535                 1.0782                 1.0447
 Frc consts  --      5.3597                 5.6387                 5.4744
 IR Inten    --    108.0538                19.5013               121.6729

                     52                     53                     54
                      A                      A                      A
 Frequencies --   3019.9536              3034.8685              3061.7695
 Red. masses --      1.0860                 1.0919                 1.0992
 Frc consts  --      5.8358                 5.9251                 6.0714
 IR Inten    --     25.6317               193.6307                33.4873

                     55                     56                     57
                      A                      A                      A
 Frequencies --   3098.4386              3118.1695              3159.4060
 Red. masses --      1.0955                 1.0862                 1.0888
 Frc consts  --      6.1965                 6.2223                 6.4033
 IR Inten    --      4.7513               144.3474                71.8419

 - Thermochemistry -
 -------------------
 Temperature   298.150 Kelvin.  Pressure   1.00000 Atm.
 Atom     1 has atomic number  6 and mass  12.00000

 Molecular mass:   275.96065 amu.
 Principal axes and moments of inertia in atomic units:
                           1         2         3
     Eigenvalues --  1855.396875505.921387106.85386
           X            0.98423  -0.16538  -0.06279
           Y            0.13829   0.94068  -0.30983
           Z            0.11030   0.29626   0.94872
 This molecule is an asymmetric top.
 Rotational symmetry number  1.
 Warning -- assumption of classical behavior for rotation
           may cause significant error
 Rotational temperatures (Kelvin)      0.04668     0.01573     0.01219
 Rotational constants (GHZ):           0.97270     0.32778     0.25394
 Zero-point vibrational energy     404157.7 (Joules/Mol)
                                   96.59601 (Kcal/Mol)
 Warning -- explicit consideration of  18 degrees of freedom as
           vibrations may cause significant error
 Vibrational temperatures:     64.08   111.15   165.47   209.84   233.40
          (Kelvin)            268.52   288.27   364.95   394.50   404.53
                              437.87   516.95   573.96   616.83   648.64
                              738.84   814.01   862.01   898.66  1033.20
                             1068.85  1146.56  1174.87  1205.17  1234.29
                             1320.61  1356.64  1378.82  1480.39  1568.35
                             1602.20  1622.53  1701.67  1752.99  1816.33
                             1910.82  1920.30  1951.73  1972.33  1993.58
                             2029.45  2034.90  2088.46  2122.62  2128.76
                             2150.44  2167.13  2259.48  4227.89  4286.59
                             4290.82  4345.04  4366.50  4405.20  4457.96
                             4486.35  4545.68

 Zero-point correction=                           0.153936 (Hartree/Particle)
 Thermal correction to Energy=                    0.166084
 Thermal correction to Enthalpy=                  0.167028
 Thermal correction to Gibbs Free Energy=         0.114095
 Sum of electronic and zero-point Energies=           -796.579179
 Sum of electronic and thermal Energies=              -796.567030
 Sum of electronic and thermal Enthalpies=            -796.566086
 Sum of electronic and thermal Free Energies=         -796.619019

                     E (Thermal)             CV                S
                      KCal/Mol        Cal/Mol-Kelvin    Cal/Mol-Kelvin
 Total                  104.219             44.661            111.407
 Electronic               0.000              0.000              0.000
 Translational            0.889              2.981             42.744
 Rotational               0.889              2.981             32.651
 Vibrational            102.442             38.699             36.012
 Vibration     1          0.595              1.980              5.046
 Vibration     2          0.599              1.964              3.959
 Vibration     3          0.608              1.937              3.183
 Vibration     4          0.617              1.907              2.726
 Vibration     5          0.622              1.889              2.524
 Vibration     6          0.632              1.858              2.261
 Vibration     7          0.638              1.839              2.130
 Vibration     8          0.665              1.757              1.705
 Vibration     9          0.677              1.721              1.570
 Vibration    10          0.681              1.708              1.527
 Vibration    11          0.695              1.665              1.393
 Vibration    12          0.734              1.556              1.125
 Vibration    13          0.765              1.472              0.967
 Vibration    14          0.790              1.408              0.863
 Vibration    15          0.810              1.359              0.793
 Vibration    16          0.869              1.220              0.625
 Vibration    17          0.922              1.105              0.512
 Vibration    18          0.957              1.034              0.451

 Optimization completed.
    -- Stationary point found.
 Normal termination of Gaussian 16 at Thu Dec 21 04:03:33 2023.
