 Q-Chem 5.4, Q-Chem, Inc., Pleasanton, CA (2021)
 Q-Chem 5.4.0 for Intel X86 EM64T Linux

User input:
--------------------------------------------------------------
$molecule
-2 1
I                 -2.8034190000     -2.0468300000      0.0038360000
C                 -1.0633320000     -0.7444200000      0.0011460000
C                 -1.2894660000      0.6297810000     -0.0163880000
C                 -0.2101650000      1.5764500000     -0.0197460000
O                 -0.3814680000      2.8587170000     -0.0357700000
C                  1.0792640000      0.9460470000     -0.0033110000
C                  1.2213200000     -0.4397240000      0.0137730000
I                  3.2416880000     -1.2402490000      0.0370630000
C                  0.1922730000     -1.4410330000      0.0180700000
O                  0.3610010000     -2.7078200000      0.0339720000
H                 -2.3007670000      1.0209290000     -0.0280560000
H                  1.9530710000      1.5881520000     -0.0045890000
$end

$rem
BASIS  =  6-311++G(d,p)
GUI  =  2
JOB_TYPE  =  SP
METHOD  =  B3LYP
SCF_CONVERGENCE  = 8
SOLVENT_METHOD = sm12
$end

$smx
solvent dimethylformamide
charges CM5
$end

--------------------------------------------------------------

             Standard Nuclear Orientation (Angstroms)
    I     Atom           X                Y                Z
 ----------------------------------------------------------------
    1      I      -2.8034190000    -2.0468300000     0.0038360000
    2      C      -1.0633320000    -0.7444200000     0.0011460000
    3      C      -1.2894660000     0.6297810000    -0.0163880000
    4      C      -0.2101650000     1.5764500000    -0.0197460000
    5      O      -0.3814680000     2.8587170000    -0.0357700000
    6      C       1.0792640000     0.9460470000    -0.0033110000
    7      C       1.2213200000    -0.4397240000     0.0137730000
    8      I       3.2416880000    -1.2402490000     0.0370630000
    9      C       0.1922730000    -1.4410330000     0.0180700000
   10      O       0.3610010000    -2.7078200000     0.0339720000
   11      H      -2.3007670000     1.0209290000    -0.0280560000
   12      H       1.9530710000     1.5881520000    -0.0045890000
 ----------------------------------------------------------------

   16  -14219.4051385265      5.56e-09  Convergence criterion met
 Total energy in the final basis set =   -14219.7006081174

                    Orbital Energies (a.u.)
 --------------------------------------------------------------

 Alpha MOs
 -- Occupied --
*****************-176.3049-176.3048-165.7084-165.7083-165.7067-165.7067
********-165.7066 -35.8011 -35.8010 -31.2933 -31.2933 -31.2887 -31.2887
-31.2886 -31.2886 -22.9442 -22.9441 -22.9430 -22.9430 -22.9430 -22.9430
-22.9398 -22.9397 -22.9397 -22.9397 -19.0509 -19.0425 -10.2241 -10.2133
-10.2132 -10.2119 -10.1719 -10.1719  -6.3498  -6.3498  -4.7598  -4.7597
 -4.7484  -4.7484  -4.7482  -4.7481  -2.0256  -2.0254  -2.0220  -2.0218
 -2.0217  -2.0216  -2.0120  -2.0119  -2.0119  -2.0119  -0.9729  -0.9549
 -0.8328  -0.7609  -0.7023  -0.6587  -0.6555  -0.5698  -0.5588  -0.4791
 -0.4748  -0.4046  -0.4037  -0.4037  -0.3908  -0.3577  -0.3463  -0.3349
 -0.3115  -0.2841  -0.2747  -0.2744  -0.2520  -0.2427  -0.2286  -0.2177
 -0.1542

          Ground-State Mulliken Net Atomic Charges

     Atom                 Charge (a.u.)
  ----------------------------------------
      1 I                     0.056647
      2 C                     1.841872
      3 C                    -1.187889
      4 C                    -0.438790
      5 O                    -0.401951
      6 C                    -1.172365
      7 C                     1.818146
      8 I                     0.059640
      9 C                    -2.390733
     10 O                    -0.197644
     11 H                     0.005939
     12 H                     0.007128
  ----------------------------------------
  Sum of atomic charges =    -2.000000

                    Cartesian Multipole Moments
 -----------------------------------------------------------------
    Charge (ESU x 10^10)
                -9.6064
    Dipole Moment (Debye)
         X      -0.2292      Y       1.7451      Z      -0.0217
       Tot       1.7602
    Quadrupole Moments (Debye-Ang)
        XX    -142.6598     XY       3.7577     YY    -170.3783
        XZ      -0.2420     YZ       0.6697     ZZ    -114.7106

 Total job time:  141.79s(wall), 955.84s(cpu)
        *  Thank you very much for using Q-Chem.  Have a nice day.  *
