 Gaussian 16, Revision A.03,
 Gaussian 16:  ES64L-G16RevA.03 25-Dec-2016

 ----------------------------------------------------------------
 #P UB3LYP/6-311++G(d,p) SCRF=(PCM,Solvent=n,n-DiMethylFormamide)
 ----------------------------------------------------------------

 -------
 Reduced
 -------
 Symbolic Z-matrix:
 Charge = -2 Multiplicity = 1

                         Standard orientation:
 ---------------------------------------------------------------------
 Center     Atomic      Atomic             Coordinates (Angstroms)
 Number     Number       Type             X           Y           Z
 ---------------------------------------------------------------------
      1          6           0        0.890343   -1.452291    0.068373
      2          6           0       -0.360250   -0.705934    0.058352
      3          6           0       -0.359997    0.706106   -0.059316
      4          6           0        0.890832    1.451999   -0.068816
      5          6           0        2.111889    0.694807   -0.036496
      6          6           0        2.111666   -0.695547    0.036126
      7          6           0        3.404639   -1.476346    0.098178
      8          6           0        3.404992    1.475332   -0.098210
      9          8           0        0.917532   -2.750802    0.125017
     10          8           0        0.918566    2.750500   -0.125095
     11          1           0        4.114210   -1.046896    0.820139
     12          1           0        3.928164   -1.507322   -0.872451
     13          1           0        3.171913   -2.506514    0.378857
     14          1           0        3.173054    2.504727   -0.382457
     15          1           0        4.116092    1.043574   -0.817228
     16          1           0        3.926273    1.509509    0.873530
     17          6           0       -1.555904    1.649576   -0.245526
     18          6           0       -2.666344    1.234900   -1.225614
     19          6           0       -2.128040    2.202348    1.081398
     20          6           0       -1.556389   -1.649070    0.244969
     21          6           0       -2.130630   -2.200742   -1.081481
     22          6           0       -2.665060   -1.235003    1.227295
     23          1           0       -1.077592    2.525383   -0.698101
     24          1           0       -3.303925    2.102341   -1.447907
     25          1           0       -3.323227    0.444033   -0.860556
     26          1           0       -2.232103    0.890392   -2.169907
     27          1           0       -2.872735    2.992870    0.887316
     28          1           0       -1.312285    2.642608    1.660383
     29          1           0       -2.610560    1.434106    1.691037
     30          1           0       -1.077687   -2.525409    0.696083
     31          1           0       -2.875056   -2.991352   -0.886722
     32          1           0       -1.315822   -2.640719   -1.662028
     33          1           0       -2.614038   -1.432173   -1.689947
     34          1           0       -3.302649   -2.102410    1.449719
     35          1           0       -3.322276   -0.443460    0.864272
     36          1           0       -2.229011   -0.891686    2.171190
 ---------------------------------------------------------------------

 SCF Done:  E(UB3LYP) =  -696.384880986     A.U. after   17 cycles

 The electronic state is 1-A.
 Alpha  occ. eigenvalues --  -18.99609 -18.99608 -10.14527 -10.14526 -10.13544
 Alpha  occ. eigenvalues --  -10.13539 -10.13479 -10.13479 -10.13286 -10.13286
 Alpha  occ. eigenvalues --  -10.12677 -10.12676 -10.11203 -10.11158 -10.10796
 Alpha  occ. eigenvalues --  -10.10741  -0.91359  -0.91003  -0.78089  -0.76174
 Alpha  occ. eigenvalues --   -0.75368  -0.69929  -0.68441  -0.66306  -0.65768
 Alpha  occ. eigenvalues --   -0.62030  -0.61639  -0.55819  -0.54547  -0.49001
 Alpha  occ. eigenvalues --   -0.47825  -0.45056  -0.42221  -0.41219  -0.41199
 Alpha  occ. eigenvalues --   -0.40535  -0.39682  -0.38627  -0.38306  -0.37680
 Alpha  occ. eigenvalues --   -0.36679  -0.36503  -0.35723  -0.35287  -0.35149
 Alpha  occ. eigenvalues --   -0.34824  -0.32751  -0.32338  -0.31490  -0.31310
 Alpha  occ. eigenvalues --   -0.30676  -0.30300  -0.28798  -0.28486  -0.27039
 Alpha  occ. eigenvalues --   -0.27027  -0.20189  -0.18207  -0.17839  -0.16812
 Alpha  occ. eigenvalues --   -0.09626
 Alpha virt. eigenvalues --   -0.00272   0.00665   0.01214   0.01796   0.02567
 Alpha virt. eigenvalues --    0.02894   0.03246   0.03488   0.03489   0.04652
 Alpha virt. eigenvalues --    0.04914   0.05204   0.05469   0.05645   0.06299

  Beta  occ. eigenvalues --  -18.99609 -18.99608 -10.14527 -10.14526 -10.13544
  Beta  occ. eigenvalues --  -10.13539 -10.13479 -10.13479 -10.13286 -10.13286
  Beta  occ. eigenvalues --  -10.12677 -10.12676 -10.11203 -10.11158 -10.10796
  Beta  occ. eigenvalues --  -10.10741  -0.91359  -0.91003  -0.78089  -0.76174
  Beta  occ. eigenvalues --   -0.75368  -0.69929  -0.68441  -0.66306  -0.65768
  Beta  occ. eigenvalues --   -0.62030  -0.61639  -0.55819  -0.54547  -0.49001
  Beta  occ. eigenvalues --   -0.47825  -0.45056  -0.42221  -0.41219  -0.41199
  Beta  occ. eigenvalues --   -0.40535  -0.39682  -0.38627  -0.38306  -0.37680
  Beta  occ. eigenvalues --   -0.36679  -0.36503  -0.35723  -0.35287  -0.35149
  Beta  occ. eigenvalues --   -0.34824  -0.32751  -0.32338  -0.31490  -0.31310
  Beta  occ. eigenvalues --   -0.30676  -0.30300  -0.28798  -0.28486  -0.27039
  Beta  occ. eigenvalues --   -0.27027  -0.20189  -0.18207  -0.17839  -0.16812
  Beta  occ. eigenvalues --   -0.09626
  Beta virt. eigenvalues --   -0.00272   0.00665   0.01214   0.01796   0.02567
  Beta virt. eigenvalues --    0.02894   0.03246   0.03488   0.03489   0.04652
  Beta virt. eigenvalues --    0.04914   0.05204   0.05469   0.05645   0.06299

 Mulliken charges and spin densities:
               1          2
     1  C   -1.456651  -0.000000
     2  C    0.790484   0.000000
     3  C    0.791415   0.000000
     4  C   -1.458220  -0.000000
     5  C    0.719932  -0.000000
     6  C    0.718035  -0.000000
     7  C   -0.542102   0.000000
     8  C   -0.541242   0.000000
     9  O   -0.671652  -0.000000
    10  O   -0.671584  -0.000000
    11  H    0.123412   0.000000
    12  H    0.129140   0.000000
    13  H    0.161032  -0.000000
    14  H    0.161017  -0.000000
    15  H    0.123306   0.000000
    16  H    0.129225   0.000000
    17  C    0.160005  -0.000000
    18  C   -0.671659  -0.000000
    19  C   -0.700689   0.000000
    20  C    0.160374  -0.000000
    21  C   -0.700699   0.000000
    22  C   -0.671937  -0.000000
    23  H    0.191818   0.000000
    24  H    0.134970  -0.000000
    25  H    0.112343  -0.000000
    26  H    0.128855   0.000000
    27  H    0.119603   0.000000
    28  H    0.167904  -0.000000
    29  H    0.104034  -0.000000
    30  H    0.191979  -0.000000
    31  H    0.119603  -0.000000
    32  H    0.167727  -0.000000
    33  H    0.104007  -0.000000
    34  H    0.134947  -0.000000
    35  H    0.112347   0.000000
    36  H    0.128919   0.000000
 Sum of Mulliken charges =  -2.00000   0.00000

 Dipole moment (field-independent basis, Debye):
    X=             -7.4737    Y=              0.0011    Z=              0.0014  Tot=              7.4737
 Quadrupole moment (field-independent basis, Debye-Ang):
   XX=           -130.8566   YY=           -172.9076   ZZ=           -112.9976
   XY=             -0.0105   XZ=              0.0012   YZ=              1.3446

 Normal termination of Gaussian 16 at Sun Jan 21 07:45:30 2024.
