 Q-Chem 5.4, Q-Chem, Inc., Pleasanton, CA (2021)
 Q-Chem 5.4.0 for Intel X86 EM64T Linux

User input:
--------------------------------------------------------------
$molecule
0 1
O                  2.3178330000      2.7701050000     -0.2108380000
C                  2.3781960000      1.4318670000     -0.1646290000
C                  3.6436330000      0.8381990000     -0.1447170000
C                  3.7567710000     -0.5419660000     -0.0946200000
C                  2.6232880000     -1.3580800000     -0.0670410000
C                  1.3547050000     -0.7915900000     -0.0876170000
C                  0.1421420000     -1.6861160000     -0.1032030000
C                 -1.1974380000     -1.0158420000      0.0610790000
C                 -2.3373050000     -1.7939420000      0.2219420000
C                 -3.5908850000     -1.1875630000      0.3334280000
C                 -3.7258680000      0.1906780000      0.2846430000
C                 -2.5937230000      0.9950090000      0.1250690000
O                 -2.7726280000      2.3228400000      0.0857520000
C                 -1.3069690000      0.3915530000      0.0146420000
C                 -0.1143640000      1.2269010000     -0.1126870000
O                 -0.2285180000      2.4808900000     -0.1808430000
C                  1.2118780000      0.6128650000     -0.1321120000
H                  1.3645430000      3.0208170000     -0.2186750000
H                  4.5143070000      1.4814880000     -0.1675950000
H                  4.7422830000     -0.9943160000     -0.0763330000
H                  2.7315980000     -2.4364160000     -0.0310110000
H                  0.2547570000     -2.4585290000      0.6647760000
H                  0.1341290000     -2.2284630000     -1.0585260000
H                 -2.2517000000     -2.8742770000      0.2592660000
H                 -4.4740110000     -1.8041020000      0.4605490000
H                 -4.6918340000      0.6725990000      0.3687820000
H                 -1.8848220000      2.7353890000     -0.0294780000
$end
$rem
MAX_SCF_CYCLES=200
BASIS  =  6-311++G(d,p)
GUI  =  2
JOB_TYPE  =  SP
METHOD  =  B3LYP
SOLVENT_METHOD = PCM
$end
$pcm
theory = CPCM
$end
$solvent
dielectric 37.219
opticaldielectric 1.43
$end

--------------------------------------------------------------

             Standard Nuclear Orientation (Angstroms)
    I     Atom           X                Y                Z
 ----------------------------------------------------------------
    1      O       2.3178330000     2.7701050000    -0.2108380000
    2      C       2.3781960000     1.4318670000    -0.1646290000
    3      C       3.6436330000     0.8381990000    -0.1447170000
    4      C       3.7567710000    -0.5419660000    -0.0946200000
    5      C       2.6232880000    -1.3580800000    -0.0670410000
    6      C       1.3547050000    -0.7915900000    -0.0876170000
    7      C       0.1421420000    -1.6861160000    -0.1032030000
    8      C      -1.1974380000    -1.0158420000     0.0610790000
    9      C      -2.3373050000    -1.7939420000     0.2219420000
   10      C      -3.5908850000    -1.1875630000     0.3334280000
   11      C      -3.7258680000     0.1906780000     0.2846430000
   12      C      -2.5937230000     0.9950090000     0.1250690000
   13      O      -2.7726280000     2.3228400000     0.0857520000
   14      C      -1.3069690000     0.3915530000     0.0146420000
   15      C      -0.1143640000     1.2269010000    -0.1126870000
   16      O      -0.2285180000     2.4808900000    -0.1808430000
   17      C       1.2118780000     0.6128650000    -0.1321120000
   18      H       1.3645430000     3.0208170000    -0.2186750000
   19      H       4.5143070000     1.4814880000    -0.1675950000
   20      H       4.7422830000    -0.9943160000    -0.0763330000
   21      H       2.7315980000    -2.4364160000    -0.0310110000
   22      H       0.2547570000    -2.4585290000     0.6647760000
   23      H       0.1341290000    -2.2284630000    -1.0585260000
   24      H      -2.2517000000    -2.8742770000     0.2592660000
   25      H      -4.4740110000    -1.8041020000     0.4605490000
   26      H      -4.6918340000     0.6725990000     0.3687820000
   27      H      -1.8848220000     2.7353890000    -0.0294780000
 ----------------------------------------------------------------

    9    -765.4439352112      1.79e-06  Convergence criterion met
 Total energy in the final basis set =     -765.4439352112

                    Orbital Energies (a.u.)
 --------------------------------------------------------------

 Alpha MOs
 -- Occupied --
-19.1573 -19.1573 -19.1386 -10.2871 -10.2587 -10.2587 -10.2089 -10.2088
-10.1995 -10.1995 -10.1930 -10.1930 -10.1920 -10.1791 -10.1791 -10.1776
-10.1775  -1.0917  -1.0790  -1.0521  -0.8911  -0.8677  -0.8127  -0.7821
 -0.7661  -0.7560  -0.7119  -0.6635  -0.6562  -0.6148  -0.6099  -0.5826
 -0.5462  -0.5389  -0.5376  -0.4957  -0.4866  -0.4835  -0.4691  -0.4591
 -0.4521  -0.4370  -0.4315  -0.4291  -0.4242  -0.4114  -0.4034  -0.3995
 -0.3866  -0.3809  -0.3586  -0.3567  -0.3533  -0.3427  -0.2872  -0.2820
 -0.2711  -0.2406  -0.2365

          Ground-State Mulliken Net Atomic Charges

     Atom                 Charge (a.u.)
  ----------------------------------------
      1 O                    -0.340354
      2 C                     0.066023
      3 C                    -0.317156
      4 C                    -0.210003
      5 C                    -0.304778
      6 C                    -0.605409
      7 C                    -0.503662
      8 C                    -0.611858
      9 C                    -0.305012
     10 C                    -0.209124
     11 C                    -0.318664
     12 C                     0.062581
     13 O                    -0.340277
     14 C                     1.054343
     15 C                    -0.238389
     16 O                    -0.406458
     17 C                     1.050311
     18 H                     0.383217
     19 H                     0.216492
     20 H                     0.220590
     21 H                     0.202772
     22 H                     0.181585
     23 H                     0.250558
     24 H                     0.202505
     25 H                     0.220870
     26 H                     0.216453
     27 H                     0.382844
  ----------------------------------------
  Sum of atomic charges =     0.000000

                    Cartesian Multipole Moments
 -----------------------------------------------------------------
    Charge (ESU x 10^10)
                 0.0000
    Dipole Moment (Debye)
         X       0.5821      Y      -6.5946      Z       0.0714
       Tot       6.6206
    Quadrupole Moments (Debye-Ang)
        XX     -91.7059     XY       0.7013     YY     -99.4995
        XZ      -0.6112     YZ       0.1487     ZZ    -101.9600

 Total job time:  51.32s(wall), 346.33s(cpu)
        *  Thank you very much for using Q-Chem.  Have a nice day.  *
