 Gaussian 16, Revision A.03,
 Gaussian 16:  ES64L-G16RevA.03 25-Dec-2016

 ----------------------------------------------------------------
 #P UB3LYP/6-311++G(d,p) SCRF=(PCM,Solvent=n,n-DiMethylFormamide)
 ----------------------------------------------------------------

 ------------------
 Quinone PCM in DMF
 ------------------
 Symbolic Z-matrix:
 Charge =  0 Multiplicity = 1

                         Standard orientation:
 ---------------------------------------------------------------------
 Center     Atomic      Atomic             Coordinates (Angstroms)
 Number     Number       Type             X           Y           Z
 ---------------------------------------------------------------------
      1          6           0      -19.608424    4.136858    0.519195
      2          6           0      -19.848519    4.870524   -0.638041
      3          6           0      -19.536522    4.331190   -1.888669
      4          6           0      -19.054126    2.857484    0.430989
      5          6           0      -18.742168    2.316361   -0.823499
      6          6           0      -18.984875    3.057636   -1.982464
      7          6           0      -18.794793    2.075352    1.672651
      8          6           0      -18.192909    0.710544    1.547262
      9          6           0      -17.914997    0.179583    0.331097
     10          6           0      -18.154248    0.951331   -0.925235
     11          8           0      -19.068708    2.536176    2.770493
     12          8           0      -17.870566    0.469445   -2.012375
     13          1           0      -20.278578    5.863251   -0.568554
     14          1           0      -19.724812    4.905894   -2.788426
     15          6           0      -17.938144   -0.023050    2.835580
     16          1           0      -19.842169    4.535853    1.498434
     17          1           0      -18.735617    2.620046   -2.941210
     18          1           0      -18.658955   -0.837827    2.967084
     19          1           0      -18.045023    0.653006    3.681953
     20          1           0      -16.938602   -0.461840    2.844053
     21          6           0      -17.317871   -1.200589    0.152640
     22          6           0      -15.805160   -1.167624    0.178015
     23          6           0      -14.970211   -1.944741    0.881682
     24          6           0      -13.472394   -1.766791    0.735959
     25          6           0      -12.757649   -2.951940    0.039237
     26          6           0      -11.268916   -2.752585   -0.033831
     27          6           0      -10.492934   -2.601204   -1.116590
     28          6           0      -15.406211   -3.035826    1.828826
     29          6           0       -8.999613   -2.397370   -0.957414
     30          6           0       -8.505829   -0.980753   -1.345503
     31          6           0       -7.013585   -0.845214   -1.219043
     32          6           0       -6.306547   -0.052651   -0.400871
     33          6           0      -10.996020   -2.629418   -2.539247
     34          6           0       -6.912903    0.922642    0.578638
     35          6           0       -4.791651   -0.089017   -0.429887
     36          6           0       -4.146303   -0.700431    0.839388
     37          6           0       -2.643923   -0.665564    0.786513
     38          6           0       -1.778608   -1.689262    0.758941
     39          6           0       -2.175358   -3.144850    0.805858
     40          6           0       -0.288207   -1.422841    0.689307
     41          6           0        0.366522   -1.820539   -0.657721
     42          6           0        1.852763   -1.592015   -0.656646
     43          6           0        2.575497   -0.747673   -1.406452
     44          6           0        2.000440    0.159478   -2.466926
     45          6           0        4.078307   -0.668204   -1.226508
     46          6           0        4.574442    0.661046   -0.603357
     47          6           0        6.073109    0.712738   -0.491697
     48          6           0        6.833234    0.774891    0.610954
     49          6           0        6.292792    0.834182    2.019053
     50          6           0        8.343948    0.803795    0.492230
     51          6           0        9.045900   -0.483788    0.992915
     52          6           0       10.544115   -0.381202    0.916005
     53          6           0       11.400433   -1.096742    0.172902
     54          6           0       10.996993   -2.216537   -0.755310
     55          6           0       12.887351   -0.811549    0.241717
     56          1           0      -17.640722   -1.578812   -0.821869
     57          1           0      -17.712884   -1.873209    0.914078
     58          1           0      -15.365860   -0.424904   -0.484367
     59          1           0      -13.027164   -1.628515    1.730590
     60          1           0      -13.264383   -0.854232    0.170538
     61          1           0      -13.195653   -3.091846   -0.951507
     62          1           0      -12.959680   -3.871959    0.601183
     63          1           0      -10.773572   -2.719583    0.936943
     64          1           0      -16.479243   -3.034673    2.020295
     65          1           0      -14.890883   -2.937356    2.790892
     66          1           0      -15.147666   -4.025051    1.436033
     67          1           0       -8.465604   -3.132354   -1.574938
     68          1           0       -8.711299   -2.593069    0.079383
     69          1           0       -9.031566   -0.246065   -0.731637
     70          1           0       -8.788507   -0.775626   -2.385214
     71          1           0       -6.447300   -1.496537   -1.885430
     72          1           0      -12.065979   -2.821802   -2.610756
     73          1           0      -10.475452   -3.406256   -3.111593
     74          1           0      -10.797083   -1.680769   -3.048863
     75          1           0       -8.001480    0.945304    0.540139
     76          1           0       -6.548410    1.937492    0.380130
     77          1           0       -6.623697    0.683480    1.607509
     78          1           0       -4.406420    0.931728   -0.557985
     79          1           0       -4.455001   -0.660667   -1.299501
     80          1           0       -4.522329   -1.717817    0.967828
     81          1           0       -4.478187   -0.133674    1.717843
     82          1           0       -2.220566    0.338847    0.756386
     83          1           0       -3.250985   -3.291227    0.898493
     84          1           0       -1.693760   -3.643392    1.655385
     85          1           0       -1.846263   -3.675244   -0.094027
     86          1           0        0.216634   -1.971612    1.496004
     87          1           0       -0.096574   -0.360816    0.867494
     88          1           0       -0.126330   -1.270565   -1.462474
     89          1           0        0.176956   -2.884082   -0.847370
     90          1           0        2.397818   -2.198032    0.067676
     91          1           0        0.924642    0.041188   -2.592048
     92          1           0        2.475339   -0.038057   -3.435248
     93          1           0        2.192066    1.212519   -2.234954
     94          1           0        4.568161   -0.798937   -2.201055
     95          1           0        4.416084   -1.494506   -0.594452
     96          1           0        4.092506    0.793804    0.367762
     97          1           0        4.242107    1.496585   -1.231396
     98          1           0        6.594481    0.684518   -1.448978
     99          1           0        5.204122    0.849314    2.058219
    100          1           0        6.660179    1.731903    2.530261
    101          1           0        6.632506   -0.022371    2.610938
    102          1           0        8.736255    1.656984    1.062237
    103          1           0        8.627124    0.969463   -0.551205
    104          1           0        8.668987   -1.333623    0.419611
    105          1           0        8.761577   -0.663250    2.036945
    106          1           0       10.972247    0.394298    1.551845
    107          1           0        9.926556   -2.418843   -0.739820
    108          1           0       11.518071   -3.142313   -0.484029
    109          1           0       11.276047   -1.993863   -1.790694
    110          1           0       13.426579   -1.744913    0.453567
    111          1           0       13.092737   -0.136420    1.077401
    112          6           0       13.476311   -0.188034   -1.048942
    113          6           0       14.960570    0.030835   -0.947478
    114          6           0       15.644098    1.184118   -0.961586
    115          6           0       15.016237    2.547571   -1.119980
    116          6           0       17.153478    1.174843   -0.823991
    117          6           0       17.671242    1.746796    0.520060
    118          6           0       19.173220    1.773844    0.587277
    119          6           0       19.991414    1.095069    1.404154
    120          6           0       19.527422    0.146355    2.482549
    121          6           0       21.493076    1.265045    1.289046
    122          6           0       22.233865    0.020314    0.738855
    123          6           0       23.724407    0.215053    0.701534
    124          6           0       24.538922    0.243808   -0.361807
    125          6           0       24.096345    0.066499   -1.792646
    126          6           0       26.023471    0.460473   -0.193317
    127          1           0       12.944790    0.741902   -1.262717
    128          1           0       13.278740   -0.859581   -1.893327
    129          1           0       15.541399   -0.885190   -0.835483
    130          1           0       13.935176    2.507296   -1.249032
    131          1           0       15.439871    3.062795   -1.990209
    132          1           0       15.221720    3.182451   -0.251586
    133          1           0       17.596780    1.757077   -1.643226
    134          1           0       17.525684    0.151960   -0.931470
    135          1           0       17.240850    1.163788    1.337272
    136          1           0       17.298206    2.771175    0.640192
    137          1           0       19.642190    2.434034   -0.142914
    138          1           0       18.442368    0.076750    2.552050
    139          1           0       19.907384    0.466055    3.460136
    140          1           0       19.912947   -0.864751    2.313989
    141          1           0       21.907567    1.506960    2.277180
    142          1           0       21.717561    2.116586    0.640336
    143          1           0       21.834021   -0.218311   -0.249263
    144          1           0       22.010157   -0.841747    1.379089
    145          1           0       24.182760    0.362887    1.679598
    146          1           0       23.020203   -0.066589   -1.898852
    147          1           0       24.589788   -0.803353   -2.242436
    148          1           0       24.389804    0.934855   -2.394173
    149          1           0       26.299492    0.583673    0.855876
    150          1           0       26.355180    1.350818   -0.740904
    151          1           0       26.592208   -0.385009   -0.598819
 ---------------------------------------------------------------------

 SCF Done:  E(UB3LYP) =  -2528.52317795     A.U. after   16 cycles

 Alpha virt. eigenvalues --    0.47082   0.47538   0.47712   0.48160   0.48296
 Alpha virt. eigenvalues --    0.48434   0.48794   0.48935   0.49408   0.49645
 Alpha virt. eigenvalues --    0.49785   0.49954   0.49971   0.50555   0.50747

  Beta  occ. eigenvalues --  -19.13476 -19.13433 -10.28276 -10.28232 -10.21496
  Beta  occ. eigenvalues --  -10.21234 -10.20752 -10.20699 -10.19871 -10.19836
  Beta  occ. eigenvalues --  -10.19796 -10.19779 -10.18318 -10.18166 -10.17703
  Beta  occ. eigenvalues --  -10.17593 -10.17551 -10.17550 -10.17549 -10.17549
  Beta  occ. eigenvalues --  -10.17547 -10.17546 -10.17541 -10.17297 -10.17051
  Beta  occ. eigenvalues --  -10.17030 -10.16946 -10.16836 -10.16830 -10.16828
  Beta  occ. eigenvalues --  -10.16828 -10.16827 -10.16827 -10.16826 -10.16810
  Beta  occ. eigenvalues --  -10.16795 -10.16783 -10.16782 -10.16781 -10.16781
  Beta  occ. eigenvalues --  -10.16780 -10.16779 -10.16756 -10.16522 -10.16181
  Beta  occ. eigenvalues --  -10.16179 -10.16174 -10.16165 -10.16164 -10.16164
  Beta  occ. eigenvalues --  -10.16164 -10.16162 -10.16162 -10.16162 -10.16134
  Beta  occ. eigenvalues --  -10.16133 -10.16132 -10.16131 -10.16129 -10.16129
  Beta  occ. eigenvalues --  -10.16123 -10.16108 -10.16045  -1.06867  -1.06674
  Beta  occ. eigenvalues --   -0.89098  -0.85604  -0.83332  -0.83235  -0.83064
  Beta  occ. eigenvalues --   -0.82820  -0.82509  -0.82139  -0.81717  -0.81264
  Beta  occ. eigenvalues --   -0.80820  -0.80497  -0.79024  -0.77905  -0.77852
  Beta  occ. eigenvalues --   -0.77427  -0.76813  -0.76123  -0.75394  -0.74646
  Beta  occ. eigenvalues --   -0.73902  -0.73202  -0.72616  -0.72220  -0.71133
  Beta  occ. eigenvalues --   -0.69236  -0.69017  -0.68952  -0.68903  -0.68816
  Beta  occ. eigenvalues --   -0.68681  -0.68481  -0.68251  -0.68002  -0.67559
  Beta  occ. eigenvalues --   -0.66997  -0.66343  -0.64713  -0.63910  -0.63248
  Beta  occ. eigenvalues --   -0.62605  -0.61822  -0.61118  -0.60442  -0.59757
  Beta  occ. eigenvalues --   -0.59161  -0.58721  -0.58482  -0.58392  -0.55260
  Beta  occ. eigenvalues --   -0.52649  -0.52413  -0.52358  -0.52263  -0.52135
  Beta  occ. eigenvalues --   -0.52114  -0.51928  -0.51711  -0.51505  -0.51346
  Beta  occ. eigenvalues --   -0.51250  -0.50115  -0.48388  -0.48071  -0.48028
  Beta  occ. eigenvalues --   -0.47996  -0.47912  -0.47847  -0.47824  -0.47510
  Beta  occ. eigenvalues --   -0.47055  -0.46593  -0.46433  -0.46261  -0.46067
  Beta  occ. eigenvalues --   -0.45656  -0.45226  -0.44854  -0.44766  -0.44605
  Beta  occ. eigenvalues --   -0.44386  -0.44088  -0.43952  -0.43701  -0.43490
  Beta  occ. eigenvalues --   -0.43343  -0.43138  -0.43077  -0.42678  -0.42340
  Beta  occ. eigenvalues --   -0.42083  -0.41978  -0.41803  -0.41779  -0.41684
  Beta  occ. eigenvalues --   -0.41541  -0.41378  -0.41237  -0.41125  -0.41022
  Beta  occ. eigenvalues --   -0.40941  -0.40565  -0.40474  -0.40409  -0.40360
  Beta  occ. eigenvalues --   -0.40338  -0.40019  -0.39683  -0.39499  -0.39374
  Beta  occ. eigenvalues --   -0.39245  -0.38687  -0.38494  -0.37892  -0.37679
  Beta  occ. eigenvalues --   -0.37475  -0.37455  -0.37418  -0.37365  -0.37353
  Beta  occ. eigenvalues --   -0.37264  -0.37162  -0.37157  -0.37109  -0.37059
  Beta  occ. eigenvalues --   -0.36913  -0.36864  -0.36751  -0.36726  -0.36524
  Beta  occ. eigenvalues --   -0.36504  -0.36270  -0.36179  -0.35976  -0.35869
  Beta  occ. eigenvalues --   -0.35685  -0.35597  -0.35310  -0.34789  -0.34221
  Beta  occ. eigenvalues --   -0.33912  -0.33785  -0.33732  -0.33597  -0.33537
  Beta  occ. eigenvalues --   -0.33315  -0.32976  -0.32932  -0.32916  -0.32892
  Beta  occ. eigenvalues --   -0.32563  -0.32053  -0.31572  -0.31198  -0.30965
  Beta  occ. eigenvalues --   -0.29208  -0.29077  -0.27927  -0.27734  -0.27277
  Beta  occ. eigenvalues --   -0.25408  -0.25288  -0.25076  -0.24778  -0.24407
  Beta  occ. eigenvalues --   -0.23979  -0.23526  -0.23086  -0.22711  -0.22460
  Beta virt. eigenvalues --   -0.12440  -0.05667  -0.03191  -0.01105  -0.01017
  Beta virt. eigenvalues --   -0.00898  -0.00693  -0.00418  -0.00150   0.00017
  Beta virt. eigenvalues --    0.00032   0.00036   0.00124   0.00180   0.00253

 Mulliken charges and spin densities:
               1          2
     1  C    0.187097  -0.000000
     2  C   -0.465948   0.000000
     3  C   -0.402171   0.000000
     4  C   -0.096143   0.000000
     5  C    0.262135   0.000000
     6  C    0.091143  -0.000000
     7  C   -0.858228   0.000000
     8  C    0.772981  -0.000000
     9  C    1.101084  -0.000000
    10  C   -0.957865   0.000000
    11  O   -0.273893  -0.000000
    12  O   -0.253383  -0.000000
    13  H    0.203145  -0.000000
    14  H    0.207213   0.000000
    15  C   -0.491717   0.000000
    16  H    0.191131   0.000000
    17  H    0.188543  -0.000000
    18  H    0.214990   0.000000
    19  H    0.188462  -0.000000
    20  H    0.177430   0.000000
    21  C   -0.203623  -0.000000
    22  C   -1.138421   0.000000
    23  C    1.322170  -0.000000
    24  C   -0.718952   0.000000
    25  C   -0.324960   0.000000
    26  C   -0.408187   0.000000
    27  C    0.645074  -0.000000
    28  C   -0.700667  -0.000000
    29  C   -0.499237  -0.000000
    30  C   -0.264795   0.000000
    31  C   -0.316334   0.000000
    32  C    0.500936   0.000000
    33  C   -0.699724  -0.000000
    34  C   -0.720323  -0.000000
    35  C   -0.423505  -0.000000
    36  C   -0.266657  -0.000000
    37  C   -0.329488   0.000000
    38  C    0.489565   0.000000
    39  C   -0.715877  -0.000000
    40  C   -0.407233  -0.000000
    41  C   -0.272260   0.000000
    42  C   -0.325691  -0.000000
    43  C    0.489173   0.000000
    44  C   -0.715961   0.000000
    45  C   -0.404543   0.000000
    46  C   -0.274651  -0.000000
    47  C   -0.317818  -0.000000
    48  C    0.481328   0.000000
    49  C   -0.716436   0.000000
    50  C   -0.406340   0.000000
    51  C   -0.280042  -0.000000
    52  C   -0.310680  -0.000000
    53  C    0.505896   0.000000
    54  C   -0.718680   0.000000
    55  C   -0.433874  -0.000000
    56  H    0.236863   0.000000
    57  H    0.187811  -0.000000
    58  H    0.220563   0.000000
    59  H    0.162273  -0.000000
    60  H    0.173660  -0.000000
    61  H    0.144884   0.000000
    62  H    0.137949  -0.000000
    63  H    0.183008   0.000000
    64  H    0.113209  -0.000000
    65  H    0.179567   0.000000
    66  H    0.178749   0.000000
    67  H    0.137627   0.000000
    68  H    0.177978   0.000000
    69  H    0.142276   0.000000
    70  H    0.128331  -0.000000
    71  H    0.193325   0.000000
    72  H    0.126615  -0.000000
    73  H    0.162052   0.000000
    74  H    0.168631   0.000000
    75  H    0.130739  -0.000000
    76  H    0.162787   0.000000
    77  H    0.168694   0.000000
    78  H    0.138957   0.000000
    79  H    0.174388  -0.000000
    80  H    0.135686  -0.000000
    81  H    0.127782   0.000000
    82  H    0.192166   0.000000
    83  H    0.131647  -0.000000
    84  H    0.162346  -0.000000
    85  H    0.168935   0.000000
    86  H    0.139048  -0.000000
    87  H    0.173678  -0.000000
    88  H    0.135930  -0.000000
    89  H    0.127925  -0.000000
    90  H    0.191607  -0.000000
    91  H    0.131087   0.000000
    92  H    0.162500  -0.000000
    93  H    0.169086   0.000000
    94  H    0.139318   0.000000
    95  H    0.174241   0.000000
    96  H    0.136265  -0.000000
    97  H    0.127758  -0.000000
    98  H    0.192420  -0.000000
    99  H    0.131257   0.000000
   100  H    0.162360   0.000000
   101  H    0.168759  -0.000000
   102  H    0.139210  -0.000000
   103  H    0.173721   0.000000
   104  H    0.135864  -0.000000
   105  H    0.128114   0.000000
   106  H    0.192114  -0.000000
   107  H    0.131105   0.000000
   108  H    0.162233   0.000000
   109  H    0.169442   0.000000
   110  H    0.141027   0.000000
   111  H    0.168768   0.000000
   112  C   -0.255479   0.000000
   113  C   -0.407317  -0.000000
   114  C    0.537527  -0.000000
   115  C   -0.709415   0.000000
   116  C   -0.394807  -0.000000
   117  C   -0.199311  -0.000000
   118  C   -0.194168   0.000000
   119  C    0.446326   0.000000
   120  C   -0.752593  -0.000000
   121  C   -0.583976  -0.000000
   122  C   -0.251841  -0.000000
   123  C    0.040098   0.000000
   124  C    0.272473  -0.000000
   125  C   -0.685770   0.000000
   126  C   -0.622414   0.000000
   127  H    0.132244   0.000000
   128  H    0.129035  -0.000000
   129  H    0.186897   0.000000
   130  H    0.132407  -0.000000
   131  H    0.162544  -0.000000
   132  H    0.167853  -0.000000
   133  H    0.134699  -0.000000
   134  H    0.179729   0.000000
   135  H    0.142614   0.000000
   136  H    0.124237   0.000000
   137  H    0.206506   0.000000
   138  H    0.128276   0.000000
   139  H    0.163632   0.000000
   140  H    0.170377   0.000000
   141  H    0.137525  -0.000000
   142  H    0.164781   0.000000
   143  H    0.134692  -0.000000
   144  H    0.124900   0.000000
   145  H    0.193138   0.000000
   146  H    0.140684   0.000000
   147  H    0.145955  -0.000000
   148  H    0.148404  -0.000000
   149  H    0.151460  -0.000000
   150  H    0.151424   0.000000
   151  H    0.147134   0.000000
 Sum of Mulliken charges =  -0.00000   0.00000

 Dipole moment (field-independent basis, Debye):
    X=             -0.0523    Y=              0.0371    Z=             -0.3630  Tot=              0.3687
 Quadrupole moment (field-independent basis, Debye-Ang):
   XX=           -383.8074   YY=           -379.1900   ZZ=           -400.1637
   XY=            -10.6949   XZ=              4.4718   YZ=            -15.8910

 Normal termination of Gaussian 16 at Mon Jan 22 19:40:18 2024.
