 Gaussian 16, Revision A.03,
 Gaussian 16:  ES64L-G16RevA.03 25-Dec-2016

 --------------------------------------
 #P UB3LYP/6-311++G(d,p) nosym opt freq
 --------------------------------------

 -------
 Radical
 -------
 Symbolic Z-matrix:
 Charge = -1 Multiplicity = 2

 SCF Done:  E(UB3LYP) =  -939.779077655     A.U. after   24 cycles
 Optimization completed.
    -- Stationary point found.
 Normal termination of Gaussian 16 at Sun Jan  7 06:55:48 2024.

 ----------------------------------------------------------------------
 #P Geom=AllCheck Guess=TCheck SCRF=Check GenChk UB3LYP/6-311++G(d,p) F
 req
 ----------------------------------------------------------------------

 Structure from the checkpoint file:  "213-rad.chk"
 -------
 Radical
 -------
 Charge = -1 Multiplicity = 2

                          Input orientation:
 ---------------------------------------------------------------------
 Center     Atomic      Atomic             Coordinates (Angstroms)
 Number     Number       Type             X           Y           Z
 ---------------------------------------------------------------------
      1          8           0        3.390607    2.715757    0.962638
      2          6           0        3.042962    1.539032    0.693546
      3          6           0        4.021241    0.466494    0.491664
      4          6           0        5.397711    0.758741    0.603156
      5          6           0        6.356230   -0.218451    0.420032
      6          6           0        5.961249   -1.540466    0.114567
      7          6           0        4.621280   -1.850895    0.000380
      8          6           0        3.621306   -0.868307    0.183280
      9          6           0        2.215226   -1.247444    0.053575
     10          8           0        1.862398   -2.426235   -0.217759
     11          6           0        1.239115   -0.176435    0.258421
     12          6           0       -0.135265   -0.479990    0.134645
     13          6           0       -1.120297    0.480382    0.322433
     14          6           0       -0.708061    1.810369    0.623986
     15          6           0        0.628736    2.122663    0.735721
     16          6           0        1.638720    1.153897    0.561414
     17          7           0       -2.506331    0.191842    0.248717
     18          6           0       -2.923789   -1.191347    0.063352
     19          6           0       -4.348069   -1.416842    0.608714
     20          6           0       -5.275444   -0.208331    0.344070
     21          6           0       -4.721559    0.632356   -0.807114
     22          6           0       -3.339298    1.190749   -0.443231
     23          1           0        5.669911    1.781553    0.838107
     24          1           0        7.410533    0.026510    0.510059
     25          1           0        6.713157   -2.311065   -0.029959
     26          1           0        4.291282   -2.856821   -0.232816
     27          1           0       -0.366228   -1.503968   -0.125229
     28          1           0       -1.449434    2.583151    0.789157
     29          1           0        0.943053    3.132981    0.972727
     30          1           0       -2.863291   -1.503077   -0.994588
     31          1           0       -2.232034   -1.832189    0.607516
     32          1           0       -4.296341   -1.613250    1.683492
     33          1           0       -4.755128   -2.320566    0.140855
     34          1           0       -6.295631   -0.542396    0.128826
     35          1           0       -5.333783    0.419672    1.239829
     36          1           0       -4.657214    0.018742   -1.712722
     37          1           0       -5.386818    1.468779   -1.044605
     38          1           0       -3.478701    2.058069    0.212491
     39          1           0       -2.831997    1.556334   -1.349458
 ---------------------------------------------------------------------

 SCF Done:  E(UB3LYP) =  -939.779077655     A.U. after    1 cycles

 Alpha  occ. eigenvalues --  -18.94227 -18.94102 -14.22584 -10.11654 -10.11018
 Alpha  occ. eigenvalues --  -10.09898 -10.09780 -10.09749 -10.09325 -10.09288
 Alpha  occ. eigenvalues --  -10.08945 -10.05497 -10.05477 -10.05396 -10.05139
 Alpha  occ. eigenvalues --  -10.04780 -10.04758 -10.04723 -10.04578 -10.04515
 Alpha  occ. eigenvalues --  -10.04395 -10.04186  -0.86846  -0.86471  -0.84911
 Alpha  occ. eigenvalues --   -0.74111  -0.73152  -0.71327  -0.67892  -0.65829
 Alpha  occ. eigenvalues --   -0.62912  -0.62626  -0.61820  -0.57049  -0.56023
 Alpha  occ. eigenvalues --   -0.53589  -0.51458  -0.49477  -0.47125  -0.45609
 Alpha  occ. eigenvalues --   -0.43963  -0.42709  -0.41656  -0.41062  -0.38493
 Alpha  occ. eigenvalues --   -0.37394  -0.34916  -0.34725  -0.34350  -0.33736
 Alpha  occ. eigenvalues --   -0.33212  -0.32412  -0.31076  -0.30167  -0.29805
 Alpha  occ. eigenvalues --   -0.29259  -0.28956  -0.28657  -0.27956  -0.27773
 Alpha  occ. eigenvalues --   -0.26748  -0.26378  -0.25143  -0.24536  -0.24445
 Alpha  occ. eigenvalues --   -0.24236  -0.22923  -0.22352  -0.21665  -0.20769
 Alpha  occ. eigenvalues --   -0.16495  -0.13791  -0.13265  -0.12931  -0.11183
 Alpha  occ. eigenvalues --   -0.10357  -0.09663  -0.01035
 Alpha virt. eigenvalues --    0.05233   0.07004   0.07334   0.07414   0.08256
 Alpha virt. eigenvalues --    0.08467   0.09820   0.10028   0.10379   0.10432
 Alpha virt. eigenvalues --    0.10598   0.11460   0.11592   0.11925   0.12604

  Beta  occ. eigenvalues --  -18.93678 -18.93475 -14.22575 -10.11652 -10.11017
  Beta  occ. eigenvalues --  -10.09898 -10.09780 -10.09708 -10.09288 -10.09203
  Beta  occ. eigenvalues --  -10.08783 -10.05458 -10.05434 -10.05328 -10.05158
  Beta  occ. eigenvalues --  -10.04804 -10.04722 -10.04660 -10.04490 -10.04406
  Beta  occ. eigenvalues --  -10.04377 -10.04119  -0.85894  -0.85393  -0.84871
  Beta  occ. eigenvalues --   -0.73982  -0.72972  -0.71242  -0.67885  -0.65459
  Beta  occ. eigenvalues --   -0.62725  -0.62463  -0.61654  -0.56965  -0.55933
  Beta  occ. eigenvalues --   -0.52951  -0.51334  -0.49276  -0.47040  -0.45569
  Beta  occ. eigenvalues --   -0.43861  -0.42520  -0.41643  -0.40889  -0.38360
  Beta  occ. eigenvalues --   -0.37355  -0.34824  -0.34580  -0.34236  -0.33623
  Beta  occ. eigenvalues --   -0.33144  -0.32365  -0.31044  -0.30130  -0.29748
  Beta  occ. eigenvalues --   -0.29057  -0.28560  -0.27994  -0.27725  -0.27394
  Beta  occ. eigenvalues --   -0.26542  -0.26083  -0.25100  -0.24398  -0.24010
  Beta  occ. eigenvalues --   -0.22814  -0.22260  -0.22223  -0.20701  -0.20544
  Beta  occ. eigenvalues --   -0.15899  -0.12995  -0.12112  -0.11596  -0.10640
  Beta  occ. eigenvalues --   -0.09800  -0.09074
  Beta virt. eigenvalues --    0.04861   0.05239   0.07131   0.07376   0.08021
  Beta virt. eigenvalues --    0.08270   0.08458   0.09977   0.10027   0.10378
  Beta virt. eigenvalues --    0.10581   0.11245   0.11477   0.11591   0.12138

 Mulliken charges and spin densities:
               1          2
     1  O   -0.364203   0.204004
     2  C   -0.979639   0.057315
     3  C    0.162405   0.059827
     4  C    0.063599   0.007252
     5  C   -0.391956   0.057948
     6  C   -0.430982   0.030401
     7  C    0.010501   0.028431
     8  C    0.504775   0.041048
     9  C   -0.837268   0.089125
    10  O   -0.372904   0.236212
    11  C    0.501994   0.067360
    12  C    0.019633   0.030659
    13  C   -0.284008   0.014891
    14  C   -0.054058   0.044265
    15  C    0.108176   0.008860
    16  C    0.099264   0.030435
    17  N    0.318390   0.007242
    18  C   -0.213834  -0.005409
    19  C   -0.366959   0.002462
    20  C   -0.306142  -0.000481
    21  C   -0.505254  -0.003808
    22  C   -0.128742   0.000763
    23  H    0.154766  -0.000405
    24  H    0.120664  -0.004453
    25  H    0.122087  -0.002913
    26  H    0.153619  -0.002104
    27  H    0.138195  -0.001308
    28  H    0.128043  -0.002585
    29  H    0.176826  -0.000805
    30  H    0.147982   0.003335
    31  H    0.164153   0.000581
    32  H    0.150173   0.000156
    33  H    0.121776   0.000236
    34  H    0.155551   0.000032
    35  H    0.135919  -0.000019
    36  H    0.136452   0.000423
    37  H    0.155008  -0.000072
    38  H    0.133075   0.000025
    39  H    0.152923   0.001072
 Sum of Mulliken charges =  -1.00000   1.00000

 Dipole moment (field-independent basis, Debye):
    X=            -13.1645    Y=             -0.6310    Z=             -2.1355  Tot=             13.3515
 Quadrupole moment (field-independent basis, Debye-Ang):
   XX=           -182.5078   YY=           -161.1009   ZZ=           -140.4288
   XY=             -7.0894   XZ=             -4.8105   YZ=             -5.9539

  Exact polarizability: 458.882 -17.999 269.153  12.007  22.372 152.573
 Approx polarizability: 606.372 -10.947 492.107  13.999  55.734 248.152

                      1                      2                      3
                      A                      A                      A
 Frequencies --     15.5093                28.8158                48.1343
 Red. masses --      2.7679                 3.9738                 3.1925
 Frc consts  --      0.0004                 0.0019                 0.0044
 IR Inten    --      3.6207                 1.4212                 2.0146

                      4                      5                      6
                      A                      A                      A
 Frequencies --     70.2122                90.9784               122.4339
 Red. masses --      4.6822                 4.6973                 3.4766
 Frc consts  --      0.0136                 0.0229                 0.0307
 IR Inten    --      4.7619                 2.2960                 0.0364

                      7                      8                      9
                      A                      A                      A
 Frequencies --    144.4195               161.2451               202.5648
 Red. masses --      3.9114                 7.2634                 4.1755
 Frc consts  --      0.0481                 0.1113                 0.1009
 IR Inten    --      0.6431                 3.8528                 0.8977

                     10                     11                     12
                      A                      A                      A
 Frequencies --    216.9752               230.2807               246.5451
 Red. masses --      5.2747                 4.2106                 2.3485
 Frc consts  --      0.1463                 0.1316                 0.0841
 IR Inten    --      2.1970                 3.2418                 9.1025

                     13                     14                     15
                      A                      A                      A
 Frequencies --    288.1288               296.4861               343.4358
 Red. masses --      4.7379                 2.6028                 4.1235
 Frc consts  --      0.2317                 0.1348                 0.2866
 IR Inten    --      0.2817                 0.9855                 7.5357

                     16                     17                     18
                      A                      A                      A
 Frequencies --    378.5211               406.7085               417.7340
 Red. masses --     10.5024                 6.1130                 4.0666
 Frc consts  --      0.8866                 0.5958                 0.4181
 IR Inten    --      5.3097                 3.2104                 1.2500

                     19                     20                     21
                      A                      A                      A
 Frequencies --    429.8221               447.1732               458.7777
 Red. masses --      6.0953                 4.7727                 3.8996
 Frc consts  --      0.6635                 0.5623                 0.4836
 IR Inten    --      0.1834                 1.0889                 0.4150

                     22                     23                     24
                      A                      A                      A
 Frequencies --    473.0983               484.8169               494.9401
 Red. masses --      3.6358                 3.9427                 6.4596
 Frc consts  --      0.4795                 0.5460                 0.9323
 IR Inten    --      0.0942                 0.4872                 1.2812

                     25                     26                     27
                      A                      A                      A
 Frequencies --    534.1137               560.2120               627.6105
 Red. masses --      3.3323                 4.3140                 3.6291
 Frc consts  --      0.5601                 0.7977                 0.8422
 IR Inten    --      3.2822                 7.3159                 9.0695

                     28                     29                     30
                      A                      A                      A
 Frequencies --    642.9833               661.8966               678.7375
 Red. masses --      6.8202                 3.3287                 4.4254
 Frc consts  --      1.6613                 0.8592                 1.2012
 IR Inten    --      6.0295                15.7196                 1.5516

                     31                     32                     33
                      A                      A                      A
 Frequencies --    701.5174               706.9870               727.0773
 Red. masses --      5.5498                 2.6508                 3.2936
 Frc consts  --      1.6092                 0.7806                 1.0258
 IR Inten    --      5.8485                55.4429                10.5366

                     34                     35                     36
                      A                      A                      A
 Frequencies --    734.7795               776.7124               786.9154
 Red. masses --      4.1208                 1.8604                 1.4155
 Frc consts  --      1.3108                 0.6613                 0.5164
 IR Inten    --      0.6708                11.3163                 3.8664

                     37                     38                     39
                      A                      A                      A
 Frequencies --    794.6423               818.4789               823.6514
 Red. masses --      2.3780                 3.3991                 2.6237
 Frc consts  --      0.8847                 1.3416                 1.0487
 IR Inten    --      6.1431                 1.9041                15.4982

                     40                     41                     42
                      A                      A                      A
 Frequencies --    852.3024               866.1460               885.9711
 Red. masses --      3.3047                 1.5334                 1.4726
 Frc consts  --      1.4144                 0.6778                 0.6810
 IR Inten    --      2.2395                 0.0801                 6.4607

                     43                     44                     45
                      A                      A                      A
 Frequencies --    899.5868               918.2485               925.0321
 Red. masses --      1.6135                 3.5387                 2.3179
 Frc consts  --      0.7693                 1.7580                 1.1686
 IR Inten    --     12.6903                51.7499                10.2937

                     46                     47                     48
                      A                      A                      A
 Frequencies --    940.4085               973.5459               979.8076
 Red. masses --      6.0171                 1.7901                 1.3313
 Frc consts  --      3.1352                 0.9997                 0.7530
 IR Inten    --      6.5759                 0.1527                 0.8597

                     49                     50                     51
                      A                      A                      A
 Frequencies --    981.9299               984.5373              1001.2137
 Red. masses --      1.2728                 1.3322                 2.4268
 Frc consts  --      0.7231                 0.7608                 1.4333
 IR Inten    --      0.4208                 3.1026                17.4658

                     52                     53                     54
                      A                      A                      A
 Frequencies --   1035.0503              1038.9931              1054.7368
 Red. masses --      2.1142                 2.0104                 1.8636
 Frc consts  --      1.3345                 1.2787                 1.2215
 IR Inten    --     28.0160                10.7706                 7.1194

                     55                     56                     57
                      A                      A                      A
 Frequencies --   1093.7673              1108.1519              1119.1092
 Red. masses --      1.8573                 2.2855                 2.1594
 Frc consts  --      1.3091                 1.6536                 1.5934
 IR Inten    --      0.7896                10.3554                25.8959

                     58                     59                     60
                      A                      A                      A
 Frequencies --   1134.3057              1147.0927              1153.3164
 Red. masses --      2.0889                 1.4525                 2.2331
 Frc consts  --      1.5835                 1.1261                 1.7501
 IR Inten    --     16.8827                38.3067                56.3165

                     61                     62                     63
                      A                      A                      A
 Frequencies --   1172.8691              1196.3736              1200.1485
 Red. masses --      2.0876                 1.3001                 2.0358
 Frc consts  --      1.6920                 1.0964                 1.7276
 IR Inten    --      5.4543                 3.8341                 6.3139

                     64                     65                     66
                      A                      A                      A
 Frequencies --   1221.9111              1228.6138              1244.6857
 Red. masses --      2.3191                 1.7659                 1.8068
 Frc consts  --      2.0401                 1.5706                 1.6493
 IR Inten    --     36.9576                 5.3211                90.3522

                     67                     68                     69
                      A                      A                      A
 Frequencies --   1255.4281              1268.1569              1292.3657
 Red. masses --      1.6852                 1.7479                 1.3667
 Frc consts  --      1.5649                 1.6562                 1.3449
 IR Inten    --     95.2975                47.8220                 7.0639

                     70                     71                     72
                      A                      A                      A
 Frequencies --   1302.2720              1326.5062              1341.2601
 Red. masses --      1.1896                 1.9971                 2.3175
 Frc consts  --      1.1887                 2.0704                 2.4564
 IR Inten    --     18.1589                38.1831                30.8071

                     73                     74                     75
                      A                      A                      A
 Frequencies --   1350.8332              1358.0839              1362.8610
 Red. masses --      1.3539                10.2884                 1.4057
 Frc consts  --      1.4556                11.1803                 1.5384
 IR Inten    --      0.6889                17.1586                 6.2887

                     76                     77                     78
                      A                      A                      A
 Frequencies --   1371.3913              1380.4213              1393.8367
 Red. masses --      3.3461                 1.5123                 1.4516
 Frc consts  --      3.7078                 1.6978                 1.6615
 IR Inten    --      2.0417                 1.3263                 2.1528

                     79                     80                     81
                      A                      A                      A
 Frequencies --   1415.6127              1421.0065              1466.1594
 Red. masses --      1.6024                 2.5736                 2.8056
 Frc consts  --      1.8920                 3.0619                 3.5533
 IR Inten    --     48.8660               303.6342               123.4093

                     82                     83                     84
                      A                      A                      A
 Frequencies --   1475.1987              1484.3858              1494.8341
 Red. masses --      3.2176                 1.0917                 1.2685
 Frc consts  --      4.1256                 1.4172                 1.6701
 IR Inten    --     42.5154                 1.8114                46.1391

                     85                     86                     87
                      A                      A                      A
 Frequencies --   1499.1009              1503.9282              1515.4067
 Red. masses --      1.8934                 1.2104                 1.0820
 Frc consts  --      2.5071                 1.6130                 1.4640
 IR Inten    --     53.9134                14.5073                 1.5769

                     88                     89                     90
                      A                      A                      A
 Frequencies --   1522.6145              1527.8299              1530.8055
 Red. masses --      2.3613                 1.4843                 7.3299
 Frc consts  --      3.2254                 2.0414                10.1202
 IR Inten    --    444.6189               137.6748                 2.0636

                     91                     92                     93
                      A                      A                      A
 Frequencies --   1555.1397              1612.5656              1619.9948
 Red. masses --      5.5908                 8.5430                 5.7835
 Frc consts  --      7.9665                13.0886                 8.9426
 IR Inten    --     91.7522                 7.4507               128.6872

                     94                     95                     96
                      A                      A                      A
 Frequencies --   1634.3570              2909.8910              2954.4496
 Red. masses --      6.6384                 1.0751                 1.0710
 Frc consts  --     10.4475                 5.3634                 5.5081
 IR Inten    --    112.5720                86.2433                73.6583

                     97                     98                     99
                      A                      A                      A
 Frequencies --   3001.4903              3010.3521              3017.8860
 Red. masses --      1.0880                 1.0603                 1.0737
 Frc consts  --      5.7749                 5.6614                 5.7616
 IR Inten    --     30.3450                23.8938                53.3981

                    100                    101                    102
                      A                      A                      A
 Frequencies --   3019.0987              3042.7217              3052.9010
 Red. masses --      1.0623                 1.0924                 1.1015
 Frc consts  --      5.7048                 5.9587                 6.0486
 IR Inten    --     68.3188                74.2401                68.0239

                    103                    104                    105
                      A                      A                      A
 Frequencies --   3063.8701              3107.1499              3131.6512
 Red. masses --      1.1035                 1.0869                 1.0845
 Frc consts  --      6.1030                 6.1825                 6.2666
 IR Inten    --     93.0888                12.0166                18.7808

                    106                    107                    108
                      A                      A                      A
 Frequencies --   3151.0305              3166.2203              3180.0631
 Red. masses --      1.0910                 1.0854                 1.0914
 Frc consts  --      6.3822                 6.4111                 6.5026
 IR Inten    --     56.7003                 7.9592                12.8671

                    109                    110                    111
                      A                      A                      A
 Frequencies --   3182.7751              3184.5014              3205.9811
 Red. masses --      1.0928                 1.0934                 1.0880
 Frc consts  --      6.5221                 6.5328                 6.5885
 IR Inten    --     44.2950                20.9339                17.2341

 - Thermochemistry -
 -------------------
 Temperature   298.150 Kelvin.  Pressure   1.00000 Atm.
 Atom     1 has atomic number  8 and mass  15.99491

 Molecular mass:   291.12593 amu.
 Principal axes and moments of inertia in atomic units:
                           1         2         3
     Eigenvalues --  2276.98584********************
           X            0.99902   0.01442  -0.04186
           Y           -0.02055   0.98849  -0.14988
           Z            0.03922   0.15059   0.98782
 This molecule is an asymmetric top.
 Rotational symmetry number  1.
 Warning -- assumption of classical behavior for rotation
           may cause significant error
 Rotational temperatures (Kelvin)      0.03804     0.00650     0.00566
 Rotational constants (GHZ):           0.79260     0.13537     0.11787
 Zero-point vibrational energy     825999.4 (Joules/Mol)
                                  197.41860 (Kcal/Mol)
 Warning -- explicit consideration of  26 degrees of freedom as
           vibrations may cause significant error
 Vibrational temperatures:     22.31    41.46    69.25   101.02   130.90
          (Kelvin)            176.16   207.79   232.00   291.45   312.18
                              331.32   354.72   414.55   426.58   494.13
                              544.61   585.16   601.03   618.42   643.38
                              660.08   680.68   697.54   712.11   768.47
                              806.02   902.99   925.11   952.32   976.55
                             1009.33  1017.20  1046.10  1057.18  1117.52
                             1132.20  1143.31  1177.61  1185.05  1226.27
                             1246.19  1274.71  1294.30  1321.15  1330.91
                             1353.04  1400.72  1409.72  1412.78  1416.53
                             1440.52  1489.21  1494.88  1517.53  1573.69
                             1594.38  1610.15  1632.01  1650.41  1659.37
                             1687.50  1721.31  1726.75  1758.06  1767.70
                             1790.83  1806.28  1824.59  1859.43  1873.68
                             1908.55  1929.77  1943.55  1953.98  1960.85
                             1973.13  1986.12  2005.42  2036.75  2044.51
                             2109.48  2122.48  2135.70  2150.73  2156.87
                             2163.82  2180.33  2190.70  2198.21  2202.49
                             2237.50  2320.12  2330.81  2351.48  4186.68
                             4250.79  4318.48  4331.23  4342.06  4343.81
                             4377.80  4392.44  4408.23  4470.50  4505.75
                             4533.63  4555.48  4575.40  4579.30  4581.79
                             4612.69

 Zero-point correction=                           0.314607 (Hartree/Particle)
 Thermal correction to Energy=                    0.332179
 Thermal correction to Enthalpy=                  0.333123
 Thermal correction to Gibbs Free Energy=         0.266779
 Sum of electronic and zero-point Energies=           -939.464471
 Sum of electronic and thermal Energies=              -939.446899
 Sum of electronic and thermal Enthalpies=            -939.445955
 Sum of electronic and thermal Free Energies=         -939.512299

                     E (Thermal)             CV                S
                      KCal/Mol        Cal/Mol-Kelvin    Cal/Mol-Kelvin
 Total                  208.445             70.538            139.632
 Electronic               0.000              0.000              1.377
 Translational            0.889              2.981             42.903
 Rotational               0.889              2.981             34.496
 Vibrational            206.668             64.576             60.856
 Vibration     1          0.593              1.986              7.139
 Vibration     2          0.593              1.984              5.909
 Vibration     3          0.595              1.978              4.893
 Vibration     4          0.598              1.968              4.147
 Vibration     5          0.602              1.956              3.639
 Vibration     6          0.610              1.930              3.062
 Vibration     7          0.616              1.909              2.744
 Vibration     8          0.622              1.890              2.535
 Vibration     9          0.639              1.836              2.110
 Vibration    10          0.646              1.815              1.984
 Vibration    11          0.652              1.795              1.877
 Vibration    12          0.661              1.768              1.755
 Vibration    13          0.685              1.696              1.485
 Vibration    14          0.690              1.680              1.437
 Vibration    15          0.722              1.589              1.196
 Vibration    16          0.749              1.516              1.045
 Vibration    17          0.771              1.456              0.938
 Vibration    18          0.781              1.432              0.900
 Vibration    19          0.791              1.405              0.859
 Vibration    20          0.806              1.367              0.804
 Vibration    21          0.817              1.341              0.770
 Vibration    22          0.830              1.310              0.729
 Vibration    23          0.841              1.284              0.697
 Vibration    24          0.851              1.261              0.671
 Vibration    25          0.889              1.175              0.578
 Vibration    26          0.916              1.117              0.523

 Optimization completed.
    -- Stationary point found.
 Normal termination of Gaussian 16 at Sun Jan  7 10:13:46 2024.
