 Q-Chem 5.4, Q-Chem, Inc., Pleasanton, CA (2021)
 Q-Chem 5.4.0 for Intel X86 EM64T Linux

User input:
--------------------------------------------------------------
$molecule
-1 2
O                  3.3906070000      2.7157570000      0.9626380000
C                  3.0429620000      1.5390320000      0.6935460000
C                  4.0212410000      0.4664940000      0.4916640000
C                  5.3977110000      0.7587410000      0.6031560000
C                  6.3562300000     -0.2184510000      0.4200320000
C                  5.9612490000     -1.5404660000      0.1145670000
C                  4.6212800000     -1.8508950000      0.0003800000
C                  3.6213060000     -0.8683070000      0.1832800000
C                  2.2152260000     -1.2474440000      0.0535750000
O                  1.8623980000     -2.4262350000     -0.2177590000
C                  1.2391150000     -0.1764350000      0.2584210000
C                 -0.1352650000     -0.4799900000      0.1346450000
C                 -1.1202970000      0.4803820000      0.3224330000
C                 -0.7080610000      1.8103690000      0.6239860000
C                  0.6287360000      2.1226630000      0.7357210000
C                  1.6387200000      1.1538970000      0.5614140000
N                 -2.5063310000      0.1918420000      0.2487170000
C                 -2.9237890000     -1.1913470000      0.0633520000
C                 -4.3480690000     -1.4168420000      0.6087140000
C                 -5.2754440000     -0.2083310000      0.3440700000
C                 -4.7215590000      0.6323560000     -0.8071140000
C                 -3.3392980000      1.1907490000     -0.4432310000
H                  5.6699110000      1.7815530000      0.8381070000
H                  7.4105330000      0.0265100000      0.5100590000
H                  6.7131570000     -2.3110650000     -0.0299590000
H                  4.2912820000     -2.8568210000     -0.2328160000
H                 -0.3662280000     -1.5039680000     -0.1252290000
H                 -1.4494340000      2.5831510000      0.7891570000
H                  0.9430530000      3.1329810000      0.9727270000
H                 -2.8632910000     -1.5030770000     -0.9945880000
H                 -2.2320340000     -1.8321890000      0.6075160000
H                 -4.2963410000     -1.6132500000      1.6834920000
H                 -4.7551280000     -2.3205660000      0.1408550000
H                 -6.2956310000     -0.5423960000      0.1288260000
H                 -5.3337830000      0.4196720000      1.2398290000
H                 -4.6572140000      0.0187420000     -1.7127220000
H                 -5.3868180000      1.4687790000     -1.0446050000
H                 -3.4787010000      2.0580690000      0.2124910000
H                 -2.8319970000      1.5563340000     -1.3494580000
$end
$rem
MAX_SCF_CYCLES=200
BASIS  =  6-311++G(d,p)
GUI  =  2
JOB_TYPE  =  SP
METHOD  =  B3LYP
SOLVENT_METHOD = PCM
$end
$pcm
theory = CPCM
$end
$solvent
dielectric 37.219
opticaldielectric 1.43
$end

--------------------------------------------------------------

             Standard Nuclear Orientation (Angstroms)
    I     Atom           X                Y                Z
 ----------------------------------------------------------------
    1      O       3.3906070000     2.7157570000     0.9626380000
    2      C       3.0429620000     1.5390320000     0.6935460000
    3      C       4.0212410000     0.4664940000     0.4916640000
    4      C       5.3977110000     0.7587410000     0.6031560000
    5      C       6.3562300000    -0.2184510000     0.4200320000
    6      C       5.9612490000    -1.5404660000     0.1145670000
    7      C       4.6212800000    -1.8508950000     0.0003800000
    8      C       3.6213060000    -0.8683070000     0.1832800000
    9      C       2.2152260000    -1.2474440000     0.0535750000
   10      O       1.8623980000    -2.4262350000    -0.2177590000
   11      C       1.2391150000    -0.1764350000     0.2584210000
   12      C      -0.1352650000    -0.4799900000     0.1346450000
   13      C      -1.1202970000     0.4803820000     0.3224330000
   14      C      -0.7080610000     1.8103690000     0.6239860000
   15      C       0.6287360000     2.1226630000     0.7357210000
   16      C       1.6387200000     1.1538970000     0.5614140000
   17      N      -2.5063310000     0.1918420000     0.2487170000
   18      C      -2.9237890000    -1.1913470000     0.0633520000
   19      C      -4.3480690000    -1.4168420000     0.6087140000
   20      C      -5.2754440000    -0.2083310000     0.3440700000
   21      C      -4.7215590000     0.6323560000    -0.8071140000
   22      C      -3.3392980000     1.1907490000    -0.4432310000
   23      H       5.6699110000     1.7815530000     0.8381070000
   24      H       7.4105330000     0.0265100000     0.5100590000
   25      H       6.7131570000    -2.3110650000    -0.0299590000
   26      H       4.2912820000    -2.8568210000    -0.2328160000
   27      H      -0.3662280000    -1.5039680000    -0.1252290000
   28      H      -1.4494340000     2.5831510000     0.7891570000
   29      H       0.9430530000     3.1329810000     0.9727270000
   30      H      -2.8632910000    -1.5030770000    -0.9945880000
   31      H      -2.2320340000    -1.8321890000     0.6075160000
   32      H      -4.2963410000    -1.6132500000     1.6834920000
   33      H      -4.7551280000    -2.3205660000     0.1408550000
   34      H      -6.2956310000    -0.5423960000     0.1288260000
   35      H      -5.3337830000     0.4196720000     1.2398290000
   36      H      -4.6572140000     0.0187420000    -1.7127220000
   37      H      -5.3868180000     1.4687790000    -1.0446050000
   38      H      -3.4787010000     2.0580690000     0.2124910000
   39      H      -2.8319970000     1.5563340000    -1.3494580000
 ----------------------------------------------------------------

    8    -939.8637033186      6.77e-06  Convergence criterion met
 Total energy in the final basis set =     -939.8637033186

                    Orbital Energies (a.u.)
 --------------------------------------------------------------

 Alpha MOs
 -- Occupied --
-19.0746 -19.0737 -14.3199 -10.2240 -10.2201 -10.2097 -10.1926 -10.1896
-10.1706 -10.1704 -10.1701 -10.1697 -10.1693 -10.1688 -10.1677 -10.1672
-10.1668 -10.1640 -10.1626 -10.1601 -10.1595 -10.1592  -1.0020  -0.9985
 -0.9407  -0.8573  -0.8457  -0.7981  -0.7734  -0.7553  -0.7486  -0.7423
 -0.7300  -0.6674  -0.6550  -0.6343  -0.6223  -0.6034  -0.5825  -0.5544
 -0.5452  -0.5284  -0.5218  -0.4932  -0.4891  -0.4706  -0.4650  -0.4539
 -0.4394  -0.4312  -0.4219  -0.4213  -0.4201  -0.4145  -0.4125  -0.4084
 -0.4028  -0.3944  -0.3816  -0.3793  -0.3762  -0.3631  -0.3583  -0.3494
 -0.3457  -0.3420  -0.3320  -0.3260  -0.3148  -0.3129  -0.2749  -0.2609
 -0.2557  -0.2502  -0.2462  -0.2364  -0.2023  -0.1383

 Beta MOs
 -- Occupied --
-19.0701 -19.0684 -14.3196 -10.2222 -10.2178 -10.2094 -10.1926 -10.1896
-10.1699 -10.1698 -10.1696 -10.1688 -10.1687 -10.1686 -10.1678 -10.1670
-10.1666 -10.1636 -10.1626 -10.1601 -10.1595 -10.1587  -0.9937  -0.9888
 -0.9402  -0.8547  -0.8447  -0.7970  -0.7705  -0.7547  -0.7462  -0.7408
 -0.7285  -0.6623  -0.6524  -0.6329  -0.6212  -0.6014  -0.5818  -0.5521
 -0.5440  -0.5270  -0.5208  -0.4920  -0.4882  -0.4692  -0.4629  -0.4527
 -0.4389  -0.4306  -0.4211  -0.4197  -0.4151  -0.4094  -0.4080  -0.4051
 -0.4009  -0.3933  -0.3801  -0.3755  -0.3611  -0.3580  -0.3565  -0.3483
 -0.3437  -0.3375  -0.3305  -0.3206  -0.3145  -0.3128  -0.2674  -0.2512
 -0.2447  -0.2431  -0.2417  -0.2318  -0.1974

          Ground-State Mulliken Net Atomic Charges

     Atom                 Charge (a.u.)    Spin (a.u.)
  --------------------------------------------------------
      1 O                    -0.486249       0.173387
      2 C                    -0.666580       0.096170
      3 C                     0.074679       0.049531
      4 C                     0.071891       0.016002
      5 C                    -0.478931       0.058463
      6 C                    -0.491369       0.026413
      7 C                     0.017650       0.042770
      8 C                     0.417638       0.026198
      9 C                    -0.660166       0.138118
     10 O                    -0.493470       0.207094
     11 C                     0.434024       0.043527
     12 C                    -0.017246       0.056858
     13 C                    -0.319277       0.017028
     14 C                    -0.114448       0.027605
     15 C                     0.073204       0.021868
     16 C                     0.045895       0.002622
     17 N                     0.260579       0.011720
     18 C                    -0.210959      -0.002932
     19 C                    -0.420069       0.002417
     20 C                    -0.319522      -0.000815
     21 C                    -0.551048      -0.000572
     22 C                    -0.111914      -0.000605
     23 H                     0.168452      -0.000640
     24 H                     0.194805      -0.004288
     25 H                     0.196599      -0.002638
     26 H                     0.166439      -0.002500
     27 H                     0.149379      -0.002874
     28 H                     0.214410      -0.002112
     29 H                     0.183823      -0.001255
     30 H                     0.180407       0.001712
     31 H                     0.168763       0.000477
     32 H                     0.163479       0.000141
     33 H                     0.152368      -0.000071
     34 H                     0.186672       0.000002
     35 H                     0.148491      -0.000082
     36 H                     0.154490      -0.000057
     37 H                     0.187250      -0.000004
     38 H                     0.161534       0.000374
     39 H                     0.168317       0.000950
  --------------------------------------------------------
  Sum of atomic charges =    -1.000007

                    Cartesian Multipole Moments
 -----------------------------------------------------------------
    Charge (ESU x 10^10)
                -4.8032
    Dipole Moment (Debye)
         X     -15.5432      Y      -0.7630      Z      -2.6237
       Tot      15.7815
    Quadrupole Moments (Debye-Ang)
        XX    -157.8253     XY     -12.4782     YY    -161.9037
        XZ      -4.4809     YZ      -6.8190     ZZ    -140.0979

 Total job time:  180.57s(wall), 815.18s(cpu)
        *  Thank you very much for using Q-Chem.  Have a nice day.  *
