 Gaussian 16, Revision A.03,
 Gaussian 16:  ES64L-G16RevA.03 25-Dec-2016

 ----------------------------------------------------------------
 #P UB3LYP/6-311++G(d,p) SCRF=(PCM,Solvent=n,n-DiMethylFormamide)
 ----------------------------------------------------------------

 ------------------
 Radical PCM in DMF
 ------------------
 Symbolic Z-matrix:
 Charge = -1 Multiplicity = 2

                         Standard orientation:
 ---------------------------------------------------------------------
 Center     Atomic      Atomic             Coordinates (Angstroms)
 Number     Number       Type             X           Y           Z
 ---------------------------------------------------------------------
      1          8           0       -2.695039    2.778069   -0.202716
      2          6           0       -2.361260    1.569863   -0.120376
      3          6           0       -3.352603    0.493855   -0.033374
      4          6           0       -4.726111    0.819254   -0.043348
      5          6           0       -5.696497   -0.159998    0.037964
      6          6           0       -5.316973   -1.517900    0.133397
      7          6           0       -3.980197   -1.861144    0.144970
      8          6           0       -2.968277   -0.877191    0.062899
      9          6           0       -1.566253   -1.291624    0.077148
     10          8           0       -1.227249   -2.502273    0.161189
     11          6           0       -0.577225   -0.216669   -0.012912
     12          6           0        0.794451   -0.554999    0.007672
     13          6           0        1.790792    0.407897   -0.081789
     14          6           0        1.394350    1.773374   -0.171479
     15          6           0        0.060878    2.118063   -0.180494
     16          6           0       -0.961099    1.149173   -0.104511
     17          7           0        3.172427    0.091478   -0.109039
     18          6           0        3.568367   -1.309944   -0.142089
     19          6           0        4.964870   -1.475185   -0.774003
     20          6           0        5.926726   -0.331237   -0.378054
     21          6           0        5.436519    0.342499    0.904344
     22          6           0        4.052660    0.967744    0.683293
     23          1           0       -4.986331    1.869143   -0.117232
     24          1           0       -6.748281    0.110800    0.028779
     25          1           0       -6.078239   -2.290199    0.197466
     26          1           0       -3.661959   -2.894918    0.217096
     27          1           0        1.014443   -1.609035    0.107776
     28          1           0        2.144315    2.550967   -0.255201
     29          1           0       -0.241755    3.156503   -0.256421
     30          1           0        3.543615   -1.770196    0.861718
     31          1           0        2.842457   -1.855332   -0.742859
     32          1           0        4.866377   -1.513621   -1.862682
     33          1           0        5.371534   -2.442839   -0.458445
     34          1           0        6.947577   -0.707772   -0.256416
     35          1           0        5.962287    0.418564   -1.175995
     36          1           0        5.395646   -0.394399    1.714344
     37          1           0        6.127781    1.126052    1.231109
     38          1           0        4.183683    1.918495    0.153620
     39          1           0        3.589461    1.206080    1.653291
 ---------------------------------------------------------------------

 SCF Done:  E(UB3LYP) =  -939.858542644     A.U. after   18 cycles

 The electronic state is 2-A.
 Alpha  occ. eigenvalues --  -19.07252 -19.07141 -14.32158 -10.22162 -10.21765
 Alpha  occ. eigenvalues --  -10.20998 -10.19660 -10.19348 -10.17077 -10.16995
 Alpha  occ. eigenvalues --  -10.16973 -10.16953 -10.16894 -10.16878 -10.16776
 Alpha  occ. eigenvalues --  -10.16760 -10.16719 -10.16696 -10.16405 -10.16365
 Alpha  occ. eigenvalues --  -10.16315 -10.15925  -0.99953  -0.99596  -0.94263
 Alpha  occ. eigenvalues --   -0.85681  -0.84577  -0.80036  -0.77388  -0.75814
 Alpha  occ. eigenvalues --   -0.74829  -0.74277  -0.73034  -0.66748  -0.65637
 Alpha  occ. eigenvalues --   -0.63639  -0.62356  -0.60416  -0.58291  -0.55401
 Alpha  occ. eigenvalues --   -0.54702  -0.52881  -0.52425  -0.49527  -0.49098
 Alpha  occ. eigenvalues --   -0.47092  -0.46509  -0.45434  -0.44150  -0.43271
 Alpha  occ. eigenvalues --   -0.42250  -0.42114  -0.42014  -0.41562  -0.41085
 Alpha  occ. eigenvalues --   -0.41019  -0.40301  -0.39546  -0.38229  -0.37923
 Alpha  occ. eigenvalues --   -0.37680  -0.36439  -0.36182  -0.34949  -0.34643
 Alpha  occ. eigenvalues --   -0.34264  -0.33202  -0.32793  -0.31806  -0.31668
 Alpha  occ. eigenvalues --   -0.27505  -0.26030  -0.25507  -0.24971  -0.24344
 Alpha  occ. eigenvalues --   -0.23393  -0.20309  -0.13684
 Alpha virt. eigenvalues --   -0.04924  -0.01611  -0.00670  -0.00005   0.00110
 Alpha virt. eigenvalues --    0.00868   0.01196   0.01394   0.01783   0.02717
 Alpha virt. eigenvalues --    0.03027   0.03548   0.03857   0.04070   0.04592

  Beta  occ. eigenvalues --  -19.06762 -19.06567 -14.32140 -10.22002 -10.21549
  Beta  occ. eigenvalues --  -10.20965 -10.19659 -10.19348 -10.17039 -10.16928
  Beta  occ. eigenvalues --  -10.16900 -10.16880 -10.16879 -10.16814 -10.16767
  Beta  occ. eigenvalues --  -10.16734 -10.16702 -10.16696 -10.16405 -10.16365
  Beta  occ. eigenvalues --  -10.16274 -10.15880  -0.99076  -0.98579  -0.94218
  Beta  occ. eigenvalues --   -0.85419  -0.84476  -0.79939  -0.77088  -0.75771
  Beta  occ. eigenvalues --   -0.74590  -0.74122  -0.72891  -0.66308  -0.65336
  Beta  occ. eigenvalues --   -0.63491  -0.62243  -0.60215  -0.58232  -0.55178
  Beta  occ. eigenvalues --   -0.54596  -0.52769  -0.52303  -0.49468  -0.48963
  Beta  occ. eigenvalues --   -0.46990  -0.46269  -0.45305  -0.44104  -0.43211
  Beta  occ. eigenvalues --   -0.42185  -0.42036  -0.41710  -0.41111  -0.40564
  Beta  occ. eigenvalues --   -0.40471  -0.40100  -0.39381  -0.38064  -0.37848
  Beta  occ. eigenvalues --   -0.36326  -0.36051  -0.35381  -0.34849  -0.34428
  Beta  occ. eigenvalues --   -0.33906  -0.33053  -0.32145  -0.31767  -0.31656
  Beta  occ. eigenvalues --   -0.26781  -0.25069  -0.24312  -0.24238  -0.23857
  Beta  occ. eigenvalues --   -0.22897  -0.19816
  Beta virt. eigenvalues --   -0.07863  -0.04011  -0.00846  -0.00476   0.00050
  Beta virt. eigenvalues --    0.00316   0.00889   0.01204   0.01404   0.01787
  Beta virt. eigenvalues --    0.02727   0.03032   0.03556   0.03886   0.04146

 Mulliken charges and spin densities:
               1          2
     1  O   -0.463508   0.181503
     2  C   -0.724357   0.087050
     3  C    0.091993   0.053039
     4  C    0.085231   0.014168
     5  C   -0.462247   0.058978
     6  C   -0.478207   0.025946
     7  C    0.021460   0.041507
     8  C    0.427430   0.028797
     9  C   -0.696127   0.127657
    10  O   -0.470210   0.215494
    11  C    0.434174   0.046114
    12  C   -0.009074   0.053268
    13  C   -0.334625   0.016216
    14  C   -0.095674   0.029035
    15  C    0.081525   0.019693
    16  C    0.073271   0.006362
    17  N    0.275739   0.010435
    18  C   -0.203654  -0.002916
    19  C   -0.405541   0.002363
    20  C   -0.314220  -0.000835
    21  C   -0.537453  -0.000724
    22  C   -0.102223  -0.000647
    23  H    0.162018  -0.000458
    24  H    0.178349  -0.004369
    25  H    0.180090  -0.002565
    26  H    0.160090  -0.002499
    27  H    0.145447  -0.002698
    28  H    0.190901  -0.002163
    29  H    0.178807  -0.001153
    30  H    0.173106   0.001670
    31  H    0.158627   0.000542
    32  H    0.159958   0.000145
    33  H    0.146621  -0.000062
    34  H    0.182249   0.000009
    35  H    0.143887  -0.000092
    36  H    0.149157  -0.000052
    37  H    0.181544   0.000001
    38  H    0.152765   0.000324
    39  H    0.162685   0.000915
 Sum of Mulliken charges =  -1.00000   1.00000

 Dipole moment (field-independent basis, Debye):
    X=             12.2642    Y=             -0.8732    Z=              0.7279  Tot=             12.3168
 Quadrupole moment (field-independent basis, Debye-Ang):
   XX=           -141.4576   YY=           -163.4363   ZZ=           -137.9228
   XY=             10.1829   XZ=              1.9494   YZ=              2.5131

 Normal termination of Gaussian 16 at Tue Jan 16 06:02:25 2024.
