 Q-Chem 5.4, Q-Chem, Inc., Pleasanton, CA (2021)
 Q-Chem 5.4.0 for Intel X86 EM64T Linux

User input:
--------------------------------------------------------------
$molecule
-1 2
O                  1.6719590000      2.4302580000      0.3914840000
C                  1.4049020000      1.2187630000      0.2031000000
C                  0.0186510000      0.7072620000      0.2067150000
C                 -1.0396590000      1.6075910000      0.4285670000
C                 -2.3570450000      1.1802900000      0.4420520000
C                 -2.6583750000     -0.1802580000      0.2308180000
C                 -1.6366780000     -1.0863630000      0.0103080000
C                 -0.2898610000     -0.6703100000     -0.0069620000
C                  0.7770970000     -1.6266570000     -0.2388910000
O                  0.6264930000     -2.8758510000     -0.4411930000
C                  2.1069530000     -1.0978560000     -0.2358070000
O                  3.1073990000     -2.0147850000     -0.4565920000
C                  2.4259220000      0.2242180000     -0.0321730000
O                  3.7390010000      0.6258730000     -0.0494860000
H                 -0.7819300000      2.6484970000      0.5883570000
H                 -3.1580380000      1.8929790000      0.6152920000
H                 -3.6912670000     -0.5159790000      0.2412810000
H                 -1.8410210000     -2.1384080000     -0.1549610000
H                  2.5988430000     -2.8472260000     -0.5646760000
H                  4.2635740000     -0.1670930000     -0.2180970000
$end
$rem
MAX_SCF_CYCLES=200
BASIS  =  6-311++G(d,p)
GUI  =  2
JOB_TYPE  =  SP
METHOD  =  B3LYP
SOLVENT_METHOD = COSMO
$end
$solvent
dielectric 37.219
opticaldielectric 1.43
$end

--------------------------------------------------------------

             Standard Nuclear Orientation (Angstroms)
    I     Atom           X                Y                Z
 ----------------------------------------------------------------
    1      O      -0.4046859796    -2.7675513498     0.0000030109
    2      C      -0.4263394445    -1.5129361836    -0.0001385770
    3      C       0.8096151356    -0.7031495147    -0.0000825505
    4      C       2.0544331407    -1.3590906769    -0.0000663164
    5      C       3.2427163995    -0.6475734636     0.0000556972
    6      C       3.2198071350     0.7616765470     0.0001278632
    7      C       2.0094307871     1.4313815424     0.0000479263
    8      C       0.7897524417     0.7244875541    -0.0000314738
    9      C      -0.4765944606     1.4338221309    -0.0000516591
   10      O      -0.6208934862     2.7000255507    -0.0001200640
   11      C      -1.6533662679     0.6193498464    -0.0000238063
   12      O      -2.8454741519     1.3043869185     0.0000701893
   13      C      -1.6566733823    -0.7558144177    -0.0000161823
   14      O      -2.8467065034    -1.4411056666     0.0001024715
   15      H       2.0453700900    -2.4432309970    -0.0001653068
   16      H       4.1921688352    -1.1748945854     0.0000892603
   17      H       4.1513147276     1.3202260453     0.0002318577
   18      H       1.9636885773     2.5147910847     0.0000413641
   19      H      -2.5425324034     2.2379262415     0.0001342312
   20      H      -3.5446177637    -0.7737815975     0.0002982044
 ----------------------------------------------------------------

    9    -685.8395049463      7.71e-06  Convergence criterion met
 Total energy in the final basis set =     -685.8395049463
    5    -685.9274555446      5.22e-06  Convergence criterion met
 Total energy in the final basis set =     -685.9274555446

                    Orbital Energies (a.u.)
 --------------------------------------------------------------

 Alpha MOs
 -- Occupied --
-19.1556 -19.1532 -19.0907 -19.0852 -10.2328 -10.2294 -10.2272 -10.2238
-10.1786 -10.1781 -10.1730 -10.1725 -10.1722 -10.1711  -1.0793  -1.0553
 -1.0091  -1.0016  -0.8617  -0.8045  -0.7542  -0.7372  -0.6852  -0.6291
 -0.6205  -0.5799  -0.5581  -0.5266  -0.5144  -0.4776  -0.4649  -0.4506
 -0.4370  -0.4280  -0.4234  -0.4218  -0.4011  -0.3964  -0.3889  -0.3786
 -0.3563  -0.3547  -0.3476  -0.3410  -0.2708  -0.2660  -0.2609  -0.2528
 -0.2235  -0.1566

 Beta MOs
 -- Occupied --
-19.1551 -19.1529 -19.0850 -19.0793 -10.2310 -10.2268 -10.2261 -10.2234
-10.1782 -10.1773 -10.1726 -10.1721 -10.1717 -10.1711  -1.0780  -1.0536
 -0.9989  -0.9921  -0.8593  -0.8001  -0.7517  -0.7355  -0.6762  -0.6269
 -0.6181  -0.5776  -0.5562  -0.5249  -0.5122  -0.4753  -0.4629  -0.4401
 -0.4358  -0.4262  -0.4191  -0.4185  -0.3950  -0.3845  -0.3823  -0.3768
 -0.3549  -0.3409  -0.3399  -0.3328  -0.2608  -0.2533  -0.2521  -0.2472
 -0.2150

          Ground-State Mulliken Net Atomic Charges

     Atom                 Charge (a.u.)    Spin (a.u.)
  --------------------------------------------------------
      1 O                    -0.516026       0.216013
      2 C                    -0.526446       0.095982
      3 C                     0.427521       0.039679
      4 C                     0.186373       0.025896
      5 C                    -0.470895       0.052574
      6 C                    -0.374463       0.019751
      7 C                     0.080376       0.053462
      8 C                     0.405651       0.023448
      9 C                    -0.634910       0.129809
     10 O                    -0.554963       0.204923
     11 C                     0.086094       0.041175
     12 O                    -0.355588       0.008922
     13 C                     0.176826       0.089085
     14 O                    -0.339807       0.012864
     15 H                     0.174662      -0.001376
     16 H                     0.203577      -0.003943
     17 H                     0.208995      -0.001914
     18 H                     0.177542      -0.002829
     19 H                     0.318726      -0.002851
     20 H                     0.326756      -0.000670
  --------------------------------------------------------
  Sum of atomic charges =    -1.000000

                    Cartesian Multipole Moments
 -----------------------------------------------------------------
    Charge (ESU x 10^10)
                -4.8032
    Dipole Moment (Debye)
         X       3.4283      Y       2.9053      Z       0.0003
       Tot       4.4938
    Quadrupole Moments (Debye-Ang)
        XX     -81.4413     XY      -4.9348     YY    -120.1809
        XZ      -0.0025     YZ       0.0029     ZZ     -85.7043

 Total job time:  45.73s(wall), 335.05s(cpu)
        *  Thank you very much for using Q-Chem.  Have a nice day.  *
