 Q-Chem 5.4, Q-Chem, Inc., Pleasanton, CA (2021)
 Q-Chem 5.4.0 for Intel X86 EM64T Linux

User input:
--------------------------------------------------------------
$molecule
0 1
C                 -4.3881690000     -0.4533180000     -0.1694230000
C                 -2.9049950000     -0.7072710000     -0.1351970000
C                 -2.4040560000     -1.9758120000     -0.3095350000
C                 -1.0300100000     -2.2550360000     -0.2709960000
Cl                -0.6240120000     -3.9417010000     -0.5213490000
C                 -0.1048120000     -1.2324890000     -0.0625060000
C                  1.3685070000     -1.5069170000      0.0049500000
O                  1.8253270000     -2.6363750000     -0.0135310000
C                  2.2922460000     -0.3418790000      0.1027490000
C                  3.6729390000     -0.5693480000      0.0768250000
C                  4.5557790000      0.4979680000      0.1729040000
C                  4.0674820000      1.8023360000      0.3037890000
C                  2.6989380000      2.0339210000      0.3369650000
C                  1.8037930000      0.9621890000      0.2334370000
C                  0.3432550000      1.2300640000      0.2725420000
O                 -0.0396670000      2.3958260000      0.4335590000
C                 -0.5935610000      0.1061280000      0.1026130000
C                 -1.9950530000      0.3695620000      0.0801820000
N                 -2.4982080000      1.6166440000      0.2651860000
H                 -4.7448270000     -0.0265990000      0.7751110000
H                 -4.6607060000      0.2445200000     -0.9700920000
H                 -4.9361130000     -1.3798900000     -0.3414110000
H                 -3.0869770000     -2.7995220000     -0.4786090000
H                  4.0262870000     -1.5881690000     -0.0193480000
H                  5.6248200000      0.3193540000      0.1480310000
H                  4.7583440000      2.6343090000      0.3809900000
H                  2.2984650000      3.0339650000      0.4422640000
H                 -1.8419430000      2.3815990000      0.3751140000
H                 -3.4830710000      1.7859400000      0.1678530000
$end

$rem
BASIS  =  6-311++G(d,p)
GUI  =  2
JOB_TYPE  =  SP
METHOD  =  B3LYP
SCF_CONVERGENCE  = 8
SOLVENT_METHOD = sm12
$end

$smx
solvent dimethylformamide
charges CM5
$end

--------------------------------------------------------------

             Standard Nuclear Orientation (Angstroms)
    I     Atom           X                Y                Z
 ----------------------------------------------------------------
    1      C      -4.3881690000    -0.4533180000    -0.1694230000
    2      C      -2.9049950000    -0.7072710000    -0.1351970000
    3      C      -2.4040560000    -1.9758120000    -0.3095350000
    4      C      -1.0300100000    -2.2550360000    -0.2709960000
    5      Cl     -0.6240120000    -3.9417010000    -0.5213490000
    6      C      -0.1048120000    -1.2324890000    -0.0625060000
    7      C       1.3685070000    -1.5069170000     0.0049500000
    8      O       1.8253270000    -2.6363750000    -0.0135310000
    9      C       2.2922460000    -0.3418790000     0.1027490000
   10      C       3.6729390000    -0.5693480000     0.0768250000
   11      C       4.5557790000     0.4979680000     0.1729040000
   12      C       4.0674820000     1.8023360000     0.3037890000
   13      C       2.6989380000     2.0339210000     0.3369650000
   14      C       1.8037930000     0.9621890000     0.2334370000
   15      C       0.3432550000     1.2300640000     0.2725420000
   16      O      -0.0396670000     2.3958260000     0.4335590000
   17      C      -0.5935610000     0.1061280000     0.1026130000
   18      C      -1.9950530000     0.3695620000     0.0801820000
   19      N      -2.4982080000     1.6166440000     0.2651860000
   20      H      -4.7448270000    -0.0265990000     0.7751110000
   21      H      -4.6607060000     0.2445200000    -0.9700920000
   22      H      -4.9361130000    -1.3798900000    -0.3414110000
   23      H      -3.0869770000    -2.7995220000    -0.4786090000
   24      H       4.0262870000    -1.5881690000    -0.0193480000
   25      H       5.6248200000     0.3193540000     0.1480310000
   26      H       4.7583440000     2.6343090000     0.3809900000
   27      H       2.2984650000     3.0339650000     0.4422640000
   28      H      -1.8419430000     2.3815990000     0.3751140000
   29      H      -3.4830710000     1.7859400000     0.1678530000
 ----------------------------------------------------------------

   15   -1243.2731643798      5.83e-09  Convergence criterion met
 Total energy in the final basis set =    -1243.2980374544

                    Orbital Energies (a.u.)
 --------------------------------------------------------------

 Alpha MOs
 -- Occupied --
******** -19.1229 -19.1214 -14.3352 -10.2786 -10.2770 -10.2507 -10.2491
-10.2165 -10.2077 -10.2070 -10.2046 -10.2039 -10.2001 -10.1956 -10.1950
-10.1939 -10.1937 -10.1764  -9.4700  -7.2346  -7.2252  -7.2240  -1.0601
 -1.0571  -0.9484  -0.8995  -0.8856  -0.8433  -0.8191  -0.7799  -0.7749
 -0.7446  -0.7210  -0.6806  -0.6603  -0.6400  -0.6064  -0.5874  -0.5762
 -0.5483  -0.5359  -0.5091  -0.4996  -0.4772  -0.4752  -0.4689  -0.4596
 -0.4486  -0.4480  -0.4452  -0.4347  -0.4306  -0.4170  -0.4111  -0.3964
 -0.3909  -0.3858  -0.3753  -0.3703  -0.3653  -0.3632  -0.3254  -0.3125
 -0.2841  -0.2799  -0.2752  -0.2736  -0.2622  -0.2238

          Ground-State Mulliken Net Atomic Charges

     Atom                 Charge (a.u.)
  ----------------------------------------
      1 C                     1.193842
      2 C                     1.760596
      3 C                    -0.416008
      4 C                    -0.139789
      5 Cl                    0.231413
      6 C                    -0.433647
      7 C                    -2.896036
      8 O                    -0.167314
      9 C                    -1.149145
     10 C                     0.063830
     11 C                     0.393709
     12 C                     0.336380
     13 C                     0.223279
     14 C                    -0.347963
     15 C                    -0.804055
     16 O                    -0.268265
     17 C                    -0.206754
     18 C                     0.160528
     19 N                    -0.243192
     20 H                     0.246077
     21 H                     0.262610
     22 H                     0.269968
     23 H                     0.177759
     24 H                     0.174655
     25 H                     0.319789
     26 H                     0.327647
     27 H                     0.195913
     28 H                     0.305515
     29 H                     0.428659
  ----------------------------------------
  Sum of atomic charges =     0.000000

                    Cartesian Multipole Moments
 -----------------------------------------------------------------
    Charge (ESU x 10^10)
                 0.0000
    Dipole Moment (Debye)
         X      -3.6738      Y       3.5238      Z      -0.1873
       Tot       5.0940
    Quadrupole Moments (Debye-Ang)
        XX     -78.7382     XY       6.8347     YY    -128.6346
        XZ       1.4553     YZ      -0.5261     ZZ    -120.0419

 Total job time:  707.97s(wall), 5531.19s(cpu)
        *  Thank you very much for using Q-Chem.  Have a nice day.  *
