 Gaussian 16, Revision A.03,
 Gaussian 16:  ES64L-G16RevA.03 25-Dec-2016

 ----------------------------------------------------------------------
 #P UB3LYP/6-311++G(d,p) nosym opt freq SCRF=(PCM,Solvent=n,n-DiMethylF
 ormamide)
 ----------------------------------------------------------------------

 -------
 Radical
 -------
 Symbolic Z-matrix:
 Charge = -1 Multiplicity = 2

 SCF Done:  E(UB3LYP) =  -2994.59936713     A.U. after   19 cycles
 SCF Done:  E(UB3LYP) =  -2994.59955865     A.U. after   14 cycles
 SCF Done:  E(UB3LYP) =  -2994.59958698     A.U. after   13 cycles
 SCF Done:  E(UB3LYP) =  -2994.59958707     A.U. after   12 cycles
 SCF Done:  E(UB3LYP) =  -2994.59958845     A.U. after   10 cycles
 Optimization completed.
    -- Stationary point found.
 Normal termination of Gaussian 16 at Sat Feb 10 10:07:26 2024.

 ----------------------------------------------------------------------
 #P Geom=AllCheck Guess=TCheck SCRF=Check GenChk UB3LYP/6-311++G(d,p) F
 req
 ----------------------------------------------------------------------

 Structure from the checkpoint file:  "005-rad.chk"
 -------
 Radical
 -------
 Charge = -1 Multiplicity = 2

                          Input orientation:
 ---------------------------------------------------------------------
 Center     Atomic      Atomic             Coordinates (Angstroms)
 Number     Number       Type             X           Y           Z
 ---------------------------------------------------------------------
      1          6           0        2.259086   -0.066345    0.081296
      2          6           0        0.758357    0.032891    0.028578
      3          6           0        0.114803    1.240686    0.080818
      4          6           0       -1.322944    1.375153    0.035036
      5          8           0       -1.901636    2.503826    0.082973
      6          6           0       -2.073448    0.143591   -0.067492
      7          6           0       -1.431532   -1.061681   -0.119078
      8         35           0       -2.486925   -2.677103   -0.250466
      9          6           0        0.009660   -1.219628   -0.080465
     10          8           0        0.590930   -2.337957   -0.135400
     11          1           0        2.583980   -0.667447    0.936134
     12          1           0        2.712382    0.923493    0.160218
     13          1           0        2.652959   -0.560437   -0.812043
     14          1           0        0.688452    2.159780    0.161022
     15          1           0       -3.154125    0.211178   -0.101133
 ---------------------------------------------------------------------

 SCF Done:  E(UB3LYP) =  -2994.59958845     A.U. after    1 cycles

 Alpha  occ. eigenvalues -- -482.82415 -62.47694 -56.29712 -56.29359 -56.29334
 Alpha  occ. eigenvalues --  -19.08425 -19.08188 -10.23115 -10.22620 -10.22062
 Alpha  occ. eigenvalues --  -10.18115 -10.17312 -10.16351 -10.16077  -8.68655
 Alpha  occ. eigenvalues --   -6.51737  -6.50559  -6.50486  -2.62842  -2.62515
 Alpha  occ. eigenvalues --   -2.62461  -2.61522  -2.61522  -1.00763  -0.99977
 Alpha  occ. eigenvalues --   -0.84462  -0.80194  -0.74926  -0.69593  -0.67393
 Alpha  occ. eigenvalues --   -0.58251  -0.56426  -0.49167  -0.47317  -0.43212
 Alpha  occ. eigenvalues --   -0.43189  -0.41269  -0.40659  -0.39585  -0.39387
 Alpha  occ. eigenvalues --   -0.37790  -0.36967  -0.35819  -0.32190  -0.28846
 Alpha  occ. eigenvalues --   -0.27804  -0.25037  -0.24911  -0.24415  -0.16878
 Alpha virt. eigenvalues --   -0.01485  -0.01186   0.00006   0.01287   0.01873
 Alpha virt. eigenvalues --    0.02158   0.03551   0.03717   0.04100   0.05500
 Alpha virt. eigenvalues --    0.05688   0.06647   0.07522   0.07611   0.08050

  Beta  occ. eigenvalues -- -482.82414 -62.47694 -56.29714 -56.29356 -56.29334
  Beta  occ. eigenvalues --  -19.07734 -19.07474 -10.22960 -10.22501 -10.21941
  Beta  occ. eigenvalues --  -10.18022 -10.17162 -10.16271 -10.16084  -8.68655
  Beta  occ. eigenvalues --   -6.51741  -6.50552  -6.50486  -2.62844  -2.62513
  Beta  occ. eigenvalues --   -2.62463  -2.61519  -2.61519  -0.99556  -0.98719
  Beta  occ. eigenvalues --   -0.83923  -0.80011  -0.74645  -0.69231  -0.66552
  Beta  occ. eigenvalues --   -0.57866  -0.56007  -0.48949  -0.46872  -0.42771
  Beta  occ. eigenvalues --   -0.42209  -0.41106  -0.40168  -0.39168  -0.38421
  Beta  occ. eigenvalues --   -0.36710  -0.35616  -0.35095  -0.31113  -0.28811
  Beta  occ. eigenvalues --   -0.24949  -0.24384  -0.24226  -0.23783
  Beta virt. eigenvalues --   -0.09625  -0.01072  -0.00099   0.00040   0.01298
  Beta virt. eigenvalues --    0.01906   0.03571   0.03738   0.04132   0.04481
  Beta virt. eigenvalues --    0.05552   0.05793   0.06654   0.07551   0.07881

 Mulliken charges and spin densities:
               1          2
     1  C   -0.406391   0.003964
     2  C    1.492017   0.088993
     3  C   -0.724485   0.033030
     4  C   -0.423462   0.131594
     5  O   -0.500317   0.248382
     6  C    0.071815   0.098156
     7  C    0.787687   0.104321
     8  Br  -0.182848   0.004142
     9  C   -1.565669   0.041230
    10  O   -0.425726   0.254503
    11  H    0.167252   0.003623
    12  H    0.149990  -0.000385
    13  H    0.166789   0.003631
    14  H    0.162918  -0.005746
    15  H    0.230430  -0.009439
 Sum of Mulliken charges =  -1.00000   1.00000

 Dipole moment (field-independent basis, Debye):
    X=              5.4239    Y=              1.4859    Z=              0.3252  Tot=              5.6331
 Quadrupole moment (field-independent basis, Debye-Ang):
   XX=            -85.3277   YY=           -110.5343   ZZ=            -74.7989
   XY=             12.3576   XZ=              0.3978   YZ=             -1.8191

  Exact polarizability: 192.242 -20.490 256.802   2.252   9.470  93.068
 Approx polarizability: 203.084 -36.954 288.807   1.164  10.186 104.663

                      1                      2                      3
                      A                      A                      A
 Frequencies --     83.2232               137.9899               156.8552
 Red. masses --      5.7370                 1.1374                 6.3735
 Frc consts  --      0.0234                 0.0128                 0.0924
 IR Inten    --     14.4592                 0.2097                 7.8468

                      4                      5                      6
                      A                      A                      A
 Frequencies --    174.5517               208.4316               255.7542
 Red. masses --      9.2546                 3.1596                15.2541
 Frc consts  --      0.1661                 0.0809                 0.5879
 IR Inten    --      3.4982                 0.0270                 0.3260

                      7                      8                      9
                      A                      A                      A
 Frequencies --    294.5450               335.9140               406.8138
 Red. masses --      3.5328                 5.8159                 8.8576
 Frc consts  --      0.1806                 0.3867                 0.8637
 IR Inten    --      2.3314                 1.5634                32.9332

                     10                     11                     12
                      A                      A                      A
 Frequencies --    465.9914               467.4263               527.5192
 Red. masses --      8.0059                 4.1777                 6.3031
 Frc consts  --      1.0243                 0.5378                 1.0334
 IR Inten    --      4.7852                 0.4568                 4.6612

                     13                     14                     15
                      A                      A                      A
 Frequencies --    622.3649               637.1457               743.6728
 Red. masses --      4.5994                 2.9269                 6.4617
 Frc consts  --      1.0496                 0.7001                 2.1055
 IR Inten    --      0.8752                 0.0250                 7.4898

                     16                     17                     18
                      A                      A                      A
 Frequencies --    782.7158               809.9793               844.7378
 Red. masses --      7.8389                 5.8873                 1.3657
 Frc consts  --      2.8295                 2.2757                 0.5742
 IR Inten    --    191.5108                24.2452                13.4523

                     19                     20                     21
                      A                      A                      A
 Frequencies --    880.5618               951.3550              1015.4178
 Red. masses --      1.5340                 3.0793                 1.7176
 Frc consts  --      0.7008                 1.6421                 1.0434
 IR Inten    --     58.9081                23.1315                69.2396

                     22                     23                     24
                      A                      A                      A
 Frequencies --   1050.3246              1096.6163              1190.0870
 Red. masses --      1.5104                 2.8032                 3.3237
 Frc consts  --      0.9817                 1.9862                 2.7735
 IR Inten    --      2.3251                94.1063                48.3994

                     25                     26                     27
                      A                      A                      A
 Frequencies --   1246.7561              1314.9942              1395.6049
 Red. masses --      1.7581                 1.9406                 1.7464
 Frc consts  --      1.6102                 1.9771                 2.0041
 IR Inten    --      8.7711                11.0134                65.5559

                     28                     29                     30
                      A                      A                      A
 Frequencies --   1409.5512              1459.8212              1468.3819
 Red. masses --      2.5546                 1.0452                 1.3168
 Frc consts  --      2.9904                 1.3124                 1.6728
 IR Inten    --     61.5655                10.2656                80.8076

                     31                     32                     33
                      A                      A                      A
 Frequencies --   1481.0092              1505.2634              1518.1578
 Red. masses --      7.2208                 4.5792                 5.7481
 Frc consts  --      9.3315                 6.1131                 7.8056
 IR Inten    --     51.2555              1243.3935                31.1444

                     34                     35                     36
                      A                      A                      A
 Frequencies --   1634.3726              3022.8404              3068.6185
 Red. masses --      6.9145                 1.0361                 1.0995
 Frc consts  --     10.8821                 5.5783                 6.0998
 IR Inten    --     52.7444                55.1004                30.1631

                     37                     38                     39
                      A                      A                      A
 Frequencies --   3103.7279              3149.3552              3186.3054
 Red. masses --      1.1018                 1.0902                 1.0914
 Frc consts  --      6.2535                 6.3706                 6.5283
 IR Inten    --     29.9061                38.8626                 7.5987

 - Thermochemistry -
 -------------------
 Temperature   298.150 Kelvin.  Pressure   1.00000 Atm.
 Atom     1 has atomic number  6 and mass  12.00000

 Molecular mass:   199.94729 amu.
 Principal axes and moments of inertia in atomic units:
                           1         2         3
     Eigenvalues --  1268.067622719.455063976.43680
           X            0.55810   0.82904  -0.03486
           Y            0.82680  -0.55916  -0.06111
           Z            0.07016  -0.00529   0.99752
 This molecule is an asymmetric top.
 Rotational symmetry number  1.
 Warning -- assumption of classical behavior for rotation
           may cause significant error
 Rotational temperatures (Kelvin)      0.06830     0.03185     0.02178
 Rotational constants (GHZ):           1.42322     0.66364     0.45386
 Zero-point vibrational energy     263805.0 (Joules/Mol)
                                   63.05091 (Kcal/Mol)
 Warning -- explicit consideration of  12 degrees of freedom as
           vibrations may cause significant error
 Vibrational temperatures:    119.74   198.54   225.68   251.14   299.89
          (Kelvin)            367.97   423.78   483.31   585.31   670.46
                              672.52   758.98   895.44   916.71  1069.98
                             1126.15  1165.38  1215.39  1266.93  1368.79
                             1460.96  1511.18  1577.79  1712.27  1793.80
                             1891.98  2007.96  2028.03  2100.36  2112.67
                             2130.84  2165.74  2184.29  2351.50  4349.19
                             4415.06  4465.57  4531.22  4584.38

 Zero-point correction=                           0.100478 (Hartree/Particle)
 Thermal correction to Energy=                    0.109702
 Thermal correction to Enthalpy=                  0.110646
 Thermal correction to Gibbs Free Energy=         0.064282
 Sum of electronic and zero-point Energies=          -2994.499110
 Sum of electronic and thermal Energies=             -2994.489887
 Sum of electronic and thermal Enthalpies=           -2994.488943
 Sum of electronic and thermal Free Energies=        -2994.535307

                     E (Thermal)             CV                S
                      KCal/Mol        Cal/Mol-Kelvin    Cal/Mol-Kelvin
 Total                   68.839             33.457             97.581
 Electronic               0.000              0.000              1.377
 Translational            0.889              2.981             41.783
 Rotational               0.889              2.981             30.995
 Vibrational             67.061             27.495             23.425
 Vibration     1          0.600              1.961              3.813
 Vibration     2          0.614              1.915              2.832
 Vibration     3          0.621              1.895              2.587
 Vibration     4          0.627              1.874              2.386
 Vibration     5          0.642              1.828              2.057
 Vibration     6          0.666              1.753              1.691
 Vibration     7          0.689              1.684              1.448
 Vibration     8          0.717              1.604              1.231
 Vibration     9          0.772              1.455              0.938
 Vibration    10          0.823              1.325              0.749
 Vibration    11          0.825              1.322              0.745
 Vibration    12          0.882              1.189              0.593

 Optimization completed.
    -- Stationary point found.
 Normal termination of Gaussian 16 at Sat Feb 10 10:13:25 2024.
