 Gaussian 16, Revision A.03,
 Gaussian 16:  ES64L-G16RevA.03 25-Dec-2016

 ----------------------------------------------------------------
 #P UB3LYP/6-311++G(d,p) SCRF=(PCM,Solvent=n,n-DiMethylFormamide)
 ----------------------------------------------------------------

 ------------------
 Quinone PCM in DMF
 ------------------
 Symbolic Z-matrix:
 Charge =  0 Multiplicity = 1

                         Standard orientation:
 ---------------------------------------------------------------------
 Center     Atomic      Atomic             Coordinates (Angstroms)
 Number     Number       Type             X           Y           Z
 ---------------------------------------------------------------------
      1          6           0       -3.337755   -1.825758    0.237596
      2          8           0       -2.730859   -0.535711   -0.005833
      3          6           0       -1.427292   -0.283082   -0.012325
      4          6           0       -1.016595    1.012657   -0.032343
      5         17           0       -2.166465    2.310276   -0.029928
      6          6           0        0.399914    1.394395   -0.064616
      7          8           0        0.761059    2.554567   -0.133062
      8          6           0        1.427033    0.282858   -0.009573
      9          6           0        1.016245   -1.012952   -0.031552
     10         17           0        2.166181   -2.310547   -0.027760
     11          6           0       -0.400033   -1.394563   -0.068594
     12          8           0       -0.761366   -2.554281   -0.143407
     13          8           0        2.730640    0.534596    0.002630
     14          6           0        3.339077    1.827248    0.226815
     15          1           0       -2.937818   -2.283890    1.140892
     16          1           0       -4.393054   -1.591577    0.364195
     17          1           0       -3.188152   -2.491840   -0.608955
     18          1           0        3.183000    2.484041   -0.625895
     19          1           0        2.946165    2.295468    1.127959
     20          1           0        4.395307    1.594221    0.347447
 ---------------------------------------------------------------------

 SCF Done:  E(UB3LYP) =  -1529.91735787     A.U. after   17 cycles

 The electronic state is 1-A.
 Alpha  occ. eigenvalues -- -101.57437-101.57434 -19.19751 -19.19736 -19.15198
 Alpha  occ. eigenvalues --  -19.15187 -10.30949 -10.30937 -10.29542 -10.29532
 Alpha  occ. eigenvalues --  -10.25879 -10.25870 -10.23544 -10.23541  -9.48881
 Alpha  occ. eigenvalues --   -9.48878  -7.25368  -7.25365  -7.24373  -7.24370
 Alpha  occ. eigenvalues --   -7.24292  -7.24289  -1.11916  -1.11645  -1.08402
 Alpha  occ. eigenvalues --   -1.08291  -0.91335  -0.89779  -0.83794  -0.79366
 Alpha  occ. eigenvalues --   -0.74797  -0.72422  -0.69326  -0.62931  -0.62067
 Alpha  occ. eigenvalues --   -0.58009  -0.55568  -0.54084  -0.50944  -0.49482
 Alpha  occ. eigenvalues --   -0.48863  -0.48503  -0.47555  -0.46808  -0.45320
 Alpha  occ. eigenvalues --   -0.44845  -0.43836  -0.42624  -0.40221  -0.38970
 Alpha  occ. eigenvalues --   -0.38202  -0.38076  -0.35731  -0.35474  -0.33635
 Alpha  occ. eigenvalues --   -0.33102  -0.30008  -0.29916  -0.27943  -0.25178
 Alpha virt. eigenvalues --   -0.14033  -0.02733  -0.02094  -0.01103   0.00152
 Alpha virt. eigenvalues --    0.00316   0.00649   0.02442   0.02559   0.03136
 Alpha virt. eigenvalues --    0.03263   0.03815   0.04158   0.05168   0.05253

  Beta  occ. eigenvalues -- -101.57437-101.57434 -19.19751 -19.19736 -19.15198
  Beta  occ. eigenvalues --  -19.15187 -10.30949 -10.30937 -10.29542 -10.29532
  Beta  occ. eigenvalues --  -10.25879 -10.25870 -10.23544 -10.23541  -9.48881
  Beta  occ. eigenvalues --   -9.48878  -7.25368  -7.25365  -7.24373  -7.24370
  Beta  occ. eigenvalues --   -7.24292  -7.24289  -1.11916  -1.11645  -1.08402
  Beta  occ. eigenvalues --   -1.08291  -0.91335  -0.89779  -0.83794  -0.79366
  Beta  occ. eigenvalues --   -0.74797  -0.72422  -0.69326  -0.62931  -0.62067
  Beta  occ. eigenvalues --   -0.58009  -0.55568  -0.54084  -0.50944  -0.49482
  Beta  occ. eigenvalues --   -0.48863  -0.48503  -0.47555  -0.46808  -0.45320
  Beta  occ. eigenvalues --   -0.44845  -0.43836  -0.42624  -0.40221  -0.38970
  Beta  occ. eigenvalues --   -0.38202  -0.38076  -0.35731  -0.35474  -0.33635
  Beta  occ. eigenvalues --   -0.33102  -0.30008  -0.29916  -0.27943  -0.25178
  Beta virt. eigenvalues --   -0.14033  -0.02733  -0.02094  -0.01103   0.00152
  Beta virt. eigenvalues --    0.00316   0.00649   0.02442   0.02559   0.03136
  Beta virt. eigenvalues --    0.03263   0.03815   0.04158   0.05168   0.05253

 Mulliken charges and spin densities:
               1          2
     1  C   -0.257807  -0.000000
     2  O   -0.149640   0.000000
     3  C   -1.311911  -0.000000
     4  C    1.665435   0.000000
     5  Cl   0.280257  -0.000000
     6  C   -0.559897  -0.000000
     7  O   -0.241667   0.000000
     8  C   -1.308908  -0.000000
     9  C    1.667660   0.000000
    10  Cl   0.279351  -0.000000
    11  C   -0.557112   0.000000
    12  O   -0.241875   0.000000
    13  O   -0.150969   0.000000
    14  C   -0.255970  -0.000000
    15  H    0.189141  -0.000000
    16  H    0.182217   0.000000
    17  H    0.199643  -0.000000
    18  H    0.199539  -0.000000
    19  H    0.189607  -0.000000
    20  H    0.182905   0.000000
 Sum of Mulliken charges =  -0.00000   0.00000

 Dipole moment (field-independent basis, Debye):
    X=              0.0102    Y=              0.0152    Z=              1.1494  Tot=              1.1495
 Quadrupole moment (field-independent basis, Debye-Ang):
   XX=            -80.5878   YY=           -106.4017   ZZ=            -91.8025
   XY=             14.6280   XZ=             -0.1116   YZ=             -0.0808

 Normal termination of Gaussian 16 at Sun Jan 21 06:52:19 2024.
