 Gaussian 16, Revision A.03,
 Gaussian 16:  ES64L-G16RevA.03 25-Dec-2016

 --------------------------------------
 #P UB3LYP/6-311++G(d,p) nosym opt freq
 --------------------------------------

 --------
 Oxidized
 --------
 Symbolic Z-matrix:
 Charge =  0 Multiplicity = 1

 SCF Done:  E(UB3LYP) =  -1529.90680495     A.U. after   17 cycles
 SCF Done:  E(UB3LYP) =  -1529.90680508     A.U. after   10 cycles
 SCF Done:  E(UB3LYP) =  -1529.90680504     A.U. after   11 cycles
 SCF Done:  E(UB3LYP) =  -1529.90680521     A.U. after   11 cycles
 Optimization completed.
    -- Stationary point found.
 Normal termination of Gaussian 16 at Sat Jan  6 05:47:54 2024.

 ----------------------------------------------------------------------
 #P Geom=AllCheck Guess=TCheck SCRF=Check GenChk UB3LYP/6-311++G(d,p) F
 req
 ----------------------------------------------------------------------

 Structure from the checkpoint file:  "022.chk"
 --------
 Oxidized
 --------
 Charge =  0 Multiplicity = 1

                          Input orientation:
 ---------------------------------------------------------------------
 Center     Atomic      Atomic             Coordinates (Angstroms)
 Number     Number       Type             X           Y           Z
 ---------------------------------------------------------------------
      1          6           0       -3.807829    0.027694   -0.051896
      2          8           0       -2.640108    0.862409   -0.229325
      3          6           0       -1.379258    0.448645   -0.182364
      4          6           0       -0.390500    1.380757   -0.143170
      5         17           0       -0.764053    3.073805   -0.134954
      6          6           0        1.032851    1.025142   -0.113595
      7          8           0        1.914782    1.863631   -0.129189
      8          6           0        1.386945   -0.446418   -0.062145
      9          6           0        0.400041   -1.377970   -0.143292
     10         17           0        0.773373   -3.071115   -0.145305
     11          6           0       -1.019797   -1.021402   -0.242086
     12          8           0       -1.894958   -1.857432   -0.369571
     13          8           0        2.646522   -0.861237    0.003459
     14          6           0        3.794937   -0.031431    0.293229
     15          1           0       -3.723582   -0.579553    0.848066
     16          1           0       -4.621161    0.744158    0.046562
     17          1           0       -3.961084   -0.615255   -0.915508
     18          1           0        4.017666    0.629939   -0.540937
     19          1           0        3.637155    0.556377    1.196145
     20          1           0        4.598056   -0.750742    0.441779
 ---------------------------------------------------------------------

 SCF Done:  E(UB3LYP) =  -1529.90680521     A.U. after    2 cycles

 Alpha  occ. eigenvalues -- -101.56810-101.56805 -19.19878 -19.19862 -19.15028
 Alpha  occ. eigenvalues --  -19.15016 -10.30759 -10.30745 -10.29448 -10.29438
 Alpha  occ. eigenvalues --  -10.25895 -10.25888 -10.24509 -10.24502  -9.48244
 Alpha  occ. eigenvalues --   -9.48240  -7.24746  -7.24741  -7.23738  -7.23733
 Alpha  occ. eigenvalues --   -7.23639  -7.23635  -1.12055  -1.11806  -1.08238
 Alpha  occ. eigenvalues --   -1.08153  -0.91115  -0.89365  -0.83523  -0.79556
 Alpha  occ. eigenvalues --   -0.75347  -0.72395  -0.69666  -0.62880  -0.62263
 Alpha  occ. eigenvalues --   -0.58011  -0.56017  -0.54216  -0.51284  -0.50022
 Alpha  occ. eigenvalues --   -0.48867  -0.48111  -0.47434  -0.46422  -0.45718
 Alpha  occ. eigenvalues --   -0.45394  -0.43698  -0.42793  -0.40644  -0.39148
 Alpha  occ. eigenvalues --   -0.38409  -0.38116  -0.35417  -0.35214  -0.32862
 Alpha  occ. eigenvalues --   -0.32411  -0.29818  -0.29698  -0.27874  -0.25120
 Alpha virt. eigenvalues --   -0.14022  -0.02881  -0.02133  -0.01205  -0.00509
 Alpha virt. eigenvalues --    0.00089   0.00528   0.01912   0.02621   0.02662
 Alpha virt. eigenvalues --    0.02988   0.03127   0.03388   0.05120   0.05500

  Beta  occ. eigenvalues -- -101.56810-101.56805 -19.19878 -19.19862 -19.15028
  Beta  occ. eigenvalues --  -19.15016 -10.30759 -10.30745 -10.29448 -10.29438
  Beta  occ. eigenvalues --  -10.25895 -10.25888 -10.24509 -10.24502  -9.48244
  Beta  occ. eigenvalues --   -9.48240  -7.24746  -7.24741  -7.23738  -7.23733
  Beta  occ. eigenvalues --   -7.23639  -7.23635  -1.12055  -1.11806  -1.08238
  Beta  occ. eigenvalues --   -1.08153  -0.91115  -0.89365  -0.83523  -0.79556
  Beta  occ. eigenvalues --   -0.75347  -0.72395  -0.69666  -0.62880  -0.62263
  Beta  occ. eigenvalues --   -0.58011  -0.56017  -0.54216  -0.51284  -0.50022
  Beta  occ. eigenvalues --   -0.48867  -0.48111  -0.47434  -0.46422  -0.45718
  Beta  occ. eigenvalues --   -0.45394  -0.43698  -0.42793  -0.40644  -0.39148
  Beta  occ. eigenvalues --   -0.38409  -0.38116  -0.35417  -0.35214  -0.32862
  Beta  occ. eigenvalues --   -0.32411  -0.29818  -0.29698  -0.27874  -0.25120
  Beta virt. eigenvalues --   -0.14022  -0.02881  -0.02133  -0.01205  -0.00509
  Beta virt. eigenvalues --    0.00089   0.00528   0.01912   0.02621   0.02662
  Beta virt. eigenvalues --    0.02988   0.03127   0.03388   0.05120   0.05500

 Mulliken charges and spin densities:
               1          2
     1  C   -0.252560   0.000000
     2  O   -0.130982   0.000000
     3  C   -1.374030  -0.000000
     4  C    1.737725   0.000000
     5  Cl   0.322034  -0.000000
     6  C   -0.654673  -0.000000
     7  O   -0.194265   0.000000
     8  C   -1.370938   0.000000
     9  C    1.739464  -0.000000
    10  Cl   0.321189   0.000000
    11  C   -0.651057  -0.000000
    12  O   -0.194199   0.000000
    13  O   -0.132521  -0.000000
    14  C   -0.250757   0.000000
    15  H    0.176211   0.000000
    16  H    0.171112  -0.000000
    17  H    0.194947   0.000000
    18  H    0.194519  -0.000000
    19  H    0.176963   0.000000
    20  H    0.171817  -0.000000
 Sum of Mulliken charges =  -0.00000   0.00000

 Dipole moment (field-independent basis, Debye):
    X=             -0.0314    Y=             -0.0075    Z=              0.9000  Tot=              0.9006
 Quadrupole moment (field-independent basis, Debye-Ang):
   XX=            -76.6722   YY=           -109.0893   ZZ=            -92.2162
   XY=             -2.7431   XZ=              0.5745   YZ=             -0.3749

  Exact polarizability: 186.350  18.431 167.830   5.465   2.157  76.576
 Approx polarizability: 312.277  85.861 280.631  10.641   6.434 117.775

                      1                      2                      3
                      A                      A                      A
 Frequencies --     19.4073                33.5779                57.0319
 Red. masses --      3.3957                 4.1270                10.5261
 Frc consts  --      0.0008                 0.0027                 0.0202
 IR Inten    --     11.6820                 1.7698                 0.0028

                      4                      5                      6
                      A                      A                      A
 Frequencies --     81.3400               102.3925               184.2428
 Red. masses --      6.9874                 6.2465                 8.4599
 Frc consts  --      0.0272                 0.0386                 0.1692
 IR Inten    --      1.4778                 1.8953                 6.6406

                      7                      8                      9
                      A                      A                      A
 Frequencies --    190.3731               198.9221               211.3373
 Red. masses --      7.3663                10.5699                 4.7312
 Frc consts  --      0.1573                 0.2464                 0.1245
 IR Inten    --      0.7994                 1.5472                 5.0539

                     10                     11                     12
                      A                      A                      A
 Frequencies --    229.7399               231.9312               279.5483
 Red. masses --      1.1184                 1.1179                10.7829
 Frc consts  --      0.0348                 0.0354                 0.4965
 IR Inten    --      0.2007                 0.4347                 0.0461

                     13                     14                     15
                      A                      A                      A
 Frequencies --    289.2686               326.6093               357.6446
 Red. masses --      9.4762                 5.5764                11.6521
 Frc consts  --      0.4672                 0.3505                 0.8781
 IR Inten    --      0.5162                 0.1482                 0.0121

                     16                     17                     18
                      A                      A                      A
 Frequencies --    384.1374               416.7165               417.4289
 Red. masses --     14.1510                 4.7571                 6.4916
 Frc consts  --      1.2303                 0.4867                 0.6664
 IR Inten    --      6.6266                17.2092                 0.4447

                     19                     20                     21
                      A                      A                      A
 Frequencies --    490.9789               506.4321               517.1955
 Red. masses --     11.3527                11.2695                12.1810
 Frc consts  --      1.6124                 1.7029                 1.9197
 IR Inten    --      0.1481                 0.0012                 9.3959

                     22                     23                     24
                      A                      A                      A
 Frequencies --    582.3226               743.7815               755.4006
 Red. masses --     11.8980                12.1665                12.1202
 Frc consts  --      2.3771                 3.9656                 4.0749
 IR Inten    --     11.2306                 4.0217                 2.2714

                     25                     26                     27
                      A                      A                      A
 Frequencies --    796.3397               824.9487               866.7973
 Red. masses --      9.5199                 9.0240                11.0734
 Frc consts  --      3.5570                 3.6183                 4.9019
 IR Inten    --      1.0931               215.1405                 0.4970

                     28                     29                     30
                      A                      A                      A
 Frequencies --    915.5901               979.5846              1075.8705
 Red. masses --     10.1615                10.1921                12.2146
 Frc consts  --      5.0189                 5.7623                 8.3301
 IR Inten    --     57.6472                 1.9701               142.6808

                     31                     32                     33
                      A                      A                      A
 Frequencies --   1158.3879              1158.8631              1182.0372
 Red. masses --      1.2480                 1.2480                 1.6509
 Frc consts  --      0.9867                 0.9875                 1.3591
 IR Inten    --      1.2935                 0.0947               116.1245

                     34                     35                     36
                      A                      A                      A
 Frequencies --   1186.4026              1235.7424              1262.1258
 Red. masses --      1.4278                 4.4005                 9.6059
 Frc consts  --      1.1841                 3.9592                 9.0156
 IR Inten    --      0.0580               507.9556                 0.0202

                     37                     38                     39
                      A                      A                      A
 Frequencies --   1311.5022              1359.1910              1479.3708
 Red. masses --      5.5172                 6.5790                 1.1441
 Frc consts  --      5.5912                 7.1609                 1.4753
 IR Inten    --      2.3860               385.0683                53.4474

                     40                     41                     42
                      A                      A                      A
 Frequencies --   1481.6742              1488.6039              1488.8988
 Red. masses --      1.1123                 1.0784                 1.0826
 Frc consts  --      1.4387                 1.4080                 1.4140
 IR Inten    --      1.3954                 2.7855                16.9827

                     43                     44                     45
                      A                      A                      A
 Frequencies --   1490.3630              1490.8640              1602.5797
 Red. masses --      1.1046                 1.1214                 9.2491
 Frc consts  --      1.4455                 1.4686                13.9955
 IR Inten    --     57.7006                 1.6731               657.2230

                     46                     47                     48
                      A                      A                      A
 Frequencies --   1643.3434              1713.3152              1716.8568
 Red. masses --      9.9482                12.8780                12.5871
 Frc consts  --     15.8289                22.2728                21.8596
 IR Inten    --      0.8088                 1.3794               477.5550

                     49                     50                     51
                      A                      A                      A
 Frequencies --   3063.3374              3063.4997              3149.9793
 Red. masses --      1.0276                 1.0276                 1.1081
 Frc consts  --      5.6814                 5.6822                 6.4780
 IR Inten    --     66.9645                 4.6097                18.5168

                     52                     53                     54
                      A                      A                      A
 Frequencies --   3150.2446              3157.8097              3158.2197
 Red. masses --      1.1081                 1.1087                 1.1087
 Frc consts  --      6.4793                 6.5139                 6.5154
 IR Inten    --     17.1210                11.8793                11.3209

 - Thermochemistry -
 -------------------
 Temperature   298.150 Kelvin.  Pressure   1.00000 Atm.
 Atom     1 has atomic number  6 and mass  12.00000

 Molecular mass:   235.96431 amu.
 Principal axes and moments of inertia in atomic units:
                           1         2         3
     Eigenvalues --  2739.209713657.231466355.70103
           X            0.75159   0.65795  -0.04706
           Y           -0.65911   0.75192  -0.01378
           Z            0.02632   0.04137   0.99880
 This molecule is an asymmetric top.
 Rotational symmetry number  1.
 Warning -- assumption of classical behavior for rotation
           may cause significant error
 Rotational temperatures (Kelvin)      0.03162     0.02368     0.01363
 Rotational constants (GHZ):           0.65885     0.49347     0.28396
 Zero-point vibrational energy     342491.5 (Joules/Mol)
                                   81.85743 (Kcal/Mol)
 Warning -- explicit consideration of  22 degrees of freedom as
           vibrations may cause significant error
 Vibrational temperatures:     27.92    48.31    82.06   117.03   147.32
          (Kelvin)            265.08   273.90   286.20   304.07   330.54
                              333.70   402.21   416.19   469.92   514.57
                              552.69   599.56   600.59   706.41   728.64
                              744.13   837.83  1070.14  1086.85  1145.76
                             1186.92  1247.13  1317.33  1409.40  1547.94
                             1666.66  1667.35  1700.69  1706.97  1777.96
                             1815.92  1886.96  1955.57  2128.48  2131.80
                             2141.77  2142.19  2144.30  2145.02  2305.75
                             2364.40  2465.08  2470.17  4407.46  4407.69
                             4532.12  4532.50  4543.38  4543.97

 Zero-point correction=                           0.130448 (Hartree/Particle)
 Thermal correction to Energy=                    0.144714
 Thermal correction to Enthalpy=                  0.145658
 Thermal correction to Gibbs Free Energy=         0.086844
 Sum of electronic and zero-point Energies=          -1529.776357
 Sum of electronic and thermal Energies=             -1529.762091
 Sum of electronic and thermal Enthalpies=           -1529.761147
 Sum of electronic and thermal Free Energies=        -1529.819962

                     E (Thermal)             CV                S
                      KCal/Mol        Cal/Mol-Kelvin    Cal/Mol-Kelvin
 Total                   90.809             49.146            123.786
 Electronic               0.000              0.000              0.000
 Translational            0.889              2.981             42.277
 Rotational               0.889              2.981             32.521
 Vibrational             89.032             43.184             48.988
 Vibration     1          0.593              1.986              6.694
 Vibration     2          0.594              1.983              5.606
 Vibration     3          0.596              1.975              4.557
 Vibration     4          0.600              1.962              3.858
 Vibration     5          0.604              1.947              3.408
 Vibration     6          0.631              1.861              2.285
 Vibration     7          0.634              1.853              2.224
 Vibration     8          0.637              1.841              2.143
 Vibration     9          0.643              1.824              2.032
 Vibration    10          0.652              1.796              1.881
 Vibration    11          0.653              1.792              1.864
 Vibration    12          0.680              1.711              1.536
 Vibration    13          0.686              1.694              1.478
 Vibration    14          0.710              1.622              1.277
 Vibration    15          0.733              1.560              1.132
 Vibration    16          0.753              1.504              1.023
 Vibration    17          0.780              1.434              0.903
 Vibration    18          0.780              1.432              0.901
 Vibration    19          0.847              1.270              0.681
 Vibration    20          0.862              1.236              0.642
 Vibration    21          0.872              1.212              0.616
 Vibration    22          0.939              1.070              0.481

                           ! Non-Optimized Parameters !
 Normal termination of Gaussian 16 at Sat Jan  6 06:18:42 2024.
