 Q-Chem 5.4, Q-Chem, Inc., Pleasanton, CA (2021)
 Q-Chem 5.4.0 for Intel X86 EM64T Linux

User input:
--------------------------------------------------------------
$molecule
0 1
C                 -0.3583850000      3.9977560000      0.1230640000
C                  0.5954820000      3.0526980000      0.1600160000
C                  0.3455230000      1.6321480000     -0.1569700000
C                 -0.9070250000      1.2428720000     -0.5289160000
C                  1.4667910000      0.7109340000     -0.0567210000
C                  1.4588840000     -0.7346850000      0.1052490000
C                  2.8012510000      1.0760460000     -0.1461270000
C                  2.8113030000     -1.1593800000      0.0912390000
C                  0.4629290000     -1.7034410000      0.3142060000
C                  0.8330380000     -3.0321160000      0.4701190000
C                  2.1819350000     -3.4260540000      0.4296490000
C                  3.1918110000     -2.4918090000      0.2470840000
N                  3.5978130000     -0.0304680000     -0.0692510000
H                 -1.1243120000      0.2236990000     -0.8180350000
H                  3.2402520000      2.0491040000     -0.2972580000
H                 -0.5818220000     -1.4290840000      0.3692960000
H                  0.0669250000     -3.7817190000      0.6299080000
H                  2.4374170000     -4.4720900000      0.5515810000
H                  4.2349690000     -2.7870510000      0.2324160000
H                  4.6028410000     -0.0237160000     -0.1312630000
C                 -1.7428630000      3.6637620000     -0.2541040000
C                 -2.0233570000      2.1752960000     -0.6215590000
O                 -2.6301570000      4.4888430000     -0.2828400000
O                 -3.1396870000      1.8438350000     -0.9765710000
H                 -0.1547630000      5.0320090000      0.3771220000
H                  1.5981370000      3.3293100000      0.4653650000
$end
$rem
MAX_SCF_CYCLES=200
BASIS  =  6-311++G(d,p)
GUI  =  2
JOB_TYPE  =  SP
METHOD  =  B3LYP
SOLVENT_METHOD = COSMO
$end
$solvent
dielectric 37.219
opticaldielectric 1.43
$end

--------------------------------------------------------------

             Standard Nuclear Orientation (Angstroms)
    I     Atom           X                Y                Z
 ----------------------------------------------------------------
    1      C       3.1259769580     1.3750155431    -0.4063876962
    2      C       1.7958014163     1.5404322064    -0.3190224685
    3      C       0.8622123956     0.4513661950     0.0320739453
    4      C       1.3579278151    -0.7888264581     0.3058339302
    5      C      -0.5575184501     0.7657165238     0.0704825377
    6      C      -1.7012298973    -0.1272931343    -0.0323229625
    7      C      -1.0820881867     2.0343374543     0.2641606813
    8      C      -2.8631865191     0.6703205950     0.1202169421
    9      C      -1.8685325631    -1.4983199163    -0.2899524607
   10      C      -3.1519190257    -2.0227308017    -0.3576222617
   11      C      -4.2852635372    -1.2100539870    -0.1803239294
   12      C      -4.1558942419     0.1517423986     0.0537004801
   13      N      -2.4459221470     1.9782975301     0.3042932985
   14      H       0.7168146924    -1.6027428509     0.6157227974
   15      H      -0.5746915897     2.9737303702     0.4141405850
   16      H      -1.0169448906    -2.1457051092    -0.4496464546
   17      H      -3.2839918076    -3.0801300022    -0.5546756095
   18      H      -5.2735454553    -1.6511074245    -0.2360060088
   19      H      -5.0264303526     0.7867899384     0.1738799455
   20      H      -3.0519391651     2.7680784147     0.4558250990
   21      C       3.7464893312     0.0652845393    -0.1415176961
   22      C       2.7827606281    -1.0920268046     0.2598406653
   23      O       4.9409459509    -0.1217435743    -0.2261872017
   24      O       3.2387709874    -2.1888348611     0.5265975264
   25      H       3.7903773141     2.1859523676    -0.6832275197
   26      H       1.3708540380     2.5118929473    -0.5443067643
 ----------------------------------------------------------------

    9    -744.2713082893      9.04e-06  Convergence criterion met
 Total energy in the final basis set =     -744.2713082893
    5    -744.3006874235      8.15e-06  Convergence criterion met
 Total energy in the final basis set =     -744.3006874235

                    Orbital Energies (a.u.)
 --------------------------------------------------------------

 Alpha MOs
 -- Occupied --
-19.1461 -19.1315 -14.3792 -10.2824 -10.2732 -10.2337 -10.2293 -10.2232
-10.2161 -10.1997 -10.1986 -10.1929 -10.1870 -10.1855 -10.1848 -10.1820
-10.1782  -1.0835  -1.0551  -1.0054  -0.8747  -0.8596  -0.8122  -0.7687
 -0.7549  -0.7482  -0.7125  -0.6421  -0.6338  -0.6273  -0.6036  -0.5759
 -0.5572  -0.5202  -0.5124  -0.4958  -0.4900  -0.4774  -0.4595  -0.4558
 -0.4521  -0.4470  -0.4454  -0.4397  -0.4204  -0.4190  -0.3955  -0.3917
 -0.3739  -0.3648  -0.3559  -0.3514  -0.3145  -0.3022  -0.2665  -0.2622
 -0.2481  -0.2255

          Ground-State Mulliken Net Atomic Charges

     Atom                 Charge (a.u.)
  ----------------------------------------
      1 C                     0.442711
      2 C                    -1.525346
      3 C                     1.097072
      4 C                    -0.326005
      5 C                     0.938219
      6 C                     1.132432
      7 C                    -0.116337
      8 C                    -0.170007
      9 C                    -0.987766
     10 C                    -0.540777
     11 C                    -0.277372
     12 C                    -0.640391
     13 N                    -0.063840
     14 H                     0.193174
     15 H                     0.243366
     16 H                     0.130448
     17 H                     0.217216
     18 H                     0.208117
     19 H                     0.214511
     20 H                     0.371489
     21 C                    -0.342321
     22 C                     0.067769
     23 O                    -0.324203
     24 O                    -0.371269
     25 H                     0.264591
     26 H                     0.164520
  ----------------------------------------
  Sum of atomic charges =     0.000000

                    Cartesian Multipole Moments
 -----------------------------------------------------------------
    Charge (ESU x 10^10)
                -0.0000
    Dipole Moment (Debye)
         X     -11.8126      Y       9.4435      Z      -0.3355
       Tot      15.1271
    Quadrupole Moments (Debye-Ang)
        XX    -122.7210     XY       9.5039     YY     -83.6559
        XZ      -4.4506     YZ       4.5680     ZZ    -101.7166

 Total job time:  52.71s(wall), 382.88s(cpu)
        *  Thank you very much for using Q-Chem.  Have a nice day.  *
