 Gaussian 16, Revision A.03,
 Gaussian 16:  ES64L-G16RevA.03 25-Dec-2016

 --------------------------------------
 #P UB3LYP/6-311++G(d,p) nosym opt freq
 --------------------------------------

 --------
 Oxidized
 --------
 Symbolic Z-matrix:
 Charge =  0 Multiplicity = 1

 SCF Done:  E(UB3LYP) =  -744.271297968     A.U. after   17 cycles
 SCF Done:  E(UB3LYP) =  -744.271298019     A.U. after   10 cycles
 Optimization completed.
    -- Stationary point found.
 Normal termination of Gaussian 16 at Tue Jan  9 20:32:52 2024.

 ----------------------------------------------------------------------
 #P Geom=AllCheck Guess=TCheck SCRF=Check GenChk UB3LYP/6-311++G(d,p) F
 req
 ----------------------------------------------------------------------

 Structure from the checkpoint file:  "320.chk"
 --------
 Oxidized
 --------
 Charge =  0 Multiplicity = 1

                          Input orientation:
 ---------------------------------------------------------------------
 Center     Atomic      Atomic             Coordinates (Angstroms)
 Number     Number       Type             X           Y           Z
 ---------------------------------------------------------------------
      1          6           0       -0.358385    3.997756    0.123064
      2          6           0        0.595482    3.052698    0.160016
      3          6           0        0.345523    1.632148   -0.156970
      4          6           0       -0.907025    1.242872   -0.528916
      5          6           0        1.466791    0.710934   -0.056721
      6          6           0        1.458884   -0.734685    0.105249
      7          6           0        2.801251    1.076046   -0.146127
      8          6           0        2.811303   -1.159380    0.091239
      9          6           0        0.462929   -1.703441    0.314206
     10          6           0        0.833038   -3.032116    0.470119
     11          6           0        2.181935   -3.426054    0.429649
     12          6           0        3.191811   -2.491809    0.247084
     13          7           0        3.597813   -0.030468   -0.069251
     14          1           0       -1.124312    0.223699   -0.818035
     15          1           0        3.240252    2.049104   -0.297258
     16          1           0       -0.581822   -1.429084    0.369296
     17          1           0        0.066925   -3.781719    0.629908
     18          1           0        2.437417   -4.472090    0.551581
     19          1           0        4.234969   -2.787051    0.232416
     20          1           0        4.602841   -0.023716   -0.131263
     21          6           0       -1.742863    3.663762   -0.254104
     22          6           0       -2.023357    2.175296   -0.621559
     23          8           0       -2.630157    4.488843   -0.282840
     24          8           0       -3.139687    1.843835   -0.976571
     25          1           0       -0.154763    5.032009    0.377122
     26          1           0        1.598137    3.329310    0.465365
 ---------------------------------------------------------------------

 SCF Done:  E(UB3LYP) =  -744.271298019     A.U. after    1 cycles

 Alpha  occ. eigenvalues --  -19.13187 -19.12032 -14.39651 -10.27023 -10.26275
 Alpha  occ. eigenvalues --  -10.24583 -10.23570 -10.23090 -10.22121 -10.20886
 Alpha  occ. eigenvalues --  -10.20311 -10.20261 -10.20021 -10.19475 -10.19396
 Alpha  occ. eigenvalues --  -10.18931 -10.18850  -1.06811  -1.04021  -1.02110
 Alpha  occ. eigenvalues --   -0.87950  -0.86951  -0.82096  -0.77360  -0.76719
 Alpha  occ. eigenvalues --   -0.75670  -0.71582  -0.65617  -0.64138  -0.62960
 Alpha  occ. eigenvalues --   -0.61153  -0.58210  -0.57125  -0.52543  -0.51441
 Alpha  occ. eigenvalues --   -0.50777  -0.49266  -0.47645  -0.46855  -0.46102
 Alpha  occ. eigenvalues --   -0.45739  -0.44609  -0.44298  -0.44027  -0.43058
 Alpha  occ. eigenvalues --   -0.41744  -0.39818  -0.38472  -0.38079  -0.37001
 Alpha  occ. eigenvalues --   -0.36438  -0.36137  -0.30907  -0.29752  -0.26958
 Alpha  occ. eigenvalues --   -0.25796  -0.24691  -0.23256
 Alpha virt. eigenvalues --   -0.13057  -0.05373  -0.03135  -0.02230  -0.01661
 Alpha virt. eigenvalues --   -0.01140  -0.00806  -0.00664   0.00906   0.01465
 Alpha virt. eigenvalues --    0.02349   0.02649   0.03344   0.03849   0.04255

  Beta  occ. eigenvalues --  -19.13187 -19.12032 -14.39651 -10.27023 -10.26275
  Beta  occ. eigenvalues --  -10.24583 -10.23570 -10.23090 -10.22121 -10.20886
  Beta  occ. eigenvalues --  -10.20311 -10.20261 -10.20021 -10.19475 -10.19396
  Beta  occ. eigenvalues --  -10.18931 -10.18850  -1.06811  -1.04021  -1.02110
  Beta  occ. eigenvalues --   -0.87950  -0.86951  -0.82096  -0.77360  -0.76719
  Beta  occ. eigenvalues --   -0.75670  -0.71582  -0.65617  -0.64138  -0.62960
  Beta  occ. eigenvalues --   -0.61153  -0.58210  -0.57125  -0.52543  -0.51441
  Beta  occ. eigenvalues --   -0.50777  -0.49266  -0.47645  -0.46855  -0.46102
  Beta  occ. eigenvalues --   -0.45739  -0.44609  -0.44298  -0.44027  -0.43058
  Beta  occ. eigenvalues --   -0.41744  -0.39818  -0.38472  -0.38079  -0.37001
  Beta  occ. eigenvalues --   -0.36438  -0.36137  -0.30907  -0.29752  -0.26958
  Beta  occ. eigenvalues --   -0.25796  -0.24691  -0.23256
  Beta virt. eigenvalues --   -0.13057  -0.05373  -0.03135  -0.02230  -0.01661
  Beta virt. eigenvalues --   -0.01140  -0.00806  -0.00664   0.00906   0.01465
  Beta virt. eigenvalues --    0.02349   0.02649   0.03344   0.03849   0.04255

 Mulliken charges and spin densities:
               1          2
     1  C    0.500762   0.000000
     2  C   -1.497422  -0.000000
     3  C    1.134502   0.000000
     4  C   -0.266856  -0.000000
     5  C    1.011591   0.000000
     6  C    1.220519  -0.000000
     7  C   -0.135026   0.000000
     8  C   -0.214755  -0.000000
     9  C   -0.986683   0.000000
    10  C   -0.513619   0.000000
    11  C   -0.216589  -0.000000
    12  C   -0.617593  -0.000000
    13  N   -0.041918   0.000000
    14  H    0.167379   0.000000
    15  H    0.175821  -0.000000
    16  H    0.097173  -0.000000
    17  H    0.178265   0.000000
    18  H    0.165732  -0.000000
    19  H    0.150729   0.000000
    20  H    0.302867   0.000000
    21  C   -0.443534  -0.000000
    22  C   -0.036773   0.000000
    23  O   -0.213553   0.000000
    24  O   -0.237668   0.000000
    25  H    0.221915   0.000000
    26  H    0.094734  -0.000000
 Sum of Mulliken charges =  -0.00000   0.00000

 Dipole moment (field-independent basis, Debye):
    X=              9.6666    Y=             -2.5911    Z=              1.2066  Tot=             10.0803
 Quadrupole moment (field-independent basis, Debye-Ang):
   XX=            -93.5684   YY=           -100.7570   ZZ=           -102.6996
   XY=             20.3201   XZ=             -5.6626   YZ=              2.3576

  Exact polarizability: 246.757 -56.548 252.229  16.491 -11.354  93.758
 Approx polarizability: 470.086 -56.296 367.299  32.299 -13.934 151.706

                      1                      2                      3
                      A                      A                      A
 Frequencies --     35.5728                55.5946                82.1991
 Red. masses --      8.1501                 5.5213                 5.2798
 Frc consts  --      0.0061                 0.0101                 0.0210
 IR Inten    --      0.2329                 1.7462                 0.8683

                      4                      5                      6
                      A                      A                      A
 Frequencies --     89.2108               175.3158               220.1501
 Red. masses --      6.3483                 5.6321                 4.0958
 Frc consts  --      0.0298                 0.1020                 0.1170
 IR Inten    --      1.3672                 2.7785                 7.3933

                      7                      8                      9
                      A                      A                      A
 Frequencies --    242.4492               259.2050               295.5658
 Red. masses --      5.8928                 5.7345                 5.8333
 Frc consts  --      0.2041                 0.2270                 0.3002
 IR Inten    --      6.5330                 2.7291                 4.9047

                     10                     11                     12
                      A                      A                      A
 Frequencies --    341.7543               351.1432               428.1087
 Red. masses --      6.1089                13.9585                 2.7511
 Frc consts  --      0.4204                 1.0140                 0.2971
 IR Inten    --      6.3758                 2.5577                24.2886

                     13                     14                     15
                      A                      A                      A
 Frequencies --    447.2333               455.5770               469.3783
 Red. masses --      1.4247                 5.8653                 3.1284
 Frc consts  --      0.1679                 0.7172                 0.4061
 IR Inten    --     54.7585                 7.3809                 3.5584

                     16                     17                     18
                      A                      A                      A
 Frequencies --    493.1332               555.5240               576.5454
 Red. masses --      4.6160                 6.3410                 4.2731
 Frc consts  --      0.6614                 1.1530                 0.8369
 IR Inten    --      9.3948                 2.3710                 6.0138

                     19                     20                     21
                      A                      A                      A
 Frequencies --    583.2316               593.2465               617.9666
 Red. masses --      4.8016                 3.5479                 4.8144
 Frc consts  --      0.9623                 0.7357                 1.0832
 IR Inten    --     12.2301                 1.5402                 5.1534

                     22                     23                     24
                      A                      A                      A
 Frequencies --    653.1867               655.9981               721.3239
 Red. masses --      5.3729                 3.0178                 5.4660
 Frc consts  --      1.3506                 0.7651                 1.6756
 IR Inten    --      3.7510                10.5563                 3.4969

                     25                     26                     27
                      A                      A                      A
 Frequencies --    753.9446               770.3372               772.4172
 Red. masses --      1.2916                 3.5333                 2.4618
 Frc consts  --      0.4326                 1.2354                 0.8654
 IR Inten    --     75.3537                 2.2198                 8.0670

                     28                     29                     30
                      A                      A                      A
 Frequencies --    781.2256               816.0953               843.1792
 Red. masses --      5.0267                 1.5378                 2.1832
 Frc consts  --      1.8075                 0.6034                 0.9145
 IR Inten    --      8.3040                30.0495                17.0770

                     31                     32                     33
                      A                      A                      A
 Frequencies --    859.8520               886.0200               890.9351
 Red. masses --      1.4916                 4.1649                 1.9116
 Frc consts  --      0.6497                 1.9264                 0.8940
 IR Inten    --      1.1831                 0.5763                 5.9388

                     34                     35                     36
                      A                      A                      A
 Frequencies --    910.1227               948.2638               949.9776
 Red. masses --      6.8722                 1.3685                 3.3622
 Frc consts  --      3.3539                 0.7250                 1.7877
 IR Inten    --      4.9431                 0.6884                 5.8733

                     37                     38                     39
                      A                      A                      A
 Frequencies --    986.2082              1005.1007              1040.8515
 Red. masses --      1.2845                 1.2802                 2.1781
 Frc consts  --      0.7361                 0.7620                 1.3903
 IR Inten    --      0.0945                 0.3534                 6.5124

                     40                     41                     42
                      A                      A                      A
 Frequencies --   1112.9120              1136.1842              1139.0306
 Red. masses --      3.1850                 1.6384                 2.5984
 Frc consts  --      2.3243                 1.2461                 1.9862
 IR Inten    --     13.0209                71.1676                32.1156

                     43                     44                     45
                      A                      A                      A
 Frequencies --   1162.9006              1179.9779              1192.9537
 Red. masses --      1.4565                 1.2114                 1.3068
 Frc consts  --      1.1605                 0.9937                 1.0957
 IR Inten    --     17.5034                 2.5111                82.3964

                     46                     47                     48
                      A                      A                      A
 Frequencies --   1250.4335              1259.0588              1284.7444
 Red. masses --      2.0224                 3.2207                 2.2468
 Frc consts  --      1.8631                 3.0081                 2.1849
 IR Inten    --     48.4388               209.5428                12.4873

                     49                     50                     51
                      A                      A                      A
 Frequencies --   1304.8411              1336.0385              1365.7881
 Red. masses --      1.6981                 2.6510                 4.2517
 Frc consts  --      1.7034                 2.7881                 4.6729
 IR Inten    --      5.2958                 1.7001                 3.9306

                     52                     53                     54
                      A                      A                      A
 Frequencies --   1378.1329              1428.4619              1449.6324
 Red. masses --      2.8584                 1.9924                 2.5925
 Frc consts  --      3.1986                 2.3953                 3.2099
 IR Inten    --      2.9723                 4.5484               180.9410

                     55                     56                     57
                      A                      A                      A
 Frequencies --   1485.4520              1523.0973              1545.6357
 Red. masses --      2.4462                 2.8748                 4.1910
 Frc consts  --      3.1802                 3.9292                 5.8990
 IR Inten    --     23.4260                23.8499               141.8759

                     58                     59                     60
                      A                      A                      A
 Frequencies --   1595.9077              1614.1135              1656.8038
 Red. masses --      7.6514                 5.8243                 6.1734
 Frc consts  --     11.4818                 8.9405                 9.9843
 IR Inten    --    302.7422                12.5037                10.8513

                     61                     62                     63
                      A                      A                      A
 Frequencies --   1672.5901              1713.9067              1758.3507
 Red. masses --      6.3804                12.1944                12.0197
 Frc consts  --     10.5167                21.1050                21.8954
 IR Inten    --     71.1714               423.5543               109.9717

                     64                     65                     66
                      A                      A                      A
 Frequencies --   3168.4920              3170.4105              3177.6622
 Red. masses --      1.0866                 1.0860                 1.0903
 Frc consts  --      6.4271                 6.4314                 6.4863
 IR Inten    --      0.8105                 3.0705                 9.9691

                     67                     68                     69
                      A                      A                      A
 Frequencies --   3189.6929              3190.8417              3203.4489
 Red. masses --      1.0970                 1.0950                 1.0936
 Frc consts  --      6.5759                 6.5687                 6.6122
 IR Inten    --      9.9675                15.8179                 2.1894

                     70                     71                     72
                      A                      A                      A
 Frequencies --   3215.6397              3254.4166              3662.1036
 Red. masses --      1.0906                 1.0963                 1.0806
 Frc consts  --      6.6441                 6.8409                 8.5383
 IR Inten    --      2.0045                 0.1719               136.7541

 - Thermochemistry -
 -------------------
 Temperature   298.150 Kelvin.  Pressure   1.00000 Atm.
 Atom     1 has atomic number  6 and mass  12.00000

 Molecular mass:   223.06333 amu.
 Principal axes and moments of inertia in atomic units:
                           1         2         3
     Eigenvalues --  1532.484286926.705048329.83725
           X           -0.62245   0.77702  -0.09379
           Y            0.77759   0.62758   0.03876
           Z           -0.08898   0.04881   0.99484
 This molecule is an asymmetric top.
 Rotational symmetry number  1.
 Warning -- assumption of classical behavior for rotation
           may cause significant error
 Rotational temperatures (Kelvin)      0.05652     0.01250     0.01040
 Rotational constants (GHZ):           1.17766     0.26055     0.21666
 Zero-point vibrational energy     510762.4 (Joules/Mol)
                                  122.07514 (Kcal/Mol)
 Warning -- explicit consideration of  21 degrees of freedom as
           vibrations may cause significant error
 Vibrational temperatures:     51.18    79.99   118.27   128.35   252.24
          (Kelvin)            316.75   348.83   372.94   425.25   491.71
                              505.22   615.95   643.47   655.47   675.33
                              709.51   799.28   829.52   839.14   853.55
                              889.12   939.79   943.83  1037.82  1084.76
                             1108.34  1111.34  1124.01  1174.18  1213.15
                             1237.14  1274.79  1281.86  1309.46  1364.34
                             1366.81  1418.93  1446.12  1497.55  1601.23
                             1634.72  1638.81  1673.15  1697.72  1716.39
                             1799.09  1811.50  1848.46  1877.38  1922.26
                             1965.06  1982.83  2055.24  2085.70  2137.23
                             2191.40  2223.82  2296.16  2322.35  2383.77
                             2406.48  2465.93  2529.87  4558.75  4561.51
                             4571.95  4589.26  4590.91  4609.05  4626.59
                             4682.38  5268.95

 Zero-point correction=                           0.194539 (Hartree/Particle)
 Thermal correction to Energy=                    0.207494
 Thermal correction to Enthalpy=                  0.208438
 Thermal correction to Gibbs Free Energy=         0.154081
 Sum of electronic and zero-point Energies=           -744.076759
 Sum of electronic and thermal Energies=              -744.063804
 Sum of electronic and thermal Enthalpies=            -744.062860
 Sum of electronic and thermal Free Energies=         -744.117217

                     E (Thermal)             CV                S
                      KCal/Mol        Cal/Mol-Kelvin    Cal/Mol-Kelvin
 Total                  130.204             51.689            114.405
 Electronic               0.000              0.000              0.000
 Translational            0.889              2.981             42.109
 Rotational               0.889              2.981             32.847
 Vibrational            128.427             45.727             39.448
 Vibration     1          0.594              1.982              5.492
 Vibration     2          0.596              1.975              4.608
 Vibration     3          0.600              1.961              3.838
 Vibration     4          0.602              1.957              3.677
 Vibration     5          0.627              1.873              2.378
 Vibration     6          0.647              1.810              1.958
 Vibration     7          0.659              1.775              1.785
 Vibration     8          0.668              1.747              1.667
 Vibration     9          0.690              1.682              1.442
 Vibration    10          0.721              1.592              1.204
 Vibration    11          0.728              1.573              1.161
 Vibration    12          0.790              1.409              0.865
 Vibration    13          0.806              1.367              0.804
 Vibration    14          0.814              1.349              0.779
 Vibration    15          0.826              1.318              0.739
 Vibration    16          0.849              1.265              0.676
 Vibration    17          0.911              1.128              0.533
 Vibration    18          0.933              1.082              0.492
 Vibration    19          0.940              1.068              0.479
 Vibration    20          0.951              1.046              0.461
 Vibration    21          0.978              0.994              0.420

                           ! Non-Optimized Parameters !
 Normal termination of Gaussian 16 at Tue Jan  9 20:56:56 2024.
