 Q-Chem 5.4, Q-Chem, Inc., Pleasanton, CA (2021)
 Q-Chem 5.4.0 for Intel X86 EM64T Linux

User input:
--------------------------------------------------------------
$molecule
-2 1
C                  4.9781580000     -2.0291060000      0.5191700000
C                  5.7402030000     -1.3225570000     -0.4121790000
C                  5.1079290000     -0.6126770000     -1.4839930000
C                  3.5848740000     -2.0405390000      0.4433760000
C                  2.9211960000     -1.3250180000     -0.6285330000
C                  3.7413060000     -0.6264860000     -1.5631730000
C                  2.8380290000     -2.7871770000      1.4619160000
C                  1.3816420000     -2.7525740000      1.2877760000
C                  0.7524370000     -2.0259780000      0.2025530000
C                  1.4892590000     -1.2877430000     -0.7928080000
C                  0.5885900000     -3.4474660000      2.2016780000
C                 -0.6716020000     -2.0530050000      0.1279260000
C                 -1.4478360000     -2.7317220000      1.0284260000
O                  3.3978210000     -3.4066790000      2.4001090000
O                  0.9177970000     -0.6514910000     -1.7475900000
H                  5.4462560000     -2.5755160000      1.3292870000
S                  7.4651080000     -1.3913410000     -0.3407540000
H                 -2.5288740000     -2.7294990000      0.9635540000
H                  3.2206220000     -0.0928510000     -2.3507770000
H                  1.0869930000     -3.9838300000      3.0003510000
H                 -1.1182480000     -1.4956760000     -0.6882190000
C                 -0.8028200000     -3.4370590000      2.0956820000
S                 -1.7551970000     -4.3700770000      3.1944780000
O                 -1.0602380000     -4.6764580000      4.4516890000
O                 -3.1419820000     -3.8811620000      3.2749910000
O                 -1.8719400000     -5.8627450000      2.3759240000
C                 -2.6349980000     -6.8609590000      3.0522950000
H                 -2.1922900000     -7.1029920000      4.0242920000
H                 -2.6098500000     -7.7445130000      2.4101420000
H                 -3.6725490000     -6.5376670000      3.1904780000
H                  5.7137060000     -0.0648000000     -2.1951510000
O                  7.9784250000     -1.7585550000      0.9855140000
O                  8.0916170000     -0.2510740000     -1.0307010000
O                  7.8027200000     -2.7351080000     -1.3362090000
C                  9.1890150000     -3.0373630000     -1.4884550000
H                  9.6480040000     -3.2751510000     -0.5229840000
H                  9.7250210000     -2.2041000000     -1.9558450000
H                  9.2354850000     -3.9132960000     -2.1397680000
$end

$rem
BASIS  =  6-311++G(d,p)
GUI  =  2
JOB_TYPE  =  SP
METHOD  =  B3LYP
SCF_CONVERGENCE  = 8
SOLVENT_METHOD = sm12
$end

$smx
solvent dimethylformamide
charges CM5
$end

--------------------------------------------------------------

             Standard Nuclear Orientation (Angstroms)
    I     Atom           X                Y                Z
 ----------------------------------------------------------------
    1      C       4.9781580000    -2.0291060000     0.5191700000
    2      C       5.7402030000    -1.3225570000    -0.4121790000
    3      C       5.1079290000    -0.6126770000    -1.4839930000
    4      C       3.5848740000    -2.0405390000     0.4433760000
    5      C       2.9211960000    -1.3250180000    -0.6285330000
    6      C       3.7413060000    -0.6264860000    -1.5631730000
    7      C       2.8380290000    -2.7871770000     1.4619160000
    8      C       1.3816420000    -2.7525740000     1.2877760000
    9      C       0.7524370000    -2.0259780000     0.2025530000
   10      C       1.4892590000    -1.2877430000    -0.7928080000
   11      C       0.5885900000    -3.4474660000     2.2016780000
   12      C      -0.6716020000    -2.0530050000     0.1279260000
   13      C      -1.4478360000    -2.7317220000     1.0284260000
   14      O       3.3978210000    -3.4066790000     2.4001090000
   15      O       0.9177970000    -0.6514910000    -1.7475900000
   16      H       5.4462560000    -2.5755160000     1.3292870000
   17      S       7.4651080000    -1.3913410000    -0.3407540000
   18      H      -2.5288740000    -2.7294990000     0.9635540000
   19      H       3.2206220000    -0.0928510000    -2.3507770000
   20      H       1.0869930000    -3.9838300000     3.0003510000
   21      H      -1.1182480000    -1.4956760000    -0.6882190000
   22      C      -0.8028200000    -3.4370590000     2.0956820000
   23      S      -1.7551970000    -4.3700770000     3.1944780000
   24      O      -1.0602380000    -4.6764580000     4.4516890000
   25      O      -3.1419820000    -3.8811620000     3.2749910000
   26      O      -1.8719400000    -5.8627450000     2.3759240000
   27      C      -2.6349980000    -6.8609590000     3.0522950000
   28      H      -2.1922900000    -7.1029920000     4.0242920000
   29      H      -2.6098500000    -7.7445130000     2.4101420000
   30      H      -3.6725490000    -6.5376670000     3.1904780000
   31      H       5.7137060000    -0.0648000000    -2.1951510000
   32      O       7.9784250000    -1.7585550000     0.9855140000
   33      O       8.0916170000    -0.2510740000    -1.0307010000
   34      O       7.8027200000    -2.7351080000    -1.3362090000
   35      C       9.1890150000    -3.0373630000    -1.4884550000
   36      H       9.6480040000    -3.2751510000    -0.5229840000
   37      H       9.7250210000    -2.2041000000    -1.9558450000
   38      H       9.2354850000    -3.9132960000    -2.1397680000
 ----------------------------------------------------------------

   17   -2015.3942577046      4.66e-09  Convergence criterion met
 Total energy in the final basis set =    -2015.6385004480

                    Orbital Energies (a.u.)
 --------------------------------------------------------------

 Alpha MOs
 -- Occupied --
-89.0733 -89.0733 -19.1545 -19.1545 -19.1233 -19.1233 -19.1226 -19.1226
-19.0579 -19.0262 -10.2215 -10.2215 -10.2182 -10.2053 -10.2052 -10.1923
-10.1923 -10.1913 -10.1856 -10.1856 -10.1729 -10.1729 -10.1702 -10.1702
-10.1645 -10.1644  -8.1342  -8.1342  -6.0978  -6.0978  -6.0964  -6.0964
 -6.0946  -6.0946  -1.1334  -1.1334  -1.0238  -1.0238  -1.0102  -1.0101
 -0.9855  -0.9481  -0.8662  -0.8640  -0.7995  -0.7762  -0.7635  -0.7563
 -0.7265  -0.7121  -0.6773  -0.6573  -0.6543  -0.6083  -0.6049  -0.5873
 -0.5607  -0.5499  -0.5495  -0.5163  -0.5152  -0.5005  -0.4901  -0.4813
 -0.4760  -0.4639  -0.4599  -0.4488  -0.4478  -0.4454  -0.4436  -0.4356
 -0.4330  -0.4174  -0.4142  -0.4094  -0.4012  -0.3948  -0.3931  -0.3755
 -0.3746  -0.3691  -0.3519  -0.3489  -0.3444  -0.3381  -0.3380  -0.3367
 -0.3348  -0.3280  -0.3187  -0.3185  -0.3163  -0.3134  -0.2865  -0.2865
 -0.2681  -0.2584  -0.2530  -0.2466  -0.2290  -0.2061  -0.1299

          Ground-State Mulliken Net Atomic Charges

     Atom                 Charge (a.u.)
  ----------------------------------------
      1 C                     0.219272
      2 C                     0.819870
      3 C                     0.746772
      4 C                    -0.623395
      5 C                    -1.854361
      6 C                    -0.286240
      7 C                    -1.609321
      8 C                    -0.619588
      9 C                    -1.858782
     10 C                    -2.727150
     11 C                     0.220151
     12 C                    -0.286341
     13 C                     0.751354
     14 O                    -0.302621
     15 O                    -0.400198
     16 H                     0.120520
     17 S                     1.427637
     18 H                     0.314168
     19 H                     0.148583
     20 H                     0.120354
     21 H                     0.148617
     22 C                     0.814711
     23 S                     1.426299
     24 O                    -0.141905
     25 O                    -0.085786
     26 O                    -0.064054
     27 C                     0.153693
     28 H                     0.170556
     29 H                     0.274183
     30 H                     0.181631
     31 H                     0.313476
     32 O                    -0.141572
     33 O                    -0.086441
     34 O                    -0.064141
     35 C                     0.153281
     36 H                     0.170994
     37 H                     0.181622
     38 H                     0.274152
  ----------------------------------------
  Sum of atomic charges =    -2.000000

                    Cartesian Multipole Moments
 -----------------------------------------------------------------
    Charge (ESU x 10^10)
                -9.6064
    Dipole Moment (Debye)
         X     -22.1958      Y      18.6517      Z      -7.6915
       Tot      29.9950
    Quadrupole Moments (Debye-Ang)
        XX    -326.4985     XY      22.8840     YY    -225.4326
        XZ      -3.6465     YZ      44.7829     ZZ    -231.1888

 Total job time:  1582.99s(wall), 12286.16s(cpu)
        *  Thank you very much for using Q-Chem.  Have a nice day.  *
