 Q-Chem 5.4, Q-Chem, Inc., Pleasanton, CA (2021)
 Q-Chem 5.4.0 for Intel X86 EM64T Linux

User input:
--------------------------------------------------------------
$molecule
-2 1
C                 -1.7295550000      4.5819700000      5.3847550000
C                 -3.0427970000      4.1653070000      5.4742140000
C                 -3.6014240000      3.3648020000      4.4491340000
C                 -0.9156230000      4.2202700000      4.2822780000
C                 -1.4792060000      3.4056260000      3.2412040000
C                 -2.8238550000      3.0048800000      3.3600030000
C                  0.4414480000      4.6686820000      4.1847020000
C                  1.1650010000      4.2155970000      3.0398340000
C                  0.6801330000      3.3724060000      2.0322150000
C                 -0.7099140000      2.9902720000      2.0580300000
O                  1.0553600000      5.4382890000      5.0259270000
O                 -1.2937020000      2.3421120000      1.1204690000
O                  2.4457050000      4.7036260000      2.9977220000
H                 -1.2794090000      5.2004270000      6.1543610000
H                 -3.6490380000      4.4528830000      6.3303210000
H                 -4.6351360000      3.0354010000      4.5163520000
H                 -3.2259060000      2.3974460000      2.5562850000
H                  2.4567710000      5.2370310000      3.8309360000
C                  2.9382850000      2.3551810000      1.2952600000
C                  3.0399110000      1.5793940000      2.4513640000
C                  4.0617510000      2.4556600000      0.4668560000
C                  5.2502780000      1.7981720000      0.7771330000
C                  5.3379800000      1.0217160000      1.9340030000
C                  4.2262010000      0.9182270000      2.7691830000
H                  2.1815770000      1.5125810000      3.1100050000
H                  3.9909230000      3.0542460000     -0.4360380000
H                  6.1099580000      1.8936730000      0.1196000000
H                  4.2832170000      0.3252090000      3.6771970000
H                  6.2632070000      0.5108630000      2.1839770000
C                  1.6420040000      3.0575840000      0.8754540000
H                  1.9679990000      4.0327780000      0.4869510000
N                  1.0660780000      2.3487340000     -0.3027040000
C                  0.9651370000      0.8875260000     -0.1856130000
C                  0.2332920000      0.3221810000     -1.4044240000
C                  0.1488380000     -1.2085710000     -1.4066580000
C                 -0.5547690000     -1.7840930000     -2.6423710000
C                 -0.6186330000     -3.3164500000     -2.6673990000
C                 -1.2957870000     -3.8897300000     -3.9187160000
C                 -1.3411610000     -5.4224320000     -3.9558820000
C                 -1.9986670000     -5.9942320000     -5.2181960000
C                 -2.0313840000     -7.5271990000     -5.2608030000
C                 -2.6776200000     -8.0979150000     -6.5292670000
C                 -2.7029210000     -9.6311720000     -6.5731580000
C                 -3.3447550000    -10.1991910000     -7.8423460000
H                  0.0949400000      2.6612910000     -0.3338000000
H                  0.4233030000      0.5844910000      0.7221610000
H                  1.9723430000      0.4601880000     -0.1402630000
H                  0.7445780000      0.6668550000     -2.3128050000
H                 -0.7787600000      0.7436690000     -1.4280780000
H                 -0.3757240000     -1.5436040000     -0.5029000000
H                  1.1624000000     -1.6286210000     -1.3447750000
H                 -0.0387750000     -1.4321380000     -3.5461270000
H                 -1.5732850000     -1.3782010000     -2.6984560000
H                 -1.1491380000     -3.6708460000     -1.7738230000
H                  0.4001910000     -3.7202100000     -2.5935650000
H                 -0.7700080000     -3.5243820000     -4.8111140000
H                 -2.3183890000     -3.4959760000     -3.9888430000
H                 -1.8771710000     -5.7899190000     -3.0708270000
H                 -0.3186650000     -5.8147070000     -3.8740160000
H                 -1.4655390000     -5.6211120000     -6.1027830000
H                 -3.0235710000     -5.6085850000     -5.2989080000
H                 -2.5704060000     -7.9019250000     -4.3805800000
H                 -1.0065210000     -7.9120630000     -5.1742850000
H                 -2.1409380000     -7.7224580000     -7.4104170000
H                 -3.7041230000     -7.7185360000     -6.6169100000
H                 -3.2407220000    -10.0081190000     -5.6938700000
H                 -1.6770170000    -10.0108730000     -6.4841420000
H                 -4.3861990000     -9.8734040000     -7.9446050000
H                 -3.3447440000    -11.2946100000     -7.8393780000
H                 -2.8072770000     -9.8761950000     -8.7412670000
$end
$rem
MAX_SCF_CYCLES=200
BASIS  =  6-311++G(d,p)
GUI  =  2
JOB_TYPE  =  SP
METHOD  =  B3LYP
SCF_ALGORITHM = RCA_DIIS
SCF_CONVERGENCE = 8
scf_guess = GWH
THRESH = 14
SOLVENT_METHOD = PCM
$end
$pcm
theory = CPCM
$end
$solvent
dielectric 37.219
opticaldielectric 1.43
$end

--------------------------------------------------------------

             Standard Nuclear Orientation (Angstroms)
    I     Atom           X                Y                Z
 ----------------------------------------------------------------
    1      C      -1.7295550000     4.5819700000     5.3847550000
    2      C      -3.0427970000     4.1653070000     5.4742140000
    3      C      -3.6014240000     3.3648020000     4.4491340000
    4      C      -0.9156230000     4.2202700000     4.2822780000
    5      C      -1.4792060000     3.4056260000     3.2412040000
    6      C      -2.8238550000     3.0048800000     3.3600030000
    7      C       0.4414480000     4.6686820000     4.1847020000
    8      C       1.1650010000     4.2155970000     3.0398340000
    9      C       0.6801330000     3.3724060000     2.0322150000
   10      C      -0.7099140000     2.9902720000     2.0580300000
   11      O       1.0553600000     5.4382890000     5.0259270000
   12      O      -1.2937020000     2.3421120000     1.1204690000
   13      O       2.4457050000     4.7036260000     2.9977220000
   14      H      -1.2794090000     5.2004270000     6.1543610000
   15      H      -3.6490380000     4.4528830000     6.3303210000
   16      H      -4.6351360000     3.0354010000     4.5163520000
   17      H      -3.2259060000     2.3974460000     2.5562850000
   18      H       2.4567710000     5.2370310000     3.8309360000
   19      C       2.9382850000     2.3551810000     1.2952600000
   20      C       3.0399110000     1.5793940000     2.4513640000
   21      C       4.0617510000     2.4556600000     0.4668560000
   22      C       5.2502780000     1.7981720000     0.7771330000
   23      C       5.3379800000     1.0217160000     1.9340030000
   24      C       4.2262010000     0.9182270000     2.7691830000
   25      H       2.1815770000     1.5125810000     3.1100050000
   26      H       3.9909230000     3.0542460000    -0.4360380000
   27      H       6.1099580000     1.8936730000     0.1196000000
   28      H       4.2832170000     0.3252090000     3.6771970000
   29      H       6.2632070000     0.5108630000     2.1839770000
   30      C       1.6420040000     3.0575840000     0.8754540000
   31      H       1.9679990000     4.0327780000     0.4869510000
   32      N       1.0660780000     2.3487340000    -0.3027040000
   33      C       0.9651370000     0.8875260000    -0.1856130000
   34      C       0.2332920000     0.3221810000    -1.4044240000
   35      C       0.1488380000    -1.2085710000    -1.4066580000
   36      C      -0.5547690000    -1.7840930000    -2.6423710000
   37      C      -0.6186330000    -3.3164500000    -2.6673990000
   38      C      -1.2957870000    -3.8897300000    -3.9187160000
   39      C      -1.3411610000    -5.4224320000    -3.9558820000
   40      C      -1.9986670000    -5.9942320000    -5.2181960000
   41      C      -2.0313840000    -7.5271990000    -5.2608030000
   42      C      -2.6776200000    -8.0979150000    -6.5292670000
   43      C      -2.7029210000    -9.6311720000    -6.5731580000
   44      C      -3.3447550000   -10.1991910000    -7.8423460000
   45      H       0.0949400000     2.6612910000    -0.3338000000
   46      H       0.4233030000     0.5844910000     0.7221610000
   47      H       1.9723430000     0.4601880000    -0.1402630000
   48      H       0.7445780000     0.6668550000    -2.3128050000
   49      H      -0.7787600000     0.7436690000    -1.4280780000
   50      H      -0.3757240000    -1.5436040000    -0.5029000000
   51      H       1.1624000000    -1.6286210000    -1.3447750000
   52      H      -0.0387750000    -1.4321380000    -3.5461270000
   53      H      -1.5732850000    -1.3782010000    -2.6984560000
   54      H      -1.1491380000    -3.6708460000    -1.7738230000
   55      H       0.4001910000    -3.7202100000    -2.5935650000
   56      H      -0.7700080000    -3.5243820000    -4.8111140000
   57      H      -2.3183890000    -3.4959760000    -3.9888430000
   58      H      -1.8771710000    -5.7899190000    -3.0708270000
   59      H      -0.3186650000    -5.8147070000    -3.8740160000
   60      H      -1.4655390000    -5.6211120000    -6.1027830000
   61      H      -3.0235710000    -5.6085850000    -5.2989080000
   62      H      -2.5704060000    -7.9019250000    -4.3805800000
   63      H      -1.0065210000    -7.9120630000    -5.1742850000
   64      H      -2.1409380000    -7.7224580000    -7.4104170000
   65      H      -3.7041230000    -7.7185360000    -6.6169100000
   66      H      -3.2407220000   -10.0081190000    -5.6938700000
   67      H      -1.6770170000   -10.0108730000    -6.4841420000
   68      H      -4.3861990000    -9.8734040000    -7.9446050000
   69      H      -3.3447440000   -11.2946100000    -7.8393780000
   70      H      -2.8072770000    -9.8761950000    -8.7412670000
 ----------------------------------------------------------------

   92   -1408.4481620498      4.33E-09 Convergence criterion met
 Total energy in the final basis set = -1408.44816205

                    Orbital Energies (a.u.)
 --------------------------------------------------------------

 Alpha MOs
 -- Occupied --
-19.1113 -19.0282 -19.0184 -14.2727 -10.1871 -10.1789 -10.1766 -10.1692
-10.1675 -10.1667 -10.1661 -10.1644 -10.1627 -10.1621 -10.1605 -10.1570
-10.1542 -10.1540 -10.1537 -10.1534 -10.1531 -10.1526 -10.1521 -10.1516
-10.1509 -10.1486 -10.1477 -10.1446 -10.1445 -10.1435 -10.1370 -10.1330
-10.1297  -1.0283  -0.9446  -0.9359  -0.8847  -0.8463  -0.8255  -0.8063
 -0.7942  -0.7784  -0.7682  -0.7513  -0.7420  -0.7384  -0.7221  -0.7163
 -0.7058  -0.6779  -0.6527  -0.6332  -0.6239  -0.6006  -0.5975  -0.5885
 -0.5773  -0.5715  -0.5708  -0.5654  -0.5634  -0.5538  -0.5355  -0.5059
 -0.5009  -0.4824  -0.4787  -0.4693  -0.4577  -0.4555  -0.4501  -0.4432
 -0.4402  -0.4321  -0.4272  -0.4260  -0.4222  -0.4192  -0.4136  -0.4112
 -0.4084  -0.4012  -0.3983  -0.3949  -0.3872  -0.3831  -0.3782  -0.3730
 -0.3681  -0.3664  -0.3604  -0.3576  -0.3548  -0.3536  -0.3482  -0.3434
 -0.3393  -0.3357  -0.3323  -0.3284  -0.3247  -0.3208  -0.3193  -0.3180
 -0.3171  -0.3150  -0.3140  -0.3130  -0.3125  -0.3112  -0.3034  -0.2999
 -0.2885  -0.2499  -0.2409  -0.2311  -0.2270  -0.2232  -0.2167  -0.1947
 -0.1881  -0.1093

          Ground-State Mulliken Net Atomic Charges

     Atom                 Charge (a.u.)
  ----------------------------------------
      1 C                    -0.151495
      2 C                    -0.476431
      3 C                    -0.616728
      4 C                     0.049862
      5 C                     0.486517
      6 C                    -0.073646
      7 C                    -0.766227
      8 C                    -0.445528
      9 C                     0.907591
     10 C                    -0.556843
     11 O                    -0.745336
     12 O                    -0.628282
     13 O                    -0.312191
     14 H                     0.160336
     15 H                     0.167538
     16 H                     0.168085
     17 H                     0.157835
     18 H                     0.297955
     19 C                     0.079948
     20 C                    -0.202288
     21 C                     0.138787
     22 C                    -0.320666
     23 C                    -0.449243
     24 C                    -0.301365
     25 H                     0.167853
     26 H                     0.182995
     27 H                     0.214199
     28 H                     0.215602
     29 H                     0.183889
     30 C                     0.292059
     31 H                     0.216821
     32 N                     0.009407
     33 C                    -0.713122
     34 C                    -0.239488
     35 C                    -0.056477
     36 C                    -0.229542
     37 C                    -0.446136
     38 C                    -0.361447
     39 C                    -0.227457
     40 C                    -0.065852
     41 C                    -0.123666
     42 C                    -0.287442
     43 C                    -0.236213
     44 C                    -0.709067
     45 H                     0.271837
     46 H                     0.191954
     47 H                     0.085963
     48 H                     0.145697
     49 H                     0.144497
     50 H                     0.122299
     51 H                     0.132117
     52 H                     0.118556
     53 H                     0.133167
     54 H                     0.137616
     55 H                     0.134692
     56 H                     0.134710
     57 H                     0.137119
     58 H                     0.133744
     59 H                     0.132136
     60 H                     0.131503
     61 H                     0.132840
     62 H                     0.130509
     63 H                     0.129824
     64 H                     0.126688
     65 H                     0.128212
     66 H                     0.135476
     67 H                     0.135211
     68 H                     0.144708
     69 H                     0.148995
     70 H                     0.144826
  ----------------------------------------
  Sum of atomic charges =    -2.000000

                    Cartesian Multipole Moments
 -----------------------------------------------------------------
    Charge (ESU x 10^10)
                -9.6064
    Dipole Moment (Debye)
         X      -0.1903      Y     -36.5668      Z     -28.1422
       Tot      46.1427
    Quadrupole Moments (Debye-Ang)
        XX    -238.4974     XY     -11.1466     YY    -373.1497
        XZ      -4.8743     YZ    -133.2202     ZZ    -337.3423

 Total job time:  7383.83s(wall), 44748.67s(cpu)
        *  Thank you very much for using Q-Chem.  Have a nice day.  *
