 Gaussian 16, Revision A.03,
 Gaussian 16:  ES64L-G16RevA.03 25-Dec-2016

 ----------------------------------------------------------------
 #P UB3LYP/6-311++G(d,p) SCRF=(PCM,Solvent=n,n-DiMethylFormamide)
 ----------------------------------------------------------------

 ------------------
 Quinone PCM in DMF
 ------------------
 Symbolic Z-matrix:
 Charge =  0 Multiplicity = 1

                         Standard orientation:
 ---------------------------------------------------------------------
 Center     Atomic      Atomic             Coordinates (Angstroms)
 Number     Number       Type             X           Y           Z
 ---------------------------------------------------------------------
      1          6           0        0.210473    2.915949    0.048113
      2          6           0        1.363423    2.115189   -0.357495
      3          6           0        1.256590    0.782035   -0.553822
      4          6           0       -1.150418    2.165582    0.236014
      5          6           0       -1.180364    0.698027   -0.014548
      6          6           0       -0.030482    0.092138   -0.377829
      7          8           0       -2.134247    2.786581    0.573214
      8          8           0        0.259826    4.113387    0.242140
      9          6           0       -2.510886    0.014200    0.160096
     10          6           0       -2.545427   -1.492501   -0.101212
     11          6           0       -3.942310   -2.092985    0.099982
     12          6           0       -3.991166   -3.601092   -0.159589
     13          6           0        2.441653   -0.063476   -0.942154
     14          6           0        2.947618   -0.959113    0.207795
     15          6           0        4.132969   -1.840059   -0.202981
     16          6           0        4.648715   -2.719368    0.939562
     17          1           0        2.302209    2.642187   -0.490294
     18          1           0       -0.029445   -0.976089   -0.568459
     19          1           0       -3.236656    0.521608   -0.487474
     20          1           0       -2.865124    0.224668    1.176864
     21          1           0       -1.838798   -2.003088    0.565016
     22          1           0       -2.212266   -1.701164   -1.125582
     23          1           0       -4.652103   -1.584295   -0.562879
     24          1           0       -4.279790   -1.886373    1.122423
     25          1           0       -3.693026   -3.836711   -1.186137
     26          1           0       -4.998471   -3.997976   -0.008176
     27          1           0       -3.317585   -4.141374    0.513169
     28          1           0        3.254694    0.583885   -1.281880
     29          1           0        2.163363   -0.699856   -1.792018
     30          1           0        2.131484   -1.595429    0.570072
     31          1           0        3.236151   -0.321735    1.051430
     32          1           0        4.946001   -1.202250   -0.569598
     33          1           0        3.837058   -2.472976   -1.048305
     34          1           0        4.983991   -2.112302    1.786025
     35          1           0        5.493398   -3.333704    0.616811
     36          1           0        3.867967   -3.393915    1.304583
 ---------------------------------------------------------------------

 SCF Done:  E(UB3LYP) =  -696.170073291     A.U. after   16 cycles

 The electronic state is 1-A.
 Alpha  occ. eigenvalues --  -19.14911 -19.14177 -10.28431 -10.28054 -10.22406
 Alpha  occ. eigenvalues --  -10.20968 -10.20782 -10.18980 -10.18507 -10.18189
 Alpha  occ. eigenvalues --  -10.17530 -10.17059 -10.16874 -10.16689 -10.15864
 Alpha  occ. eigenvalues --  -10.15767  -1.08870  -1.06199  -0.87565  -0.82411
 Alpha  occ. eigenvalues --   -0.80140  -0.77947  -0.74832  -0.72543  -0.70090
 Alpha  occ. eigenvalues --   -0.65841  -0.64374  -0.60073  -0.59090  -0.58518
 Alpha  occ. eigenvalues --   -0.57538  -0.52630  -0.50744  -0.48286  -0.47738
 Alpha  occ. eigenvalues --   -0.47326  -0.45873  -0.45381  -0.44839  -0.43803
 Alpha  occ. eigenvalues --   -0.42953  -0.42575  -0.42046  -0.41673  -0.39960
 Alpha  occ. eigenvalues --   -0.39740  -0.38776  -0.37570  -0.36399  -0.35823
 Alpha  occ. eigenvalues --   -0.35384  -0.34250  -0.33955  -0.33638  -0.33259
 Alpha  occ. eigenvalues --   -0.33052  -0.32334  -0.31559  -0.26366  -0.25812
 Alpha virt. eigenvalues --   -0.13700  -0.01304  -0.01135  -0.00720  -0.00049
 Alpha virt. eigenvalues --    0.00366   0.00948   0.01350   0.01559   0.02201
 Alpha virt. eigenvalues --    0.02722   0.03408   0.03649   0.04013   0.04314

  Beta  occ. eigenvalues --  -19.14911 -19.14177 -10.28431 -10.28054 -10.22406
  Beta  occ. eigenvalues --  -10.20968 -10.20782 -10.18980 -10.18507 -10.18189
  Beta  occ. eigenvalues --  -10.17530 -10.17059 -10.16874 -10.16689 -10.15864
  Beta  occ. eigenvalues --  -10.15767  -1.08870  -1.06199  -0.87565  -0.82411
  Beta  occ. eigenvalues --   -0.80140  -0.77947  -0.74832  -0.72543  -0.70090
  Beta  occ. eigenvalues --   -0.65841  -0.64374  -0.60073  -0.59090  -0.58518
  Beta  occ. eigenvalues --   -0.57538  -0.52630  -0.50744  -0.48286  -0.47738
  Beta  occ. eigenvalues --   -0.47326  -0.45873  -0.45381  -0.44839  -0.43803
  Beta  occ. eigenvalues --   -0.42953  -0.42575  -0.42046  -0.41673  -0.39960
  Beta  occ. eigenvalues --   -0.39740  -0.38776  -0.37570  -0.36399  -0.35823
  Beta  occ. eigenvalues --   -0.35384  -0.34250  -0.33955  -0.33638  -0.33259
  Beta  occ. eigenvalues --   -0.33052  -0.32334  -0.31559  -0.26366  -0.25812
  Beta virt. eigenvalues --   -0.13700  -0.01304  -0.01135  -0.00720  -0.00049
  Beta virt. eigenvalues --    0.00366   0.00948   0.01350   0.01559   0.02201
  Beta virt. eigenvalues --    0.02722   0.03408   0.03649   0.04013   0.04314

 Mulliken charges and spin densities:
               1          2
     1  C   -0.357572  -0.000000
     2  C   -0.118484  -0.000000
     3  C    0.576034   0.000000
     4  C   -0.176798   0.000000
     5  C    1.530177   0.000000
     6  C   -1.046774  -0.000000
     7  O   -0.251234  -0.000000
     8  O   -0.301664   0.000000
     9  C   -0.007090   0.000000
    10  C   -0.105320  -0.000000
    11  C   -0.286828   0.000000
    12  C   -0.634361  -0.000000
    13  C   -0.769125  -0.000000
    14  C   -0.285648  -0.000000
    15  C   -0.202121   0.000000
    16  C   -0.646033   0.000000
    17  H    0.220097  -0.000000
    18  H    0.193776  -0.000000
    19  H    0.203383   0.000000
    20  H    0.202639  -0.000000
    21  H    0.115976   0.000000
    22  H    0.120261   0.000000
    23  H    0.140019   0.000000
    24  H    0.137077   0.000000
    25  H    0.142002   0.000000
    26  H    0.152375   0.000000
    27  H    0.141745   0.000000
    28  H    0.200268   0.000000
    29  H    0.174458   0.000000
    30  H    0.090131   0.000000
    31  H    0.145846   0.000000
    32  H    0.130812  -0.000000
    33  H    0.137420  -0.000000
    34  H    0.144001  -0.000000
    35  H    0.146808   0.000000
    36  H    0.143745  -0.000000
 Sum of Mulliken charges =  -0.00000   0.00000

 Dipole moment (field-independent basis, Debye):
    X=              3.0560    Y=             -8.1451    Z=             -1.8847  Tot=              8.9013
 Quadrupole moment (field-independent basis, Debye-Ang):
   XX=            -94.4504   YY=           -131.2610   ZZ=            -98.6122
   XY=              8.1770   XZ=              0.2812   YZ=             -4.2654

 Normal termination of Gaussian 16 at Sat Jan 13 19:18:41 2024.
