 Q-Chem 5.4, Q-Chem, Inc., Pleasanton, CA (2021)
 Q-Chem 5.4.0 for Intel X86 EM64T Linux

User input:
--------------------------------------------------------------
$molecule
-2 1
C                 -1.6459860000      2.8552810000     -0.7337480000
C                 -2.8654560000      2.2053460000     -0.7183890000
C                 -2.9061990000      0.8007410000     -0.5040240000
C                 -0.4171340000      2.1819040000     -0.5228040000
C                 -0.4677890000      0.7560740000     -0.2477830000
C                 -1.7304370000      0.1096610000     -0.2756920000
C                  0.8257990000      2.9440520000     -0.5997960000
C                  2.0910800000      2.1805060000     -0.3870950000
C                  1.9547060000      0.7795750000     -0.0920660000
C                  0.7564590000      0.0734050000     -0.0083800000
O                  0.8280490000      4.1875300000     -0.8375700000
O                  3.2319460000      2.7355710000     -0.4483840000
H                 -1.5810350000      3.9235500000     -0.9174750000
H                 -3.7871260000      2.7600530000     -0.8859510000
H                 -3.8558440000      0.2689770000     -0.5184390000
H                 -1.7551040000     -0.9657900000     -0.1281770000
H                  2.8967680000      0.2685750000      0.0914340000
N                  0.7133290000     -1.3447420000      0.2836810000
C                  1.8513280000     -2.1245080000     -0.1642160000
C                  0.3903580000     -1.6541410000      1.6770340000
H                  2.0826790000     -1.8758740000     -1.2020360000
H                  1.6123590000     -3.1916560000     -0.1002800000
H                  2.7703110000     -1.9612880000      0.4360010000
H                 -0.4689010000     -1.0640320000      1.9956300000
H                  1.2336110000     -1.4320850000      2.3646300000
H                  0.1425080000     -2.7208730000      1.7859360000
$end
$rem
MAX_SCF_CYCLES=200
BASIS  =  6-311++G(d,p)
GUI  =  2
JOB_TYPE  =  SP
METHOD  =  B3LYP
SOLVENT_METHOD = PCM
$end
$pcm
theory = CPCM
$end
$solvent
dielectric 37.219
opticaldielectric 1.43
$end

--------------------------------------------------------------

             Standard Nuclear Orientation (Angstroms)
    I     Atom           X                Y                Z
 ----------------------------------------------------------------
    1      C      -1.6459860000     2.8552810000    -0.7337480000
    2      C      -2.8654560000     2.2053460000    -0.7183890000
    3      C      -2.9061990000     0.8007410000    -0.5040240000
    4      C      -0.4171340000     2.1819040000    -0.5228040000
    5      C      -0.4677890000     0.7560740000    -0.2477830000
    6      C      -1.7304370000     0.1096610000    -0.2756920000
    7      C       0.8257990000     2.9440520000    -0.5997960000
    8      C       2.0910800000     2.1805060000    -0.3870950000
    9      C       1.9547060000     0.7795750000    -0.0920660000
   10      C       0.7564590000     0.0734050000    -0.0083800000
   11      O       0.8280490000     4.1875300000    -0.8375700000
   12      O       3.2319460000     2.7355710000    -0.4483840000
   13      H      -1.5810350000     3.9235500000    -0.9174750000
   14      H      -3.7871260000     2.7600530000    -0.8859510000
   15      H      -3.8558440000     0.2689770000    -0.5184390000
   16      H      -1.7551040000    -0.9657900000    -0.1281770000
   17      H       2.8967680000     0.2685750000     0.0914340000
   18      N       0.7133290000    -1.3447420000     0.2836810000
   19      C       1.8513280000    -2.1245080000    -0.1642160000
   20      C       0.3903580000    -1.6541410000     1.6770340000
   21      H       2.0826790000    -1.8758740000    -1.2020360000
   22      H       1.6123590000    -3.1916560000    -0.1002800000
   23      H       2.7703110000    -1.9612880000     0.4360010000
   24      H      -0.4689010000    -1.0640320000     1.9956300000
   25      H       1.2336110000    -1.4320850000     2.3646300000
   26      H       0.1425080000    -2.7208730000     1.7859360000
 ----------------------------------------------------------------

    9    -669.5114071535      6.97e-06  Convergence criterion met
 Total energy in the final basis set =     -669.5114071535

                    Orbital Energies (a.u.)
 --------------------------------------------------------------

 Alpha MOs
 -- Occupied --
-19.0209 -19.0206 -14.2932 -10.1731 -10.1720 -10.1664 -10.1655 -10.1575
-10.1455 -10.1439 -10.1433 -10.1405 -10.1388 -10.1307 -10.1212  -0.9551
 -0.9281  -0.9080  -0.8228  -0.7608  -0.7220  -0.6962  -0.6841  -0.6565
 -0.6017  -0.5816  -0.5562  -0.5259  -0.4808  -0.4678  -0.4596  -0.4396
 -0.4287  -0.4152  -0.4027  -0.3934  -0.3819  -0.3747  -0.3696  -0.3678
 -0.3586  -0.3518  -0.3446  -0.3301  -0.3203  -0.3018  -0.2937  -0.2689
 -0.2270  -0.2181  -0.2064  -0.1855  -0.1830  -0.1094

          Ground-State Mulliken Net Atomic Charges

     Atom                 Charge (a.u.)
  ----------------------------------------
      1 C                    -0.024814
      2 C                    -0.527056
      3 C                    -0.489781
      4 C                     0.337270
      5 C                     0.173079
      6 C                    -0.126764
      7 C                    -0.411660
      8 C                    -0.136967
      9 C                    -0.166083
     10 C                    -0.270074
     11 O                    -0.710508
     12 O                    -0.723132
     13 H                     0.146306
     14 H                     0.164156
     15 H                     0.169538
     16 H                     0.156654
     17 H                     0.133798
     18 N                     0.086412
     19 C                    -0.265946
     20 C                    -0.351658
     21 H                     0.154818
     22 H                     0.147159
     23 H                     0.114153
     24 H                     0.131272
     25 H                     0.127460
     26 H                     0.162369
  ----------------------------------------
  Sum of atomic charges =    -2.000000

                    Cartesian Multipole Moments
 -----------------------------------------------------------------
    Charge (ESU x 10^10)
                -9.6064
    Dipole Moment (Debye)
         X     -11.8985      Y     -27.2149      Z       5.8890
       Tot      30.2804
    Quadrupole Moments (Debye-Ang)
        XX    -144.6631     XY     -42.5625     YY    -190.6411
        XZ       6.0046     YZ      16.8626     ZZ    -103.4373

 Total job time:  58.62s(wall), 276.76s(cpu)
        *  Thank you very much for using Q-Chem.  Have a nice day.  *
