 Q-Chem 5.4, Q-Chem, Inc., Pleasanton, CA (2021)
 Q-Chem 5.4.0 for Intel X86 EM64T Linux

User input:
--------------------------------------------------------------
$molecule
-2 1
C                  4.2105050000     -1.3077330000      3.8868240000
C                  3.4382090000     -0.9692230000      4.9751020000
C                  2.5050380000      0.0928910000      4.9008010000
C                  4.0859060000     -0.5938260000      2.6597820000
C                  3.1394340000      0.4865000000      2.5710250000
C                  2.3758030000      0.7908720000      3.7113130000
C                  4.8926370000     -0.9471150000      1.5357230000
C                  4.6886350000     -0.1697020000      0.3536380000
C                  3.7887190000      0.8847120000      0.2227180000
C                  2.9577650000      1.2623910000      1.3369680000
O                  5.7820780000     -1.8979630000      1.4990290000
O                  2.1170800000      2.2186320000      1.2659960000
O                  5.4992230000     -0.5609240000     -0.6872610000
O                  3.4975570000     -1.6163530000      6.2128950000
C                  4.4078630000     -2.6837820000      6.3331520000
C                  3.6710360000      1.6578290000     -1.0657420000
C                  2.5621200000      1.1484660000     -2.0132870000
C                  2.4454830000      1.9901040000     -3.2917690000
C                  1.3078880000      1.6087110000     -4.2580550000
C                  1.4961530000      0.2157040000     -4.8887440000
C                  1.1386960000      2.6654960000     -5.3679340000
C                  0.0195070000      2.3179100000     -6.3592560000
C                  0.2186240000      0.9261160000     -6.9700070000
C                  0.3768630000     -0.1402550000     -5.8795840000
H                  4.9347460000     -2.1123130000      3.9037590000
H                  1.9103710000      0.3354330000      5.7756750000
H                  1.6676280000      1.6086340000      3.6221240000
H                  5.9903010000     -1.2996670000     -0.2499620000
H                  4.3103300000     -3.0587580000      7.3554630000
H                  5.4434720000     -2.3598220000      6.1626800000
H                  4.1839950000     -3.4940970000      5.6263230000
H                  4.6278180000      1.6305350000     -1.6008040000
H                  3.4450540000      2.7006330000     -0.8136970000
H                  1.6113260000      1.1716780000     -1.4691910000
H                  2.7687180000      0.1019030000     -2.2603020000
H                  3.3990000000      1.9539430000     -3.8400320000
H                  2.3072500000      3.0400030000     -2.9991060000
H                  0.3723350000      1.5865500000     -3.6782040000
H                  1.5574540000     -0.5447820000     -4.1046430000
H                  2.4624680000      0.1968100000     -5.4133240000
H                  2.0885630000      2.7602290000     -5.9139220000
H                  0.9468730000      3.6456560000     -4.9133760000
H                 -0.0463260000      3.0751680000     -7.1519970000
H                 -0.9452890000      2.3415690000     -5.8337080000
H                  1.1228020000      0.9365560000     -7.5951210000
H                 -0.6117700000      0.6772960000     -7.6432900000
H                  0.5713240000     -1.1198220000     -6.3351670000
H                 -0.5708960000     -0.2386610000     -5.3328550000
$end

$rem
BASIS  =  6-311++G(d,p)
GUI  =  2
JOB_TYPE  =  SP
METHOD  =  B3LYP
SCF_CONVERGENCE  = 8
SOLVENT_METHOD = sm12
$end

$smx
solvent dimethylformamide
charges CM5
$end

--------------------------------------------------------------

             Standard Nuclear Orientation (Angstroms)
    I     Atom           X                Y                Z
 ----------------------------------------------------------------
    1      C       4.2105050000    -1.3077330000     3.8868240000
    2      C       3.4382090000    -0.9692230000     4.9751020000
    3      C       2.5050380000     0.0928910000     4.9008010000
    4      C       4.0859060000    -0.5938260000     2.6597820000
    5      C       3.1394340000     0.4865000000     2.5710250000
    6      C       2.3758030000     0.7908720000     3.7113130000
    7      C       4.8926370000    -0.9471150000     1.5357230000
    8      C       4.6886350000    -0.1697020000     0.3536380000
    9      C       3.7887190000     0.8847120000     0.2227180000
   10      C       2.9577650000     1.2623910000     1.3369680000
   11      O       5.7820780000    -1.8979630000     1.4990290000
   12      O       2.1170800000     2.2186320000     1.2659960000
   13      O       5.4992230000    -0.5609240000    -0.6872610000
   14      O       3.4975570000    -1.6163530000     6.2128950000
   15      C       4.4078630000    -2.6837820000     6.3331520000
   16      C       3.6710360000     1.6578290000    -1.0657420000
   17      C       2.5621200000     1.1484660000    -2.0132870000
   18      C       2.4454830000     1.9901040000    -3.2917690000
   19      C       1.3078880000     1.6087110000    -4.2580550000
   20      C       1.4961530000     0.2157040000    -4.8887440000
   21      C       1.1386960000     2.6654960000    -5.3679340000
   22      C       0.0195070000     2.3179100000    -6.3592560000
   23      C       0.2186240000     0.9261160000    -6.9700070000
   24      C       0.3768630000    -0.1402550000    -5.8795840000
   25      H       4.9347460000    -2.1123130000     3.9037590000
   26      H       1.9103710000     0.3354330000     5.7756750000
   27      H       1.6676280000     1.6086340000     3.6221240000
   28      H       5.9903010000    -1.2996670000    -0.2499620000
   29      H       4.3103300000    -3.0587580000     7.3554630000
   30      H       5.4434720000    -2.3598220000     6.1626800000
   31      H       4.1839950000    -3.4940970000     5.6263230000
   32      H       4.6278180000     1.6305350000    -1.6008040000
   33      H       3.4450540000     2.7006330000    -0.8136970000
   34      H       1.6113260000     1.1716780000    -1.4691910000
   35      H       2.7687180000     0.1019030000    -2.2603020000
   36      H       3.3990000000     1.9539430000    -3.8400320000
   37      H       2.3072500000     3.0400030000    -2.9991060000
   38      H       0.3723350000     1.5865500000    -3.6782040000
   39      H       1.5574540000    -0.5447820000    -4.1046430000
   40      H       2.4624680000     0.1968100000    -5.4133240000
   41      H       2.0885630000     2.7602290000    -5.9139220000
   42      H       0.9468730000     3.6456560000    -4.9133760000
   43      H      -0.0463260000     3.0751680000    -7.1519970000
   44      H      -0.9452890000     2.3415690000    -5.8337080000
   45      H       1.1228020000     0.9365560000    -7.5951210000
   46      H      -0.6117700000     0.6772960000    -7.6432900000
   47      H       0.5713240000    -1.1198220000    -6.3351670000
   48      H      -0.5708960000    -0.2386610000    -5.3328550000
 ----------------------------------------------------------------

   17   -1077.7582111579      7.79e-09  Convergence criterion met
 Total energy in the final basis set =    -1078.0402951570

                    Orbital Energies (a.u.)
 --------------------------------------------------------------

 Alpha MOs
 -- Occupied --
-19.1465 -19.1141 -19.0216 -19.0195 -10.2173 -10.2165 -10.1812 -10.1783
-10.1706 -10.1651 -10.1649 -10.1646 -10.1632 -10.1624 -10.1621 -10.1620
-10.1611 -10.1580 -10.1567 -10.1543 -10.1513 -10.1418 -10.1366 -10.1265
 -1.0553  -1.0269  -0.9411  -0.9259  -0.8377  -0.8331  -0.7944  -0.7713
 -0.7480  -0.7414  -0.7338  -0.7191  -0.6876  -0.6615  -0.6345  -0.6128
 -0.6020  -0.5945  -0.5734  -0.5625  -0.5530  -0.5465  -0.5230  -0.4933
 -0.4767  -0.4678  -0.4640  -0.4598  -0.4523  -0.4499  -0.4404  -0.4373
 -0.4279  -0.4234  -0.4111  -0.4055  -0.3983  -0.3913  -0.3843  -0.3784
 -0.3720  -0.3663  -0.3628  -0.3563  -0.3558  -0.3504  -0.3447  -0.3432
 -0.3361  -0.3351  -0.3298  -0.3233  -0.3168  -0.3148  -0.3104  -0.3057
 -0.2970  -0.2924  -0.2829  -0.2353  -0.2144  -0.2092  -0.1949  -0.1923
 -0.1073

          Ground-State Mulliken Net Atomic Charges

     Atom                 Charge (a.u.)
  ----------------------------------------
      1 C                     0.484082
      2 C                     2.097988
      3 C                     0.963145
      4 C                    -0.370395
      5 C                    -3.737430
      6 C                    -0.396600
      7 C                    -2.745933
      8 C                    -0.479596
      9 C                     1.209073
     10 C                    -3.355463
     11 O                    -0.424784
     12 O                    -0.299232
     13 O                    -0.060103
     14 O                    -0.030012
     15 C                     0.506147
     16 C                    -0.383006
     17 C                    -2.211910
     18 C                    -0.517274
     19 C                     2.630612
     20 C                    -1.071238
     21 C                     0.752414
     22 C                     1.121096
     23 C                     0.186915
     24 C                     0.567583
     25 H                    -0.048544
     26 H                     0.314088
     27 H                     0.064166
     28 H                     0.297865
     29 H                     0.459258
     30 H                     0.155065
     31 H                     0.153432
     32 H                     0.146082
     33 H                     0.036203
     34 H                    -0.054722
     35 H                    -0.185833
     36 H                     0.235296
     37 H                     0.126304
     38 H                     0.099735
     39 H                     0.180225
     40 H                     0.070701
     41 H                     0.073976
     42 H                     0.156022
     43 H                     0.340289
     44 H                     0.101790
     45 H                     0.135471
     46 H                     0.297653
     47 H                     0.234260
     48 H                     0.175135
  ----------------------------------------
  Sum of atomic charges =    -2.000000

                    Cartesian Multipole Moments
 -----------------------------------------------------------------
    Charge (ESU x 10^10)
                -9.6064
    Dipole Moment (Debye)
         X     -36.0178      Y      -2.2691      Z     -15.6145
       Tot      39.3223
    Quadrupole Moments (Debye-Ang)
        XX    -317.7858     XY      11.6470     YY    -184.1555
        XZ     -51.2921     YZ       0.6535     ZZ    -223.5049

 Total job time:  2528.53s(wall), 19077.02s(cpu)
        *  Thank you very much for using Q-Chem.  Have a nice day.  *
