 Gaussian 16, Revision A.03,
 Gaussian 16:  ES64L-G16RevA.03 25-Dec-2016

 --------------------------------------
 #P UB3LYP/6-311++G(d,p) nosym opt freq
 --------------------------------------

 -------
 Reduced
 -------
 Symbolic Z-matrix:
 Charge = -2 Multiplicity = 1

 SCF Done:  E(UB3LYP) =  -1077.78748542     A.U. after   48 cycles
 SCF Done:  E(UB3LYP) =  -1077.78749908     A.U. after   24 cycles
 SCF Done:  E(UB3LYP) =  -1077.78750169     A.U. after   24 cycles
 SCF Done:  E(UB3LYP) =  -1077.78750212     A.U. after   23 cycles
 SCF Done:  E(UB3LYP) =  -1077.78750254     A.U. after   20 cycles
 SCF Done:  E(UB3LYP) =  -1077.78750293     A.U. after   22 cycles
 SCF Done:  E(UB3LYP) =  -1077.78750303     A.U. after   23 cycles
 SCF Done:  E(UB3LYP) =  -1077.78750306     A.U. after   22 cycles
 Optimization completed.
    -- Stationary point found.
 Normal termination of Gaussian 16 at Tue Jan  9 00:31:38 2024.

 ----------------------------------------------------------------------
 #P Geom=AllCheck Guess=TCheck SCRF=Check GenChk UB3LYP/6-311++G(d,p) F
 req
 ----------------------------------------------------------------------

 Structure from the checkpoint file:  "305-an.chk"
 -------
 Reduced
 -------
 Charge = -2 Multiplicity = 1

                          Input orientation:
 ---------------------------------------------------------------------
 Center     Atomic      Atomic             Coordinates (Angstroms)
 Number     Number       Type             X           Y           Z
 ---------------------------------------------------------------------
      1          6           0        4.210505   -1.307733    3.886824
      2          6           0        3.438209   -0.969223    4.975102
      3          6           0        2.505038    0.092891    4.900801
      4          6           0        4.085906   -0.593826    2.659782
      5          6           0        3.139434    0.486500    2.571025
      6          6           0        2.375803    0.790872    3.711313
      7          6           0        4.892637   -0.947115    1.535723
      8          6           0        4.688635   -0.169702    0.353638
      9          6           0        3.788719    0.884712    0.222718
     10          6           0        2.957765    1.262391    1.336968
     11          8           0        5.782078   -1.897963    1.499029
     12          8           0        2.117080    2.218632    1.265996
     13          8           0        5.499223   -0.560924   -0.687261
     14          8           0        3.497557   -1.616353    6.212895
     15          6           0        4.407863   -2.683782    6.333152
     16          6           0        3.671036    1.657829   -1.065742
     17          6           0        2.562120    1.148466   -2.013287
     18          6           0        2.445483    1.990104   -3.291769
     19          6           0        1.307888    1.608711   -4.258055
     20          6           0        1.496153    0.215704   -4.888744
     21          6           0        1.138696    2.665496   -5.367934
     22          6           0        0.019507    2.317910   -6.359256
     23          6           0        0.218624    0.926116   -6.970007
     24          6           0        0.376863   -0.140255   -5.879584
     25          1           0        4.934746   -2.112313    3.903759
     26          1           0        1.910371    0.335433    5.775675
     27          1           0        1.667628    1.608634    3.622124
     28          1           0        5.990301   -1.299667   -0.249962
     29          1           0        4.310330   -3.058758    7.355463
     30          1           0        5.443472   -2.359822    6.162680
     31          1           0        4.183995   -3.494097    5.626323
     32          1           0        4.627818    1.630535   -1.600804
     33          1           0        3.445054    2.700633   -0.813697
     34          1           0        1.611326    1.171678   -1.469191
     35          1           0        2.768718    0.101903   -2.260302
     36          1           0        3.399000    1.953943   -3.840032
     37          1           0        2.307250    3.040003   -2.999106
     38          1           0        0.372335    1.586550   -3.678204
     39          1           0        1.557454   -0.544782   -4.104643
     40          1           0        2.462468    0.196810   -5.413324
     41          1           0        2.088563    2.760229   -5.913922
     42          1           0        0.946873    3.645656   -4.913376
     43          1           0       -0.046326    3.075168   -7.151997
     44          1           0       -0.945289    2.341569   -5.833708
     45          1           0        1.122802    0.936556   -7.595121
     46          1           0       -0.611770    0.677296   -7.643290
     47          1           0        0.571324   -1.119822   -6.335167
     48          1           0       -0.570896   -0.238661   -5.332855
 ---------------------------------------------------------------------

 SCF Done:  E(UB3LYP) =  -1077.78750306     A.U. after    3 cycles

 Alpha  occ. eigenvalues --  -18.96594 -18.91053 -18.83006 -18.82181 -10.05552
 Alpha  occ. eigenvalues --  -10.02138 -10.00678 -10.00651 -10.00609 -10.00236
 Alpha  occ. eigenvalues --  -10.00171  -9.99842  -9.98288  -9.98144  -9.98021
 Alpha  occ. eigenvalues --   -9.96951  -9.96157  -9.95569  -9.95495  -9.95194
 Alpha  occ. eigenvalues --   -9.94912  -9.94386  -9.93644  -9.92733  -0.87533
 Alpha  occ. eigenvalues --   -0.82447  -0.74065  -0.73040  -0.67366  -0.63422
 Alpha  occ. eigenvalues --   -0.61148  -0.58242  -0.58087  -0.56283  -0.53991
 Alpha  occ. eigenvalues --   -0.53032  -0.50511  -0.47348  -0.45128  -0.44251
 Alpha  occ. eigenvalues --   -0.42176  -0.39843  -0.39223  -0.38743  -0.36692
 Alpha  occ. eigenvalues --   -0.34650  -0.33172  -0.31542  -0.29484  -0.29323
 Alpha  occ. eigenvalues --   -0.28897  -0.28408  -0.28002  -0.27390  -0.26107
 Alpha  occ. eigenvalues --   -0.25296  -0.24345  -0.23099  -0.22626  -0.22049
 Alpha  occ. eigenvalues --   -0.21857  -0.20758  -0.20254  -0.19219  -0.18512
 Alpha  occ. eigenvalues --   -0.18439  -0.17816  -0.17379  -0.16903  -0.16646
 Alpha  occ. eigenvalues --   -0.16108  -0.15826  -0.15436  -0.15258  -0.14417
 Alpha  occ. eigenvalues --   -0.13772  -0.13183  -0.12998  -0.12239  -0.11414
 Alpha  occ. eigenvalues --   -0.10599  -0.10355  -0.08687  -0.03237  -0.01438
 Alpha  occ. eigenvalues --   -0.01287   0.00620   0.01054   0.10075
 Alpha virt. eigenvalues --    0.11034   0.12539   0.12922   0.13529   0.14473
 Alpha virt. eigenvalues --    0.15654   0.15813   0.16330   0.16496   0.16717
 Alpha virt. eigenvalues --    0.17097   0.17469   0.18065   0.18850   0.19082

  Beta  occ. eigenvalues --  -18.96594 -18.91053 -18.83006 -18.82181 -10.05552
  Beta  occ. eigenvalues --  -10.02138 -10.00678 -10.00651 -10.00609 -10.00236
  Beta  occ. eigenvalues --  -10.00171  -9.99842  -9.98288  -9.98144  -9.98021
  Beta  occ. eigenvalues --   -9.96951  -9.96157  -9.95569  -9.95495  -9.95194
  Beta  occ. eigenvalues --   -9.94912  -9.94386  -9.93644  -9.92733  -0.87533
  Beta  occ. eigenvalues --   -0.82447  -0.74065  -0.73040  -0.67366  -0.63422
  Beta  occ. eigenvalues --   -0.61148  -0.58242  -0.58087  -0.56283  -0.53991
  Beta  occ. eigenvalues --   -0.53032  -0.50511  -0.47348  -0.45128  -0.44251
  Beta  occ. eigenvalues --   -0.42176  -0.39843  -0.39223  -0.38743  -0.36692
  Beta  occ. eigenvalues --   -0.34650  -0.33172  -0.31542  -0.29484  -0.29323
  Beta  occ. eigenvalues --   -0.28897  -0.28408  -0.28002  -0.27390  -0.26107
  Beta  occ. eigenvalues --   -0.25296  -0.24345  -0.23099  -0.22626  -0.22049
  Beta  occ. eigenvalues --   -0.21857  -0.20758  -0.20254  -0.19219  -0.18512
  Beta  occ. eigenvalues --   -0.18439  -0.17816  -0.17379  -0.16903  -0.16646
  Beta  occ. eigenvalues --   -0.16108  -0.15826  -0.15436  -0.15258  -0.14417
  Beta  occ. eigenvalues --   -0.13772  -0.13183  -0.12998  -0.12239  -0.11414
  Beta  occ. eigenvalues --   -0.10599  -0.10355  -0.08687  -0.03237  -0.01438
  Beta  occ. eigenvalues --   -0.01287   0.00620   0.01054   0.10075
  Beta virt. eigenvalues --    0.11034   0.12539   0.12922   0.13529   0.14473
  Beta virt. eigenvalues --    0.15654   0.15813   0.16330   0.16496   0.16717
  Beta virt. eigenvalues --    0.17097   0.17469   0.18065   0.18850   0.19082

 Mulliken charges and spin densities:
               1          2
     1  C    0.880239   0.000000
     2  C   -0.973005   0.000000
     3  C   -0.353752  -0.000000
     4  C    1.036257   0.000000
     5  C   -0.544955  -0.000000
     6  C    0.174756   0.000000
     7  C   -1.203789  -0.000000
     8  C   -0.529235  -0.000000
     9  C    1.771870   0.000000
    10  C   -1.368389  -0.000000
    11  O   -0.544239   0.000000
    12  O   -0.437706   0.000000
    13  O   -0.276594   0.000000
    14  O   -0.193334  -0.000000
    15  C   -0.319397   0.000000
    16  C    0.133758  -0.000000
    17  C   -0.558711   0.000000
    18  C   -0.247651   0.000000
    19  C    0.882746  -0.000000
    20  C   -0.186146   0.000000
    21  C   -0.325391   0.000000
    22  C   -0.225130  -0.000000
    23  C    0.928595   0.000000
    24  C   -0.571835  -0.000000
    25  H    0.125361  -0.000000
    26  H    0.122638  -0.000000
    27  H    0.154192   0.000000
    28  H    0.261207  -0.000000
    29  H    0.129374   0.000000
    30  H    0.132695   0.000000
    31  H    0.131309   0.000000
    32  H    0.208166  -0.000000
    33  H    0.183142  -0.000000
    34  H    0.190546   0.000000
    35  H    0.095293  -0.000000
    36  H    0.068414   0.000000
    37  H    0.099036  -0.000000
    38  H    0.077140  -0.000000
    39  H    0.202823   0.000000
    40  H    0.065995  -0.000000
    41  H    0.060669  -0.000000
    42  H    0.137862   0.000000
    43  H   -0.771592  -0.000000
    44  H    0.227487   0.000000
    45  H    0.186308   0.000000
    46  H   -1.055005  -0.000000
    47  H   -0.083506  -0.000000
    48  H    0.101485  -0.000000
 Sum of Mulliken charges =  -2.00000   0.00000

 Dipole moment (field-independent basis, Debye):
    X=            -26.3255    Y=             -4.6116    Z=              6.0656  Tot=             27.4060
 Quadrupole moment (field-independent basis, Debye-Ang):
   XX=           -290.1841   YY=           -197.9268   ZZ=           -379.1289
   XY=             13.4467   XZ=            -54.9826   YZ=             33.6830

  Exact polarizability:1107.282-117.4751308.028 890.484-384.1652886.265
 Approx polarizability:6538.466********1860.876************************

                      1                      2                      3
                      A                      A                      A
 Frequencies --     13.0656                19.4408                22.1837
 Red. masses --      5.4249                 4.8386                 3.1495
 Frc consts  --      0.0005                 0.0011                 0.0009
 IR Inten    --      0.0533                 0.4482                 0.1511

                      4                      5                      6
                      A                      A                      A
 Frequencies --     53.7487                63.7849                76.7115
 Red. masses --      3.7154                 3.3602                 4.9843
 Frc consts  --      0.0063                 0.0081                 0.0173
 IR Inten    --      4.5020                 4.9859                 0.3787

                      7                      8                      9
                      A                      A                      A
 Frequencies --    105.3409               117.7858               127.6742
 Red. masses --      3.7414                 2.5748                 3.9671
 Frc consts  --      0.0245                 0.0210                 0.0381
 IR Inten    --      0.7354                 0.5657                 1.7833

                     10                     11                     12
                      A                      A                      A
 Frequencies --    138.9539               157.4173               174.3171
 Red. masses --      5.0383                 4.6273                 4.3334
 Frc consts  --      0.0573                 0.0676                 0.0776
 IR Inten    --      1.2417                 2.0427                 2.3669

                     13                     14                     15
                      A                      A                      A
 Frequencies --    175.3091               219.3358               228.5274
 Red. masses --      3.0148                 1.8226                 1.7662
 Frc consts  --      0.0546                 0.0517                 0.0543
 IR Inten    --      0.1686                 0.9039                 3.5311

                     16                     17                     18
                      A                      A                      A
 Frequencies --    240.1586               266.6500               294.0411
 Red. masses --      2.1445                 3.6138                 3.4507
 Frc consts  --      0.0729                 0.1514                 0.1758
 IR Inten    --      0.2915                 3.8106                 0.8049

                     19                     20                     21
                      A                      A                      A
 Frequencies --    299.0423               323.8095               339.0551
 Red. masses --      3.0647                 1.8895                 5.3252
 Frc consts  --      0.1615                 0.1167                 0.3607
 IR Inten    --      8.1782                 4.7041                18.0179

                     22                     23                     24
                      A                      A                      A
 Frequencies --    346.5504               351.6224               373.7461
 Red. masses --      4.2477                 8.1701                 4.1855
 Frc consts  --      0.3006                 0.5952                 0.3445
 IR Inten    --      0.1813                 1.2361                 6.2544

                     25                     26                     27
                      A                      A                      A
 Frequencies --    407.0754               434.9770               439.0380
 Red. masses --      5.8485                 3.2289                 3.4218
 Frc consts  --      0.5710                 0.3599                 0.3886
 IR Inten    --    105.2810                62.8025                52.7676

                     28                     29                     30
                      A                      A                      A
 Frequencies --    445.3387               463.8842               467.0365
 Red. masses --      2.8294                 3.4171                 2.9140
 Frc consts  --      0.3306                 0.4332                 0.3745
 IR Inten    --      3.6644                 4.5017                 7.6594

                     31                     32                     33
                      A                      A                      A
 Frequencies --    471.5110               496.1164               512.8258
 Red. masses --      5.0753                 5.4705                 6.5770
 Frc consts  --      0.6648                 0.7933                 1.0191
 IR Inten    --    317.7322               147.3541               283.7228

                     34                     35                     36
                      A                      A                      A
 Frequencies --    550.0023               591.5973               635.2997
 Red. masses --      1.9519                 4.2021                 4.2561
 Frc consts  --      0.3479                 0.8665                 1.0121
 IR Inten    --      8.3781                 9.0385                 9.3426

                     37                     38                     39
                      A                      A                      A
 Frequencies --    678.5311               688.9415               700.0105
 Red. masses --      4.3458                 6.0909                 4.4489
 Frc consts  --      1.1789                 1.7033                 1.2844
 IR Inten    --      6.9021                 3.1778                 2.8627

                     40                     41                     42
                      A                      A                      A
 Frequencies --    718.7693               730.2376               741.4894
 Red. masses --      5.5883                 1.3791                 1.8053
 Frc consts  --      1.7010                 0.4333                 0.5848
 IR Inten    --      8.4027                24.1596                17.4382

                     43                     44                     45
                      A                      A                      A
 Frequencies --    763.7816               776.7883               784.8481
 Red. masses --      2.4239                 1.2383                 2.6746
 Frc consts  --      0.8331                 0.4402                 0.9707
 IR Inten    --    128.0960                44.2331                22.0588

                     46                     47                     48
                      A                      A                      A
 Frequencies --    786.9027               789.6000               829.7322
 Red. masses --      2.4853                 1.7533                 1.9187
 Frc consts  --      0.9067                 0.6440                 0.7783
 IR Inten    --    151.8933                60.9744                72.1514

                     49                     50                     51
                      A                      A                      A
 Frequencies --    842.6363               864.7199               885.5463
 Red. masses --      2.2331                 1.4702                 2.0058
 Frc consts  --      0.9342                 0.6477                 0.9267
 IR Inten    --     19.5503                19.4198               188.9295

                     52                     53                     54
                      A                      A                      A
 Frequencies --    890.7545               919.8123               925.2175
 Red. masses --      1.9738                 1.7604                 2.2390
 Frc consts  --      0.9227                 0.8775                 1.1293
 IR Inten    --     16.0261               111.0605                58.7329

                     55                     56                     57
                      A                      A                      A
 Frequencies --    955.0750               965.8674               976.4173
 Red. masses --      3.3226                 1.3061                 2.8749
 Frc consts  --      1.7857                 0.7179                 1.6149
 IR Inten    --      8.1769                 1.0779                23.0474

                     58                     59                     60
                      A                      A                      A
 Frequencies --   1011.1220              1015.2587              1034.2915
 Red. masses --      1.9775                 3.3337                 1.9162
 Frc consts  --      1.1912                 2.0245                 1.2078
 IR Inten    --    135.7440                12.6674                25.9185

                     61                     62                     63
                      A                      A                      A
 Frequencies --   1035.9578              1049.2353              1067.3785
 Red. masses --      2.6344                 2.2177                 2.2570
 Frc consts  --      1.6658                 1.4384                 1.5150
 IR Inten    --     49.6856               154.6656                58.5643

                     64                     65                     66
                      A                      A                      A
 Frequencies --   1073.1273              1091.0010              1095.6105
 Red. masses --      1.6910                 1.3911                 2.0082
 Frc consts  --      1.1473                 0.9756                 1.4202
 IR Inten    --     10.1845                 8.4132                12.8678

                     67                     68                     69
                      A                      A                      A
 Frequencies --   1101.1424              1104.2525              1132.6901
 Red. masses --      2.3756                 2.2485                 1.8334
 Frc consts  --      1.6971                 1.6154                 1.3859
 IR Inten    --     39.1434                 6.2569                78.8274

                     70                     71                     72
                      A                      A                      A
 Frequencies --   1159.2984              1166.2865              1182.8514
 Red. masses --      2.8195                 1.2831                 1.7957
 Frc consts  --      2.2326                 1.0283                 1.4803
 IR Inten    --    775.5818                 0.4739                32.2064

                     73                     74                     75
                      A                      A                      A
 Frequencies --   1187.8405              1195.6385              1205.3993
 Red. masses --      2.1879                 2.0369                 1.6811
 Frc consts  --      1.8189                 1.7156                 1.4391
 IR Inten    --    357.9441                54.2250                 9.5342

                     76                     77                     78
                      A                      A                      A
 Frequencies --   1225.4625              1242.6506              1256.1455
 Red. masses --      2.5287                 2.8883                 1.3885
 Frc consts  --      2.2374                 2.6277                 1.2908
 IR Inten    --    427.0668                74.1594                66.3113

                     79                     80                     81
                      A                      A                      A
 Frequencies --   1268.4845              1274.9017              1281.6197
 Red. masses --      1.9471                 1.3139                 1.2544
 Frc consts  --      1.8459                 1.2582                 1.2140
 IR Inten    --    119.1753                51.5343                65.5366

                     82                     83                     84
                      A                      A                      A
 Frequencies --   1285.9326              1308.1220              1320.3064
 Red. masses --      1.2694                 1.2797                 1.2366
 Frc consts  --      1.2368                 1.2902                 1.2701
 IR Inten    --      5.7578                24.5956                27.0457

                     85                     86                     87
                      A                      A                      A
 Frequencies --   1328.6667              1337.5050              1341.7557
 Red. masses --      1.2096                 1.4150                 3.1562
 Frc consts  --      1.2581                 1.4914                 3.3478
 IR Inten    --    264.0353               310.2483              1076.8882

                     88                     89                     90
                      A                      A                      A
 Frequencies --   1347.5127              1360.9742              1363.3271
 Red. masses --      1.8198                 1.6459                 1.4187
 Frc consts  --      1.9469                 1.7962                 1.5536
 IR Inten    --      5.1311                56.4684                 7.7438

                     91                     92                     93
                      A                      A                      A
 Frequencies --   1367.2740              1372.5896              1375.9331
 Red. masses --      1.4354                 1.5503                 1.4955
 Frc consts  --      1.5810                 1.7209                 1.6682
 IR Inten    --      6.5120               108.8839                57.0100

                     94                     95                     96
                      A                      A                      A
 Frequencies --   1383.1251              1390.5859              1410.4330
 Red. masses --      1.4622                 1.4995                 3.0094
 Frc consts  --      1.6481                 1.7084                 3.5272
 IR Inten    --     15.2314                23.4641              1466.4663

                     97                     98                     99
                      A                      A                      A
 Frequencies --   1433.7594              1443.3985              1463.5897
 Red. masses --      4.2725                 2.1781                 1.3305
 Frc consts  --      5.1747                 2.6736                 1.6792
 IR Inten    --   2211.7557               228.8855               611.3025

                    100                    101                    102
                      A                      A                      A
 Frequencies --   1473.6117              1474.1533              1474.8112
 Red. masses --      1.3723                 1.0467                 1.0977
 Frc consts  --      1.7558                 1.3402                 1.4067
 IR Inten    --    101.8306                 5.3619               369.5413

                    103                    104                    105
                      A                      A                      A
 Frequencies --   1476.5582              1481.1432              1486.1562
 Red. masses --      1.1845                 1.1026                 1.1049
 Frc consts  --      1.5216                 1.4251                 1.4379
 IR Inten    --     32.2057                99.4659                29.4197

                    106                    107                    108
                      A                      A                      A
 Frequencies --   1487.5144              1494.4140              1497.7858
 Red. masses --      1.0895                 3.0850                 1.1086
 Frc consts  --      1.4203                 4.0592                 1.4653
 IR Inten    --     17.8655               891.4571                52.8176

                    109                    110                    111
                      A                      A                      A
 Frequencies --   1503.7165              1506.9324              1516.1946
 Red. masses --      1.1424                 1.4458                 2.2261
 Frc consts  --      1.5220                 1.9344                 3.0151
 IR Inten    --    221.1493               723.0449               893.5306

                    112                    113                    114
                      A                      A                      A
 Frequencies --   1554.8816              1597.7068              1611.9433
 Red. masses --      4.2931                 4.8788                 6.0198
 Frc consts  --      6.1153                 7.3377                 9.2158
 IR Inten    --    598.8439                89.8282              4769.7928

                    115                    116                    117
                      A                      A                      A
 Frequencies --   2961.1601              2969.3891              2971.1155
 Red. masses --      1.0784                 1.0619                 1.0330
 Frc consts  --      5.5715                 5.5168                 5.3729
 IR Inten    --      0.4554                 6.1907               367.5446

                    118                    119                    120
                      A                      A                      A
 Frequencies --   2975.6154              2977.0575              2977.4711
 Red. masses --      1.0619                 1.0626                 1.0665
 Frc consts  --      5.5399                 5.5486                 5.5706
 IR Inten    --      4.3510                 2.9764                16.5076

                    121                    122                    123
                      A                      A                      A
 Frequencies --   2984.2969              2987.1157              2996.4633
 Red. masses --      1.0621                 1.0707                 1.0572
 Frc consts  --      5.5731                 5.6290                 5.5925
 IR Inten    --     24.3305                13.3783               137.2508

                    124                    125                    126
                      A                      A                      A
 Frequencies --   3001.2390              3003.9424              3010.8275
 Red. masses --      1.0963                 1.0943                 1.0985
 Frc consts  --      5.8182                 5.8179                 5.8670
 IR Inten    --      6.3878                 9.0879                 0.6578

                    127                    128                    129
                      A                      A                      A
 Frequencies --   3013.2424              3018.7684              3019.4793
 Red. masses --      1.1041                 1.0982                 1.0618
 Frc consts  --      5.9064                 5.8962                 5.7039
 IR Inten    --     65.4303                23.5083                25.1625

                    130                    131                    132
                      A                      A                      A
 Frequencies --   3023.4770              3033.2458              3054.4915
 Red. masses --      1.1003                 1.1024                 1.0944
 Frc consts  --      5.9263                 5.9757                 6.0159
 IR Inten    --     94.9567                 3.7424                18.3234

                    133                    134                    135
                      A                      A                      A
 Frequencies --   3065.5872              3071.0031              3148.3046
 Red. masses --      1.1042                 1.0985                 1.0857
 Frc consts  --      6.1139                 6.1038                 6.3402
 IR Inten    --     25.7634               207.9592                18.4664

                    136                    137                    138
                      A                      A                      A
 Frequencies --   3167.8923              3192.2181              3369.1842
 Red. masses --      1.0929                 1.0882                 1.0637
 Frc consts  --      6.4618                 6.5336                 7.1138
 IR Inten    --    114.3774                80.1934                75.6441

 - Thermochemistry -
 -------------------
 Temperature   298.150 Kelvin.  Pressure   1.00000 Atm.
 Atom     1 has atomic number  6 and mass  12.00000

 Molecular mass:   328.16746 amu.
 Principal axes and moments of inertia in atomic units:
                           1         2         3
     Eigenvalues --  3125.22363********************
           X            0.27502   0.72362   0.63304
           Y           -0.23611  -0.58743   0.77406
           Z            0.93199  -0.36236   0.00930
 This molecule is an asymmetric top.
 Rotational symmetry number  1.
 Warning -- assumption of classical behavior for rotation
           may cause significant error
 Rotational temperatures (Kelvin)      0.02771     0.00375     0.00358
 Rotational constants (GHZ):           0.57748     0.07807     0.07452
 Zero-point vibrational energy    1049012.5 (Joules/Mol)
                                  250.72001 (Kcal/Mol)
 Warning -- explicit consideration of  35 degrees of freedom as
           vibrations may cause significant error
 Vibrational temperatures:     18.80    27.97    31.92    77.33    91.77
          (Kelvin)            110.37   151.56   169.47   183.69   199.92
                              226.49   250.80   252.23   315.58   328.80
                              345.53   383.65   423.06   430.26   465.89
                              487.82   498.61   505.91   537.74   585.69
                              625.83   631.68   640.74   667.43   671.96
                              678.40   713.80   737.84   791.33   851.18
                              914.05   976.25   991.23  1007.16  1034.15
                             1050.65  1066.84  1098.91  1117.63  1129.22
                             1132.18  1136.06  1193.80  1212.37  1244.14
                             1274.10  1281.60  1323.40  1331.18  1374.14
                             1389.67  1404.85  1454.78  1460.73  1488.11
                             1490.51  1509.62  1535.72  1543.99  1569.71
                             1576.34  1584.30  1588.77  1629.69  1667.97
                             1678.03  1701.86  1709.04  1720.26  1734.30
                             1763.17  1787.90  1807.31  1825.07  1834.30
                             1843.96  1850.17  1882.10  1899.63  1911.66
                             1924.37  1930.49  1938.77  1958.14  1961.52
                             1967.20  1974.85  1979.66  1990.01  2000.74
                             2029.30  2062.86  2076.73  2105.78  2120.20
                             2120.98  2121.92  2124.44  2131.03  2138.25
                             2140.20  2150.13  2154.98  2163.51  2168.14
                             2181.47  2237.13  2298.74  2319.23  4260.45
                             4272.29  4274.77  4281.25  4283.32  4283.92
                             4293.74  4297.79  4311.24  4318.11  4322.00
                             4331.91  4335.38  4343.33  4344.36  4350.11
                             4364.16  4394.73  4410.70  4418.49  4529.71
                             4557.89  4592.89  4847.50

 Zero-point correction=                           0.399548 (Hartree/Particle)
 Thermal correction to Energy=                    0.421972
 Thermal correction to Enthalpy=                  0.422916
 Thermal correction to Gibbs Free Energy=         0.345536
 Sum of electronic and zero-point Energies=          -1077.387955
 Sum of electronic and thermal Energies=             -1077.365531
 Sum of electronic and thermal Enthalpies=           -1077.364587
 Sum of electronic and thermal Free Energies=        -1077.441967

                     E (Thermal)             CV                S
                      KCal/Mol        Cal/Mol-Kelvin    Cal/Mol-Kelvin
 Total                  264.792             87.316            162.861
 Electronic               0.000              0.000              0.000
 Translational            0.889              2.981             43.260
 Rotational               0.889              2.981             35.813
 Vibrational            263.014             81.354             83.787
 Vibration     1          0.593              1.987              7.480
 Vibration     2          0.593              1.986              6.691
 Vibration     3          0.593              1.985              6.428
 Vibration     4          0.596              1.976              4.674
 Vibration     5          0.597              1.972              4.337
 Vibration     6          0.599              1.965              3.973
 Vibration     7          0.605              1.945              3.353
 Vibration     8          0.608              1.935              3.136
 Vibration     9          0.611              1.926              2.981
 Vibration    10          0.615              1.914              2.818
 Vibration    11          0.621              1.894              2.581
 Vibration    12          0.627              1.874              2.388
 Vibration    13          0.627              1.873              2.378
 Vibration    14          0.647              1.812              1.965
 Vibration    15          0.651              1.797              1.890
 Vibration    16          0.657              1.779              1.802
 Vibration    17          0.672              1.734              1.618
 Vibration    18          0.689              1.685              1.451
 Vibration    19          0.692              1.675              1.422
 Vibration    20          0.708              1.628              1.291
 Vibration    21          0.719              1.597              1.217
 Vibration    22          0.725              1.582              1.182
 Vibration    23          0.728              1.572              1.159
 Vibration    24          0.745              1.526              1.064
 Vibration    25          0.772              1.455              0.937
 Vibration    26          0.796              1.394              0.843
 Vibration    27          0.799              1.385              0.830
 Vibration    28          0.805              1.371              0.810
 Vibration    29          0.821              1.330              0.755
 Vibration    30          0.824              1.323              0.746
 Vibration    31          0.828              1.313              0.733
 Vibration    32          0.852              1.259              0.668
 Vibration    33          0.868              1.222              0.627
 Vibration    34          0.905              1.140              0.544
 Vibration    35          0.949              1.050              0.464

 Optimization completed.
    -- Stationary point found.
 Normal termination of Gaussian 16 at Tue Jan  9 04:34:50 2024.
