 Q-Chem 5.4, Q-Chem, Inc., Pleasanton, CA (2021)
 Q-Chem 5.4.0 for Intel X86 EM64T Linux

User input:
--------------------------------------------------------------
$molecule
-1 2
N                 -2.5760950000      0.5058950000      2.3186170000
C                 -2.4270760000      0.2785920000      0.9635040000
C                 -3.5557650000      0.1778940000      0.1453250000
C                 -3.4342790000     -0.1182270000     -1.2174540000
C                 -2.1908760000     -0.3219110000     -1.7842160000
C                 -1.0256090000     -0.2144360000     -1.0002590000
C                  0.2648720000     -0.4261800000     -1.6674460000
O                  0.3467160000     -0.7160120000     -2.8852340000
C                  1.4543080000     -0.2761960000     -0.8354590000
C                  2.7266690000     -0.4646160000     -1.4116970000
C                  3.8725270000     -0.3239140000     -0.6638310000
Cl                 5.4401870000     -0.5716300000     -1.4360790000
C                  3.7821750000      0.0170890000      0.7077960000
Cl                 5.2339360000      0.2043630000      1.6943450000
C                  2.5490730000      0.2059510000      1.2884550000
C                  1.3627830000      0.0640360000      0.5407150000
C                  0.0794430000      0.2730190000      1.2069280000
O                  0.0522800000      0.5980280000      2.4327670000
C                 -1.1191120000      0.1012710000      0.3938190000
H                 -1.7061140000      0.7433130000      2.7963830000
H                 -3.4281600000      0.9576190000      2.6100300000
H                 -4.5377770000      0.3155620000      0.5901480000
H                 -4.3300830000     -0.1935100000     -1.8271860000
H                 -2.0708800000     -0.5605470000     -2.8330880000
H                  2.7746260000     -0.7222290000     -2.4620990000
H                  2.4622300000      0.4667770000      2.3352180000
$end

$rem
BASIS  =  6-311++G(d,p)
GUI  =  2
JOB_TYPE  =  SP
METHOD  =  B3LYP
SCF_CONVERGENCE  = 8
SOLVENT_METHOD = sm12
$end

$smx
solvent dimethylformamide
charges CM5
$end

--------------------------------------------------------------

             Standard Nuclear Orientation (Angstroms)
    I     Atom           X                Y                Z
 ----------------------------------------------------------------
    1      N      -2.5760950000     0.5058950000     2.3186170000
    2      C      -2.4270760000     0.2785920000     0.9635040000
    3      C      -3.5557650000     0.1778940000     0.1453250000
    4      C      -3.4342790000    -0.1182270000    -1.2174540000
    5      C      -2.1908760000    -0.3219110000    -1.7842160000
    6      C      -1.0256090000    -0.2144360000    -1.0002590000
    7      C       0.2648720000    -0.4261800000    -1.6674460000
    8      O       0.3467160000    -0.7160120000    -2.8852340000
    9      C       1.4543080000    -0.2761960000    -0.8354590000
   10      C       2.7266690000    -0.4646160000    -1.4116970000
   11      C       3.8725270000    -0.3239140000    -0.6638310000
   12      Cl      5.4401870000    -0.5716300000    -1.4360790000
   13      C       3.7821750000     0.0170890000     0.7077960000
   14      Cl      5.2339360000     0.2043630000     1.6943450000
   15      C       2.5490730000     0.2059510000     1.2884550000
   16      C       1.3627830000     0.0640360000     0.5407150000
   17      C       0.0794430000     0.2730190000     1.2069280000
   18      O       0.0522800000     0.5980280000     2.4327670000
   19      C      -1.1191120000     0.1012710000     0.3938190000
   20      H      -1.7061140000     0.7433130000     2.7963830000
   21      H      -3.4281600000     0.9576190000     2.6100300000
   22      H      -4.5377770000     0.3155620000     0.5901480000
   23      H      -4.3300830000    -0.1935100000    -1.8271860000
   24      H      -2.0708800000    -0.5605470000    -2.8330880000
   25      H       2.7746260000    -0.7222290000    -2.4620990000
   26      H       2.4622300000     0.4667770000     2.3352180000
 ----------------------------------------------------------------

   18   -1663.6474380740      7.84e-09  Convergence criterion met
 Total energy in the final basis set =    -1663.7301865398

                    Orbital Energies (a.u.)
 --------------------------------------------------------------

 Alpha MOs
 -- Occupied --
********-101.5632 -19.0866 -19.0800 -14.3145 -10.2510 -10.2504 -10.2378
-10.2302 -10.2275 -10.1934 -10.1931 -10.1890 -10.1878 -10.1842 -10.1827
-10.1826 -10.1741 -10.1675  -9.4773  -9.4771  -7.2419  -7.2418  -7.2323
 -7.2321  -7.2317  -7.2314  -1.0134  -1.0071  -0.9223  -0.9186  -0.8630
 -0.8562  -0.8405  -0.7855  -0.7632  -0.7407  -0.7377  -0.6748  -0.6494
 -0.6302  -0.6066  -0.5708  -0.5518  -0.5364  -0.5077  -0.4945  -0.4854
 -0.4780  -0.4577  -0.4532  -0.4464  -0.4392  -0.4279  -0.4183  -0.4126
 -0.4106  -0.4021  -0.3895  -0.3778  -0.3741  -0.3639  -0.3563  -0.3522
 -0.3342  -0.3272  -0.3170  -0.3141  -0.2726  -0.2674  -0.2550  -0.2544
 -0.2439  -0.2198  -0.1481

 Beta MOs
 -- Occupied --
********-101.5632 -19.0814 -19.0742 -14.3143 -10.2505 -10.2497 -10.2362
-10.2288 -10.2276 -10.1935 -10.1932 -10.1879 -10.1868 -10.1841 -10.1824
-10.1818 -10.1732 -10.1672  -9.4773  -9.4771  -7.2419  -7.2418  -7.2322
 -7.2320  -7.2317  -7.2314  -1.0044  -0.9969  -0.9216  -0.9175  -0.8625
 -0.8534  -0.8393  -0.7823  -0.7612  -0.7386  -0.7357  -0.6680  -0.6481
 -0.6277  -0.6056  -0.5686  -0.5498  -0.5351  -0.5068  -0.4934  -0.4834
 -0.4762  -0.4568  -0.4522  -0.4459  -0.4307  -0.4264  -0.4142  -0.4084
 -0.4072  -0.4001  -0.3766  -0.3719  -0.3644  -0.3623  -0.3541  -0.3498
 -0.3340  -0.3205  -0.3140  -0.3092  -0.2611  -0.2550  -0.2501  -0.2483
 -0.2386  -0.2121

          Ground-State Mulliken Net Atomic Charges

     Atom                 Charge (a.u.)    Spin (a.u.)
  --------------------------------------------------------
      1 N                    -0.238424       0.008177
      2 C                    -0.018976       0.026098
      3 C                     1.903376       0.088515
      4 C                     0.693453       0.029057
      5 C                    -0.489646       0.058508
      6 C                    -0.994024       0.031541
      7 C                    -2.291459       0.062828
      8 O                    -0.310907       0.221296
      9 C                    -1.832269       0.052575
     10 C                    -0.385635       0.026322
     11 C                     1.780364       0.029743
     12 Cl                    0.934989       0.002731
     13 C                     1.818355       0.045525
     14 Cl                    0.939090       0.003401
     15 C                     0.194311       0.028298
     16 C                    -0.937481       0.070740
     17 C                    -2.361308       0.059163
     18 O                    -0.254672       0.195928
     19 C                    -1.112121      -0.022317
     20 H                     0.276786      -0.003181
     21 H                     0.396657      -0.000695
     22 H                     0.310445      -0.006072
     23 H                     0.345629      -0.002250
     24 H                     0.114951      -0.003935
     25 H                     0.243132      -0.001732
     26 H                     0.275382      -0.000264
  --------------------------------------------------------
  Sum of atomic charges =    -1.000000

                    Cartesian Multipole Moments
 -----------------------------------------------------------------
    Charge (ESU x 10^10)
                -4.8032
    Dipole Moment (Debye)
         X      -5.0141      Y       1.4872      Z       2.4140
       Tot       5.7602
    Quadrupole Moments (Debye-Ang)
        XX    -151.4493     XY      -2.1611     YY    -130.8861
        XZ      -2.4689     YZ      -3.2976     ZZ    -152.9784

 Total job time:  763.29s(wall), 5631.25s(cpu)
        *  Thank you very much for using Q-Chem.  Have a nice day.  *
