 Q-Chem 5.4, Q-Chem, Inc., Pleasanton, CA (2021)
 Q-Chem 5.4.0 for Intel X86 EM64T Linux

User input:
--------------------------------------------------------------
$molecule
-2 1
Cl                 3.1197580000     -0.1415140000      0.0318320000
C                  1.2868110000     -0.1053110000      0.0129950000
C                  0.6950870000      1.1633740000      0.0111780000
C                 -0.7245460000      1.3492820000     -0.0028930000
O                 -1.3004110000      2.5189860000     -0.0049040000
C                 -1.4347390000      0.1044140000     -0.0145190000
C                 -0.8064570000     -1.1442570000     -0.0122520000
C                  0.6145250000     -1.3640450000      0.0017600000
O                  1.1652860000     -2.5367810000      0.0034310000
H                  1.3235520000      2.0495450000      0.0206870000
H                 -2.5251480000      0.1574590000     -0.0256650000
H                 -1.4137190000     -2.0511530000     -0.0216500000
$end
$rem
MAX_SCF_CYCLES=200
BASIS  =  6-311++G(d,p)
GUI  =  2
JOB_TYPE  =  SP
METHOD  =  B3LYP
SOLVENT_METHOD = COSMO
$end
$solvent
dielectric 37.219
opticaldielectric 1.43
$end

--------------------------------------------------------------

             Standard Nuclear Orientation (Angstroms)
    I     Atom           X                Y                Z
 ----------------------------------------------------------------
    1      Cl      2.1619729179    -1.1898804522     0.0000103192
    2      C       0.5776875504    -0.2671670254    -0.0000190237
    3      C      -0.5876745464    -1.0428173371    -0.0000134447
    4      C      -1.8968431238    -0.4629938569    -0.0000171644
    5      O      -2.9971691100    -1.1623612234     0.0000097586
    6      C      -1.8557903888     0.9696680957     0.0000132901
    7      C      -0.6696170752     1.7092054830     0.0000045899
    8      C       0.6583289116     1.1576146928    -0.0000340480
    9      O       1.7387913093     1.8726330160     0.0000086222
   10      H      -0.5119279253    -2.1266162888     0.0000052893
   11      H      -2.8146634846     1.4916759289     0.0000430762
   12      H      -0.7164737555     2.7996733941     0.0000239666
 ----------------------------------------------------------------

   11    -841.1693524859      3.57e-06  Convergence criterion met
 Total energy in the final basis set =     -841.1693524859
    6    -841.4749406355      5.27e-06  Convergence criterion met
 Total energy in the final basis set =     -841.4749406355

                    Orbital Energies (a.u.)
 --------------------------------------------------------------

 Alpha MOs
 -- Occupied --
******** -19.0296 -19.0276 -10.1915 -10.1875 -10.1823 -10.1368 -10.1365
-10.1329  -9.4404  -7.2041  -7.1959  -7.1954  -0.9429  -0.9356  -0.8314
 -0.7781  -0.6964  -0.6596  -0.5685  -0.5338  -0.4453  -0.4392  -0.4162
 -0.3807  -0.3758  -0.3725  -0.3454  -0.3295  -0.3290  -0.3108  -0.2934
 -0.2376  -0.2199  -0.2116  -0.2087  -0.1341

          Ground-State Mulliken Net Atomic Charges

     Atom                 Charge (a.u.)
  ----------------------------------------
      1 Cl                    0.052235
      2 C                     1.132460
      3 C                    -0.607260
      4 C                    -0.529594
      5 O                    -0.784054
      6 C                    -0.052542
      7 C                    -0.193171
      8 C                    -0.772048
      9 O                    -0.733095
     10 H                     0.159717
     11 H                     0.160405
     12 H                     0.166945
  ----------------------------------------
  Sum of atomic charges =    -2.000000

                    Cartesian Multipole Moments
 -----------------------------------------------------------------
    Charge (ESU x 10^10)
                -9.6064
    Dipole Moment (Debye)
         X       3.1220      Y      -1.3969      Z      -0.0009
       Tot       3.4203
    Quadrupole Moments (Debye-Ang)
        XX    -121.5598     XY     -24.2741     YY     -86.4216
        XZ      -0.0026     YZ      -0.0020     ZZ     -67.6979

 Total job time:  11.73s(wall), 79.79s(cpu)
        *  Thank you very much for using Q-Chem.  Have a nice day.  *
