 Gaussian 16, Revision A.03,
 Gaussian 16:  ES64L-G16RevA.03 25-Dec-2016

 ----------------------------------------------------------------
 #P UB3LYP/6-311++G(d,p) SCRF=(PCM,Solvent=n,n-DiMethylFormamide)
 ----------------------------------------------------------------

 -------
 Reduced
 -------
 Symbolic Z-matrix:
 Charge = -2 Multiplicity = 1

                         Standard orientation:
 ---------------------------------------------------------------------
 Center     Atomic      Atomic             Coordinates (Angstroms)
 Number     Number       Type             X           Y           Z
 ---------------------------------------------------------------------
      1          6           0       -3.762431   -2.044945    0.073488
      2          6           0       -5.104653   -1.751330    0.021963
      3          6           0       -5.539286   -0.398134   -0.061578
      4          6           0       -2.773562   -1.016550    0.044770
      5          6           0       -3.214623    0.354942   -0.040059
      6          6           0       -4.606003    0.615660   -0.090811
      7          6           0       -1.398374   -1.311317    0.096667
      8          6           0       -0.447433   -0.268311    0.067554
      9          6           0       -0.880755    1.102636   -0.019365
     10          6           0       -2.274514    1.444405   -0.074476
     11          6           0        0.984612   -0.606100    0.115026
     12          6           0        1.876769    0.484656    0.110278
     13          6           0        0.114118    2.150718   -0.054452
     14          6           0        1.446471    1.850494    0.006439
     15          8           0       -1.013436   -2.623431    0.179614
     16          8           0       -2.679099    2.678848   -0.152376
     17          8           0        1.360247   -1.844063    0.135469
     18          1           0       -3.420330   -3.071669    0.137820
     19          1           0       -5.837588   -2.554902    0.045320
     20          1           0       -6.601652   -0.169877   -0.101797
     21          1           0       -0.002276   -2.570284    0.183493
     22          8           0       -0.293179    3.454279   -0.146627
     23          1           0        2.180127    2.644114   -0.017101
     24          1           0       -1.306506    3.392208   -0.165035
     25          1           0       -4.903152    1.657078   -0.154151
     26         16           0        3.599638    0.193201    0.249666
     27          8           0        4.320338    1.453324    0.030256
     28          8           0        3.984806   -0.608375    1.421708
     29          8           0        4.050536   -0.726235   -1.087580
     30          6           0        4.200510   -2.144592   -0.910494
     31          1           0        3.284552   -2.571556   -0.500715
     32          1           0        5.053981   -2.363137   -0.260481
     33          1           0        4.391858   -2.531353   -1.915433
 ---------------------------------------------------------------------

 SCF Done:  E(UB3LYP) =  -1502.95259751     A.U. after   16 cycles

 The electronic state is 1-A.
 Alpha  occ. eigenvalues --  -89.06687 -19.15298 -19.11647 -19.11622 -19.10950
 Alpha  occ. eigenvalues --  -19.10485 -19.06784 -19.05417 -10.22614 -10.20726
 Alpha  occ. eigenvalues --  -10.20695 -10.20640 -10.20515 -10.17792 -10.16645
 Alpha  occ. eigenvalues --  -10.16566 -10.16549 -10.16382 -10.16331 -10.16168
 Alpha  occ. eigenvalues --  -10.15961 -10.15923 -10.15063  -8.12731  -6.09107
 Alpha  occ. eigenvalues --   -6.08975  -6.08745  -1.12931  -1.02972  -1.02315
 Alpha  occ. eigenvalues --   -1.02078  -1.00502  -0.98138  -0.96556  -0.85084
 Alpha  occ. eigenvalues --   -0.82740  -0.78693  -0.74832  -0.74140  -0.72002
 Alpha  occ. eigenvalues --   -0.70451  -0.67356  -0.64542  -0.62061  -0.59844
 Alpha  occ. eigenvalues --   -0.57015  -0.56692  -0.53638  -0.52939  -0.50769
 Alpha  occ. eigenvalues --   -0.50407  -0.48296  -0.47992  -0.47063  -0.45680
 Alpha  occ. eigenvalues --   -0.45044  -0.44179  -0.43465  -0.42403  -0.41811
 Alpha  occ. eigenvalues --   -0.41614  -0.41401  -0.40357  -0.39146  -0.38539
 Alpha  occ. eigenvalues --   -0.38196  -0.37851  -0.37361  -0.36602  -0.34805
 Alpha  occ. eigenvalues --   -0.34680  -0.34208  -0.33370  -0.33135  -0.32417
 Alpha  occ. eigenvalues --   -0.32157  -0.31327  -0.30382  -0.30078  -0.28067
 Alpha  occ. eigenvalues --   -0.26046  -0.24707  -0.24432  -0.23564  -0.22664
 Alpha  occ. eigenvalues --   -0.19114  -0.13732
 Alpha virt. eigenvalues --   -0.03987  -0.02159   0.00009   0.00655   0.01102
 Alpha virt. eigenvalues --    0.01366   0.01965   0.02013   0.03043   0.03648
 Alpha virt. eigenvalues --    0.03941   0.04377   0.04509   0.05148   0.05567

  Beta  occ. eigenvalues --  -89.06687 -19.15298 -19.11647 -19.11622 -19.10950
  Beta  occ. eigenvalues --  -19.10485 -19.06784 -19.05417 -10.22614 -10.20726
  Beta  occ. eigenvalues --  -10.20695 -10.20640 -10.20515 -10.17792 -10.16645
  Beta  occ. eigenvalues --  -10.16566 -10.16549 -10.16382 -10.16331 -10.16168
  Beta  occ. eigenvalues --  -10.15961 -10.15923 -10.15063  -8.12731  -6.09107
  Beta  occ. eigenvalues --   -6.08975  -6.08745  -1.12931  -1.02972  -1.02315
  Beta  occ. eigenvalues --   -1.02078  -1.00502  -0.98138  -0.96556  -0.85084
  Beta  occ. eigenvalues --   -0.82740  -0.78693  -0.74832  -0.74140  -0.72002
  Beta  occ. eigenvalues --   -0.70451  -0.67356  -0.64542  -0.62061  -0.59844
  Beta  occ. eigenvalues --   -0.57015  -0.56692  -0.53638  -0.52939  -0.50769
  Beta  occ. eigenvalues --   -0.50407  -0.48296  -0.47992  -0.47063  -0.45680
  Beta  occ. eigenvalues --   -0.45044  -0.44179  -0.43465  -0.42403  -0.41811
  Beta  occ. eigenvalues --   -0.41614  -0.41401  -0.40357  -0.39146  -0.38539
  Beta  occ. eigenvalues --   -0.38196  -0.37851  -0.37361  -0.36602  -0.34805
  Beta  occ. eigenvalues --   -0.34680  -0.34208  -0.33370  -0.33135  -0.32417
  Beta  occ. eigenvalues --   -0.32157  -0.31327  -0.30382  -0.30078  -0.28067
  Beta  occ. eigenvalues --   -0.26046  -0.24707  -0.24432  -0.23564  -0.22664
  Beta  occ. eigenvalues --   -0.19114  -0.13732
  Beta virt. eigenvalues --   -0.03987  -0.02159   0.00009   0.00655   0.01102
  Beta virt. eigenvalues --    0.01366   0.01965   0.02013   0.03043   0.03648
  Beta virt. eigenvalues --    0.03941   0.04377   0.04509   0.05148   0.05567

 Mulliken charges and spin densities:
               1          2
     1  C   -0.240705   0.000000
     2  C   -0.408629   0.000000
     3  C   -0.498622   0.000000
     4  C    0.264880  -0.000000
     5  C    0.144482  -0.000000
     6  C   -0.114993  -0.000000
     7  C   -0.137686  -0.000000
     8  C    0.611142   0.000000
     9  C    0.825383   0.000000
    10  C   -0.318717   0.000000
    11  C   -0.735976   0.000000
    12  C   -1.006339  -0.000000
    13  C   -0.352468   0.000000
    14  C   -0.288573  -0.000000
    15  O   -0.490274  -0.000000
    16  O   -0.613174   0.000000
    17  O   -0.505921   0.000000
    18  H    0.152518   0.000000
    19  H    0.177312  -0.000000
    20  H    0.173304   0.000000
    21  H    0.445910   0.000000
    22  O   -0.464012   0.000000
    23  H    0.213051   0.000000
    24  H    0.373463  -0.000000
    25  H    0.165816  -0.000000
    26  S    1.190633  -0.000000
    27  O   -0.275555  -0.000000
    28  O   -0.277276  -0.000000
    29  O   -0.201876  -0.000000
    30  C   -0.344698   0.000000
    31  H    0.226621   0.000000
    32  H    0.166723  -0.000000
    33  H    0.144257   0.000000
 Sum of Mulliken charges =  -2.00000   0.00000

 Dipole moment (field-independent basis, Debye):
    X=             -3.0434    Y=             -7.0008    Z=             -1.7563  Tot=              7.8332
 Quadrupole moment (field-independent basis, Debye-Ang):
   XX=           -225.0777   YY=           -193.2592   ZZ=           -155.6052
   XY=              1.2317   XZ=             -8.3939   YZ=              6.1357

 Normal termination of Gaussian 16 at Tue Jan 16 06:24:51 2024.
