 Q-Chem 5.4, Q-Chem, Inc., Pleasanton, CA (2021)
 Q-Chem 5.4.0 for Intel X86 EM64T Linux

User input:
--------------------------------------------------------------
$molecule
-1 2
C                  0.4910750000      1.7038820000     -2.0313420000
C                 -0.8688580000      2.0133190000     -2.4762580000
C                 -1.8160840000      1.0636980000     -2.6804860000
C                 -1.5477590000     -0.3557040000     -2.4691550000
C                 -0.2177680000     -0.6709090000     -2.0315000000
C                  0.7745180000      0.2828990000     -1.8129320000
O                  1.3214130000      2.6256750000     -1.8638870000
O                 -2.4362670000     -1.2316910000     -2.6625120000
C                  3.2431310000      0.7550670000     -1.0801460000
C                  4.1706580000      1.0368820000     -2.0952660000
C                  3.4436150000      1.2283100000      0.2260060000
C                  4.5812920000      1.9910410000      0.5013120000
C                  5.2982380000      1.8018000000     -1.7871340000
C                  5.5077800000      2.2792000000     -0.4965600000
H                 -1.0767490000      3.0674970000     -2.6364180000
H                 -2.8177880000      1.3247720000     -3.0116680000
H                  0.0187610000     -1.7154580000     -1.8630920000
H                  4.7372070000      2.3645220000      1.5093800000
H                  6.0154250000      2.0274420000     -2.5711760000
H                  6.3875710000      2.8733270000     -0.2700350000
C                  2.0924720000     -0.1978490000     -1.3609980000
O                  2.3270080000     -1.3959420000     -1.1857460000
C                  2.4332870000      0.9460370000      1.3126820000
H                  2.2483430000     -0.1264880000      1.4181690000
H                  1.4744430000      1.4206260000      1.0816490000
H                  2.7790220000      1.3312500000      2.2753760000
C                  3.9405620000      0.5512470000     -3.5066560000
H                  3.0463960000      1.0168090000     -3.9329550000
H                  3.7909540000     -0.5314450000     -3.5383700000
H                  4.7905720000      0.7994050000     -4.1474600000
$end

$rem
BASIS  =  6-311++G(d,p)
GUI  =  2
JOB_TYPE  =  SP
METHOD  =  B3LYP
SCF_CONVERGENCE  = 8
SOLVENT_METHOD = sm12
$end

$smx
solvent dimethylformamide
charges CM5
$end

--------------------------------------------------------------

             Standard Nuclear Orientation (Angstroms)
    I     Atom           X                Y                Z
 ----------------------------------------------------------------
    1      C       0.4910750000     1.7038820000    -2.0313420000
    2      C      -0.8688580000     2.0133190000    -2.4762580000
    3      C      -1.8160840000     1.0636980000    -2.6804860000
    4      C      -1.5477590000    -0.3557040000    -2.4691550000
    5      C      -0.2177680000    -0.6709090000    -2.0315000000
    6      C       0.7745180000     0.2828990000    -1.8129320000
    7      O       1.3214130000     2.6256750000    -1.8638870000
    8      O      -2.4362670000    -1.2316910000    -2.6625120000
    9      C       3.2431310000     0.7550670000    -1.0801460000
   10      C       4.1706580000     1.0368820000    -2.0952660000
   11      C       3.4436150000     1.2283100000     0.2260060000
   12      C       4.5812920000     1.9910410000     0.5013120000
   13      C       5.2982380000     1.8018000000    -1.7871340000
   14      C       5.5077800000     2.2792000000    -0.4965600000
   15      H      -1.0767490000     3.0674970000    -2.6364180000
   16      H      -2.8177880000     1.3247720000    -3.0116680000
   17      H       0.0187610000    -1.7154580000    -1.8630920000
   18      H       4.7372070000     2.3645220000     1.5093800000
   19      H       6.0154250000     2.0274420000    -2.5711760000
   20      H       6.3875710000     2.8733270000    -0.2700350000
   21      C       2.0924720000    -0.1978490000    -1.3609980000
   22      O       2.3270080000    -1.3959420000    -1.1857460000
   23      C       2.4332870000     0.9460370000     1.3126820000
   24      H       2.2483430000    -0.1264880000     1.4181690000
   25      H       1.4744430000     1.4206260000     1.0816490000
   26      H       2.7790220000     1.3312500000     2.2753760000
   27      C       3.9405620000     0.5512470000    -3.5066560000
   28      H       3.0463960000     1.0168090000    -3.9329550000
   29      H       3.7909540000    -0.5314450000    -3.5383700000
   30      H       4.7905720000     0.7994050000    -4.1474600000
 ----------------------------------------------------------------

   17    -804.7686259271      8.99e-09  Convergence criterion met
 Total energy in the final basis set =     -804.8525050025

                    Orbital Energies (a.u.)
 --------------------------------------------------------------

 Alpha MOs
 -- Occupied --
-19.1089 -19.0878 -19.0877 -10.2608 -10.2398 -10.2299 -10.1881 -10.1881
-10.1836 -10.1832 -10.1810 -10.1805 -10.1788 -10.1775 -10.1749 -10.1748
-10.1706 -10.1705  -1.0390  -1.0145  -1.0071  -0.8675  -0.8361  -0.7894
 -0.7779  -0.7637  -0.7100  -0.6953  -0.6862  -0.6479  -0.6078  -0.5923
 -0.5810  -0.5451  -0.5011  -0.4874  -0.4858  -0.4782  -0.4631  -0.4432
 -0.4369  -0.4269  -0.4251  -0.4208  -0.4197  -0.4119  -0.4107  -0.4069
 -0.3895  -0.3885  -0.3795  -0.3774  -0.3726  -0.3566  -0.3498  -0.3446
 -0.2916  -0.2757  -0.2743  -0.2511  -0.2480  -0.2451  -0.2330  -0.1778

 Beta MOs
 -- Occupied --
-19.1080 -19.0820 -19.0794 -10.2605 -10.2394 -10.2293 -10.1881 -10.1881
-10.1834 -10.1832 -10.1801 -10.1796 -10.1775 -10.1757 -10.1749 -10.1748
-10.1706 -10.1705  -1.0372  -1.0048  -0.9928  -0.8674  -0.8301  -0.7894
 -0.7767  -0.7615  -0.7078  -0.6873  -0.6862  -0.6453  -0.6060  -0.5888
 -0.5810  -0.5435  -0.4992  -0.4869  -0.4842  -0.4745  -0.4618  -0.4416
 -0.4358  -0.4266  -0.4210  -0.4201  -0.4118  -0.4084  -0.4068  -0.4051
 -0.3845  -0.3806  -0.3749  -0.3701  -0.3565  -0.3559  -0.3496  -0.3439
 -0.2724  -0.2682  -0.2563  -0.2478  -0.2472  -0.2400  -0.2297

          Ground-State Mulliken Net Atomic Charges

     Atom                 Charge (a.u.)    Spin (a.u.)
  --------------------------------------------------------
      1 C                    -1.415092      -0.010168
      2 C                     0.425771       0.095996
      3 C                     0.378799       0.012856
      4 C                    -1.088633       0.092959
      5 C                    -0.896157       0.138270
      6 C                     0.220726       0.113988
      7 O                    -0.184135       0.214670
      8 O                    -0.370701       0.294117
      9 C                    -0.404812      -0.020630
     10 C                    -0.539984       0.003881
     11 C                    -0.540517       0.003833
     12 C                     0.825037       0.001851
     13 C                     0.831683       0.002117
     14 C                     0.370383      -0.001899
     15 H                     0.272959      -0.006227
     16 H                     0.277309      -0.002251
     17 H                     0.152877      -0.017642
     18 H                     0.261162       0.000011
     19 H                     0.260271       0.000037
     20 H                     0.346286       0.000044
     21 C                    -0.835481       0.044074
     22 O                    -0.256515       0.036256
     23 C                    -0.062298       0.001630
     24 H                     0.149941      -0.000117
     25 H                     0.115624       0.000308
     26 H                     0.254317       0.000150
     27 C                    -0.068674       0.001742
     28 H                     0.117015       0.000124
     29 H                     0.148331      -0.000144
     30 H                     0.254510       0.000165
  --------------------------------------------------------
  Sum of atomic charges =    -1.000000

                    Cartesian Multipole Moments
 -----------------------------------------------------------------
    Charge (ESU x 10^10)
                -4.8032
    Dipole Moment (Debye)
         X      -1.4724      Y       0.5084      Z       9.2404
       Tot       9.3708
    Quadrupole Moments (Debye-Ang)
        XX    -138.2714     XY      -8.7661     YY    -131.3437
        XZ      -6.5259     YZ      -1.3521     ZZ    -125.3999

 Total job time:  862.55s(wall), 6734.31s(cpu)
        *  Thank you very much for using Q-Chem.  Have a nice day.  *
