 Gaussian 16, Revision A.03,
 Gaussian 16:  ES64L-G16RevA.03 25-Dec-2016

 ----------------------------------------------------------------
 #P UB3LYP/6-311++G(d,p) SCRF=(PCM,Solvent=n,n-DiMethylFormamide)
 ----------------------------------------------------------------

 ------------------
 Radical PCM in DMF
 ------------------
 Symbolic Z-matrix:
 Charge = -1 Multiplicity = 2

                         Standard orientation:
 ---------------------------------------------------------------------
 Center     Atomic      Atomic             Coordinates (Angstroms)
 Number     Number       Type             X           Y           Z
 ---------------------------------------------------------------------
      1          6           0       -3.912846   -1.807875    0.024621
      2          6           0       -5.235082   -1.423559    0.138022
      3          6           0       -5.562263   -0.055191    0.228680
      4          6           0       -2.877401   -0.851464   -0.002517
      5          6           0       -3.206014    0.528032    0.088563
      6          6           0       -4.563064    0.898069    0.203845
      7          6           0       -1.485538   -1.311270   -0.125717
      8          6           0       -0.463692   -0.259546   -0.147901
      9          6           0       -0.799948    1.128096   -0.055700
     10          6           0       -2.179428    1.579276    0.067559
     11          6           0        0.885372   -0.633202   -0.260848
     12          6           0        0.241332    2.087398   -0.086835
     13          6           0        1.560474    1.718065   -0.198829
     14          8           0       -1.195030   -2.522736   -0.204093
     15          8           0       -2.479178    2.795875    0.150800
     16          1           0       -3.630141   -2.851672   -0.047075
     17          1           0       -6.021075   -2.172192    0.157273
     18          1           0       -6.601080    0.248209    0.317662
     19          1           0        2.354051    2.453134   -0.235272
     20          1           0       -4.786668    1.956241    0.271859
     21          1           0        1.124215   -1.686944   -0.332382
     22          1           0       -0.042189    3.131081   -0.022271
     23          6           0        1.870278    0.337048   -0.287221
     24         16           0        3.560027   -0.152225   -0.390723
     25          8           0        3.705112   -1.502901   -0.930390
     26          8           0        4.382610    0.921819   -0.951658
     27          8           0        3.917573   -0.232668    1.236710
     28          6           0        5.264457   -0.626045    1.546826
     29          1           0        5.472999   -1.627042    1.160579
     30          1           0        5.319910   -0.629848    2.634862
     31          1           0        5.981031    0.092538    1.140089
 ---------------------------------------------------------------------

 SCF Done:  E(UB3LYP) =  -1352.30862659     A.U. after   22 cycles

 The electronic state is 2-A.
 Alpha  occ. eigenvalues --  -89.08939 -19.17537 -19.13926 -19.13808 -19.08851
 Alpha  occ. eigenvalues --  -19.08370 -10.23888 -10.23158 -10.22970 -10.22145
 Alpha  occ. eigenvalues --  -10.20050 -10.19547 -10.18806 -10.18735 -10.18491
 Alpha  occ. eigenvalues --  -10.18193 -10.18137 -10.17935 -10.17845 -10.17634
 Alpha  occ. eigenvalues --  -10.17531  -8.15050  -6.11418  -6.11260  -6.11092
 Alpha  occ. eigenvalues --   -1.15562  -1.04668  -1.03016  -1.01799  -1.01021
 Alpha  occ. eigenvalues --   -0.88295  -0.86298  -0.80971  -0.77846  -0.76157
 Alpha  occ. eigenvalues --   -0.75682  -0.73396  -0.68504  -0.66566  -0.63963
 Alpha  occ. eigenvalues --   -0.61383  -0.60027  -0.57121  -0.56079  -0.54370
 Alpha  occ. eigenvalues --   -0.52958  -0.50721  -0.49758  -0.48128  -0.47511
 Alpha  occ. eigenvalues --   -0.46759  -0.45893  -0.45778  -0.44566  -0.43308
 Alpha  occ. eigenvalues --   -0.43056  -0.42701  -0.42287  -0.41780  -0.41007
 Alpha  occ. eigenvalues --   -0.40105  -0.39047  -0.38288  -0.36967  -0.35896
 Alpha  occ. eigenvalues --   -0.35585  -0.35336  -0.35207  -0.34353  -0.33842
 Alpha  occ. eigenvalues --   -0.33361  -0.30472  -0.28283  -0.27691  -0.26228
 Alpha  occ. eigenvalues --   -0.26046  -0.25637  -0.24660  -0.15296
 Alpha virt. eigenvalues --   -0.07113  -0.04454  -0.01584  -0.00730   0.00061
 Alpha virt. eigenvalues --    0.00974   0.01311   0.01787   0.02179   0.02534
 Alpha virt. eigenvalues --    0.03094   0.03670   0.03985   0.04448   0.04600

  Beta  occ. eigenvalues --  -89.08938 -19.17528 -19.13918 -19.13805 -19.08358
  Beta  occ. eigenvalues --  -19.07769 -10.23766 -10.22994 -10.22966 -10.22062
  Beta  occ. eigenvalues --  -10.20098 -10.19444 -10.18698 -10.18577 -10.18499
  Beta  occ. eigenvalues --  -10.18154 -10.18078 -10.17915 -10.17802 -10.17639
  Beta  occ. eigenvalues --  -10.17513  -8.15048  -6.11411  -6.11259  -6.11094
  Beta  occ. eigenvalues --   -1.15542  -1.04648  -1.03004  -1.00943  -0.99968
  Beta  occ. eigenvalues --   -0.88057  -0.86157  -0.80591  -0.77624  -0.75984
  Beta  occ. eigenvalues --   -0.75521  -0.73261  -0.67955  -0.66307  -0.63746
  Beta  occ. eigenvalues --   -0.61231  -0.59957  -0.56983  -0.55888  -0.54193
  Beta  occ. eigenvalues --   -0.52886  -0.50560  -0.49713  -0.47900  -0.47397
  Beta  occ. eigenvalues --   -0.46639  -0.45871  -0.45724  -0.44539  -0.43006
  Beta  occ. eigenvalues --   -0.42599  -0.42033  -0.41798  -0.41564  -0.40938
  Beta  occ. eigenvalues --   -0.39873  -0.37893  -0.36866  -0.36790  -0.35801
  Beta  occ. eigenvalues --   -0.35547  -0.35183  -0.34436  -0.34180  -0.33831
  Beta  occ. eigenvalues --   -0.33104  -0.30452  -0.27178  -0.26173  -0.25565
  Beta  occ. eigenvalues --   -0.25307  -0.25149  -0.24134
  Beta virt. eigenvalues --   -0.09478  -0.06336  -0.03366  -0.01317  -0.00711
  Beta virt. eigenvalues --    0.00073   0.01028   0.01374   0.01932   0.02242
  Beta virt. eigenvalues --    0.02747   0.03199   0.03685   0.04114   0.04513

 Mulliken charges and spin densities:
               1          2
     1  C    0.059280   0.012461
     2  C   -0.443259   0.036169
     3  C   -0.477789   0.013130
     4  C    0.333664   0.023332
     5  C    0.399793   0.003563
     6  C    0.070973   0.038356
     7  C   -0.758061   0.065971
     8  C    0.402833   0.080015
     9  C    0.752497   0.106540
    10  C   -0.410211   0.092198
    11  C    0.116071  -0.025727
    12  C   -0.066792   0.019684
    13  C   -0.426054   0.087989
    14  O   -0.409539   0.182643
    15  O   -0.433547   0.224093
    16  H    0.167383  -0.000979
    17  H    0.188315  -0.002788
    18  H    0.187432  -0.001390
    19  H    0.238920  -0.005667
    20  H    0.169347  -0.002668
    21  H    0.219338   0.001464
    22  H    0.172127  -0.000677
    23  C   -1.204165   0.040701
    24  S    0.309562   0.007653
    25  O   -0.229948   0.003207
    26  O   -0.237171  -0.001502
    27  O   -0.082429   0.000235
    28  C   -0.137397   0.001484
    29  H    0.171740   0.000063
    30  H    0.185366   0.000421
    31  H    0.171722   0.000025
 Sum of Mulliken charges =  -1.00000   1.00000

 Dipole moment (field-independent basis, Debye):
    X=              2.1376    Y=             -0.3887    Z=              3.1567  Tot=              3.8321
 Quadrupole moment (field-independent basis, Debye-Ang):
   XX=           -149.2882   YY=           -162.0018   ZZ=           -135.5853
   XY=              9.4695   XZ=             16.5216   YZ=             -3.9774

 Normal termination of Gaussian 16 at Tue Jan 16 06:05:24 2024.
