 Gaussian 16, Revision A.03,
 Gaussian 16:  ES64L-G16RevA.03 25-Dec-2016

 ----------------------------------------------------------------
 #P UB3LYP/6-311++G(d,p) SCRF=(PCM,Solvent=n,n-DiMethylFormamide)
 ----------------------------------------------------------------

 ------------------
 Radical PCM in DMF
 ------------------
 Symbolic Z-matrix:
 Charge = -1 Multiplicity = 2

                         Standard orientation:
 ---------------------------------------------------------------------
 Center     Atomic      Atomic             Coordinates (Angstroms)
 Number     Number       Type             X           Y           Z
 ---------------------------------------------------------------------
      1          6           0       -5.771327    0.086019   -0.915625
      2          6           0       -6.402774   -1.142086   -0.981484
      3          6           0       -5.748044   -2.298317   -0.510693
      4          6           0       -4.470318    0.202794   -0.379921
      5          6           0       -3.806840   -0.964593    0.095982
      6          6           0       -4.470876   -2.201209    0.017564
      7          6           0       -3.809927    1.489046   -0.311326
      8          6           0       -2.479778    1.507305    0.252396
      9          6           0       -1.811889    0.398884    0.728606
     10          6           0       -2.443794   -0.901474    0.665314
     11          8           0       -4.309742    2.593362   -0.706795
     12          8           0       -1.866164   -1.941207    1.077831
     13          1           0       -6.254248    0.989336   -1.271080
     14          1           0       -7.403934   -1.217119   -1.396231
     15          1           0       -6.244764   -3.262634   -0.562759
     16          1           0       -3.943374   -3.073759    0.386160
     17          8           0       -1.919545    2.751698    0.281745
     18          6           0       -0.421997    0.500539    1.301758
     19          6           0        0.684482    0.217617    0.267199
     20          6           0        2.095513    0.285382    0.861400
     21          6           0        3.207063    0.004758   -0.156494
     22          6           0        4.620102    0.069322    0.435001
     23          1           0       -2.633555    3.303390   -0.108262
     24          1           0       -0.332228   -0.231103    2.111242
     25          1           0       -0.271339    1.499861    1.722953
     26          1           0        0.598180    0.938271   -0.554928
     27          1           0        0.513174   -0.776347   -0.159591
     28          1           0        2.172623   -0.434656    1.687038
     29          1           0        2.255821    1.277503    1.305680
     30          1           0        3.128723    0.722983   -0.983433
     31          1           0        3.046016   -0.986420   -0.600130
     32          1           0        4.698032   -0.648610    1.262230
     33          1           0        4.781238    1.060867    0.878792
     34          6           0        5.730718   -0.213328   -0.583395
     35          1           0        5.653339    0.504686   -1.410524
     36          1           0        5.569053   -1.204361   -1.027473
     37          6           0        7.143445   -0.150540    0.008111
     38          1           0        7.221932   -0.868896    0.835025
     39          1           0        7.306410    0.840464    0.452443
     40          6           0        8.254043   -0.433361   -1.010066
     41          6           0        9.661641   -0.368695   -0.409097
     42          1           0        8.176878    0.284530   -1.835974
     43          1           0        8.092200   -1.423481   -1.453745
     44          1           0        9.866042    0.621021    0.012338
     45          1           0       10.429949   -0.574776   -1.160515
     46          1           0        9.780786   -1.099939    0.397112
 ---------------------------------------------------------------------

 SCF Done:  E(UB3LYP) =  -964.591766106     A.U. after   20 cycles

 The electronic state is 2-A.
 Alpha  occ. eigenvalues --  -19.14246 -19.08507 -19.07298 -10.22205 -10.22027
 Alpha  occ. eigenvalues --  -10.21975 -10.17392 -10.17248 -10.17170 -10.17135
 Alpha  occ. eigenvalues --  -10.17056 -10.16904 -10.16132 -10.16061 -10.15812
 Alpha  occ. eigenvalues --  -10.15785 -10.15759 -10.15723 -10.15710 -10.15644
 Alpha  occ. eigenvalues --  -10.15586 -10.15444  -1.06240  -0.99840  -0.99487
 Alpha  occ. eigenvalues --   -0.85786  -0.81394  -0.80547  -0.78749  -0.76466
 Alpha  occ. eigenvalues --   -0.75048  -0.74053  -0.71127  -0.68015  -0.65940
 Alpha  occ. eigenvalues --   -0.62840  -0.61460  -0.59437  -0.57667  -0.57299
 Alpha  occ. eigenvalues --   -0.56972  -0.56671  -0.53599  -0.50358  -0.48465
 Alpha  occ. eigenvalues --   -0.48021  -0.46616  -0.45640  -0.45196  -0.43746
 Alpha  occ. eigenvalues --   -0.43490  -0.42951  -0.42626  -0.42068  -0.41483
 Alpha  occ. eigenvalues --   -0.40863  -0.40140  -0.39625  -0.39345  -0.38669
 Alpha  occ. eigenvalues --   -0.37899  -0.37300  -0.36765  -0.36358  -0.35235
 Alpha  occ. eigenvalues --   -0.34614  -0.34350  -0.34123  -0.33784  -0.33319
 Alpha  occ. eigenvalues --   -0.32684  -0.32370  -0.32031  -0.31808  -0.31676
 Alpha  occ. eigenvalues --   -0.30100  -0.26639  -0.25890  -0.25726  -0.23820
 Alpha  occ. eigenvalues --   -0.22665  -0.14999
 Alpha virt. eigenvalues --   -0.03224  -0.00776  -0.00446  -0.00148   0.00560
 Alpha virt. eigenvalues --    0.00865   0.00894   0.01416   0.01743   0.02236
 Alpha virt. eigenvalues --    0.02652   0.02910   0.03719   0.03969   0.04338

  Beta  occ. eigenvalues --  -19.14200 -19.07879 -19.06765 -10.22072 -10.21925
  Beta  occ. eigenvalues --  -10.21690 -10.17376 -10.17243 -10.17061 -10.17045
  Beta  occ. eigenvalues --  -10.17005 -10.16929 -10.16061 -10.16052 -10.15812
  Beta  occ. eigenvalues --  -10.15785 -10.15759 -10.15730 -10.15709 -10.15643
  Beta  occ. eigenvalues --  -10.15577 -10.15444  -1.06026  -0.98910  -0.98424
  Beta  occ. eigenvalues --   -0.85551  -0.81250  -0.80411  -0.78634  -0.76338
  Beta  occ. eigenvalues --   -0.74831  -0.73963  -0.71031  -0.67597  -0.65443
  Beta  occ. eigenvalues --   -0.62742  -0.61284  -0.59275  -0.57609  -0.57272
  Beta  occ. eigenvalues --   -0.56920  -0.56472  -0.53426  -0.50130  -0.48347
  Beta  occ. eigenvalues --   -0.47870  -0.46516  -0.45562  -0.45098  -0.43554
  Beta  occ. eigenvalues --   -0.43157  -0.42662  -0.42380  -0.41781  -0.41013
  Beta  occ. eigenvalues --   -0.40694  -0.39846  -0.39536  -0.39149  -0.37808
  Beta  occ. eigenvalues --   -0.37624  -0.37021  -0.36588  -0.35782  -0.34878
  Beta  occ. eigenvalues --   -0.34317  -0.34001  -0.33737  -0.33199  -0.32747
  Beta  occ. eigenvalues --   -0.32641  -0.32279  -0.32022  -0.31801  -0.31631
  Beta  occ. eigenvalues --   -0.30036  -0.25340  -0.25020  -0.24673  -0.23317
  Beta  occ. eigenvalues --   -0.21770
  Beta virt. eigenvalues --   -0.08470  -0.02470  -0.00469  -0.00141   0.00318
  Beta virt. eigenvalues --    0.00606   0.00870   0.00908   0.01424   0.01750
  Beta virt. eigenvalues --    0.02248   0.02658   0.02921   0.03737   0.03976

 Mulliken charges and spin densities:
               1          2
     1  C    0.019091   0.073805
     2  C   -0.373153  -0.001068
     3  C   -0.453625   0.072667
     4  C    0.535330  -0.002154
     5  C   -0.102889   0.061701
     6  C    0.079708   0.002485
     7  C   -0.948799   0.166214
     8  C   -0.610103   0.058096
     9  C    2.050280   0.055247
    10  C   -0.725306   0.074655
    11  O   -0.524837   0.229498
    12  O   -0.455156   0.197914
    13  H    0.165585  -0.004074
    14  H    0.182758  -0.000635
    15  H    0.178087  -0.005193
    16  H    0.167130  -0.000276
    17  O   -0.285170   0.015917
    18  C   -0.392501   0.011895
    19  C   -0.780149  -0.001606
    20  C   -0.221886   0.001358
    21  C    0.044862  -0.004405
    22  C    0.015460  -0.000965
    23  H    0.290067  -0.003681
    24  H    0.200254   0.002619
    25  H    0.215687  -0.000555
    26  H    0.165298   0.002058
    27  H    0.177076  -0.001749
    28  H    0.115355   0.000474
    29  H    0.112517  -0.000370
    30  H    0.124276  -0.000028
    31  H    0.123779  -0.000027
    32  H    0.130865  -0.000003
    33  H    0.130312  -0.000008
    34  C   -0.187575  -0.000060
    35  H    0.127297  -0.000005
    36  H    0.127210   0.000003
    37  C   -0.395410   0.000241
    38  H    0.123265   0.000006
    39  H    0.123377  -0.000011
    40  C   -0.265532   0.000005
    41  C   -0.690801   0.000011
    42  H    0.130782  -0.000000
    43  H    0.130952  -0.000000
    44  H    0.139904   0.000002
    45  H    0.146383   0.000005
    46  H    0.139949  -0.000002
 Sum of Mulliken charges =  -1.00000   1.00000

 Dipole moment (field-independent basis, Debye):
    X=             13.8329    Y=             -1.5906    Z=             -1.3728  Tot=             13.9916
 Quadrupole moment (field-independent basis, Debye-Ang):
   XX=           -189.4049   YY=           -161.3839   ZZ=           -145.6683
   XY=             15.2769   XZ=             -0.6076   YZ=              7.0901

 Normal termination of Gaussian 16 at Sun Jan 21 08:44:46 2024.
