 Gaussian 16, Revision A.03,
 Gaussian 16:  ES64L-G16RevA.03 25-Dec-2016

 ----------------------------------------------------------------
 #P UB3LYP/6-311++G(d,p) SCRF=(PCM,Solvent=n,n-DiMethylFormamide)
 ----------------------------------------------------------------

 ------------------
 Radical PCM in DMF
 ------------------
 Symbolic Z-matrix:
 Charge = -1 Multiplicity = 2

                         Standard orientation:
 ---------------------------------------------------------------------
 Center     Atomic      Atomic             Coordinates (Angstroms)
 Number     Number       Type             X           Y           Z
 ---------------------------------------------------------------------
      1          6           0        2.067039   -2.045060   -0.101083
      2          6           0        3.440757   -2.010173    0.060216
      3          6           0        4.096558   -0.774940    0.227073
      4          6           0        1.306813   -0.858904   -0.099614
      5          6           0        1.965820    0.382476    0.066345
      6          6           0        3.365522    0.399590    0.227773
      7          6           0       -0.152749   -0.935246   -0.289335
      8          6           0       -0.864066    0.329195   -0.239823
      9          6           0       -0.225836    1.559640   -0.071761
     10          6           0        1.215480    1.646719    0.072061
     11          8           0       -0.717144   -2.043063   -0.475877
     12          8           0        1.811549    2.750174    0.210741
     13          1           0        1.534866   -2.979711   -0.235029
     14          1           0        4.013296   -2.933202    0.057884
     15          1           0        5.175061   -0.745607    0.352915
     16          1           0        3.842140    1.365169    0.351572
     17         16           0       -2.637220    0.298531   -0.530827
     18          6           0       -0.976237    2.866544   -0.041351
     19          1           0       -1.277192    3.181384   -1.048948
     20          1           0       -0.326091    3.641525    0.365292
     21          1           0       -1.892556    2.784526    0.547912
     22          6           0       -3.247853   -0.904506    0.727783
     23          6           0       -4.744950   -1.129917    0.535708
     24          1           0       -3.039803   -0.495582    1.719770
     25          1           0       -2.680130   -1.823231    0.590760
     26          1           0       -5.311321   -0.197610    0.629394
     27          1           0       -5.122110   -1.829645    1.289479
     28          1           0       -4.953666   -1.553903   -0.450637
 ---------------------------------------------------------------------

 SCF Done:  E(UB3LYP) =  -1051.59957562     A.U. after   22 cycles

 The electronic state is 2-A.
 Alpha  occ. eigenvalues --  -88.83400 -19.07528 -19.07523 -10.22547 -10.22018
 Alpha  occ. eigenvalues --  -10.18976 -10.18662 -10.17604 -10.17340 -10.17302
 Alpha  occ. eigenvalues --  -10.17289 -10.17230 -10.16992 -10.16959 -10.16315
 Alpha  occ. eigenvalues --  -10.15188  -7.92019  -5.88400  -5.88037  -5.87422
 Alpha  occ. eigenvalues --   -1.00309  -0.99931  -0.85850  -0.82397  -0.78602
 Alpha  occ. eigenvalues --   -0.75490  -0.74987  -0.71950  -0.67712  -0.65595
 Alpha  occ. eigenvalues --   -0.61347  -0.59471  -0.57818  -0.55187  -0.51250
 Alpha  occ. eigenvalues --   -0.49036  -0.46629  -0.45323  -0.44773  -0.43211
 Alpha  occ. eigenvalues --   -0.42867  -0.42391  -0.41533  -0.41061  -0.39758
 Alpha  occ. eigenvalues --   -0.38647  -0.38209  -0.37383  -0.37014  -0.36300
 Alpha  occ. eigenvalues --   -0.35532  -0.34908  -0.34354  -0.33649  -0.31577
 Alpha  occ. eigenvalues --   -0.27082  -0.25651  -0.25368  -0.24592  -0.23562
 Alpha  occ. eigenvalues --   -0.21862  -0.15201
 Alpha virt. eigenvalues --   -0.03454  -0.01911  -0.00496   0.00225   0.00796
 Alpha virt. eigenvalues --    0.01869   0.01981   0.02562   0.03503   0.03535
 Alpha virt. eigenvalues --    0.04094   0.04357   0.04831   0.05206   0.05884

  Beta  occ. eigenvalues --  -88.83397 -19.06970 -19.06884 -10.22389 -10.21853
  Beta  occ. eigenvalues --  -10.18849 -10.18653 -10.17415 -10.17311 -10.17258
  Beta  occ. eigenvalues --  -10.17252 -10.17186 -10.16990 -10.16950 -10.16315
  Beta  occ. eigenvalues --  -10.15202  -7.92017  -5.88403  -5.88038  -5.87408
  Beta  occ. eigenvalues --   -0.99318  -0.98811  -0.85645  -0.82034  -0.78438
  Beta  occ. eigenvalues --   -0.75311  -0.74816  -0.71649  -0.67548  -0.64946
  Beta  occ. eigenvalues --   -0.61238  -0.59284  -0.57604  -0.54923  -0.51024
  Beta  occ. eigenvalues --   -0.48803  -0.46385  -0.45260  -0.44701  -0.43070
  Beta  occ. eigenvalues --   -0.42363  -0.41876  -0.41179  -0.40564  -0.39086
  Beta  occ. eigenvalues --   -0.38365  -0.37990  -0.37166  -0.36275  -0.35621
  Beta  occ. eigenvalues --   -0.34946  -0.34316  -0.33793  -0.33407  -0.31251
  Beta  occ. eigenvalues --   -0.25223  -0.24906  -0.24683  -0.23996  -0.23035
  Beta  occ. eigenvalues --   -0.21310
  Beta virt. eigenvalues --   -0.08697  -0.02711  -0.00905  -0.00435   0.00257
  Beta virt. eigenvalues --    0.00827   0.01879   0.02011   0.02575   0.03532
  Beta virt. eigenvalues --    0.03731   0.04166   0.04527   0.05021   0.05272

 Mulliken charges and spin densities:
               1          2
     1  C   -0.013960   0.025730
     2  C   -0.520966   0.025571
     3  C   -0.429531   0.018828
     4  C    0.135513   0.000417
     5  C    0.755773   0.017073
     6  C    0.013326   0.026745
     7  C   -1.240861   0.104499
     8  C    1.315887   0.087400
     9  C    0.942684   0.146454
    10  C   -1.301901   0.086143
    11  O   -0.434911   0.206541
    12  O   -0.457264   0.235660
    13  H    0.176532  -0.001940
    14  H    0.180367  -0.002099
    15  H    0.185503  -0.001800
    16  H    0.163376  -0.002521
    17  S   -0.628822   0.012617
    18  C   -0.289934  -0.003867
    19  H    0.181139   0.008974
    20  H    0.172713  -0.000799
    21  H    0.142129   0.004175
    22  C   -0.286493   0.003629
    23  C   -0.595046   0.002619
    24  H    0.186341   0.000265
    25  H    0.195041  -0.000757
    26  H    0.149522  -0.000043
    27  H    0.150493   0.000075
    28  H    0.153353   0.000411
 Sum of Mulliken charges =  -1.00000   1.00000

 Dipole moment (field-independent basis, Debye):
    X=             -1.7577    Y=             -2.6091    Z=              2.1881  Tot=              3.8320
 Quadrupole moment (field-independent basis, Debye-Ang):
   XX=           -113.6162   YY=           -131.0624   ZZ=           -109.2031
   XY=            -12.8056   XZ=             -6.4228   YZ=             -4.7012

 Normal termination of Gaussian 16 at Sun Jan 21 08:40:26 2024.
