 Q-Chem 5.4, Q-Chem, Inc., Pleasanton, CA (2021)
 Q-Chem 5.4.0 for Intel X86 EM64T Linux

User input:
--------------------------------------------------------------
$molecule
-2 1
C                  1.6886160000      1.0726940000     -0.8200970000
C                  0.4712960000      1.5476700000     -0.2173270000
C                 -0.5167290000      0.6843200000      0.2858020000
C                 -0.3827440000     -0.7483720000      0.2689080000
C                  0.8383390000     -1.2166560000     -0.3213040000
C                  1.8114870000     -0.3566090000     -0.8467310000
O                  2.5965560000      1.8631860000     -1.3174290000
O                 -1.2779990000     -1.5565500000      0.7607540000
O                  2.9145660000     -0.9350970000     -1.4839470000
C                  4.1529550000     -0.6432020000     -0.8603910000
C                  0.2772660000      3.0457970000     -0.1806140000
C                 -1.7748560000      1.2361540000      0.9150980000
H                  4.3014930000      0.4399700000     -0.7998270000
H                  4.9374940000     -1.0988710000     -1.4796760000
H                  4.1997790000     -1.0899520000      0.1472410000
O                  1.1161070000     -2.5878990000     -0.3181250000
C                  0.2141240000     -3.3557730000     -1.0955890000
H                 -0.8132110000     -3.1985110000     -0.7508440000
H                  0.4993240000     -4.4089020000     -0.9682100000
H                  0.2995400000     -3.0976100000     -2.1647740000
H                  1.1657950000      3.5143120000     -0.6123640000
H                  0.1331160000      3.4294940000      0.8421550000
H                 -0.6048430000      3.3729750000     -0.7573630000
H                 -2.3524100000      1.8694990000      0.2227040000
H                 -1.5666930000      1.8613240000      1.8003080000
H                 -2.3974500000      0.3928680000      1.2259740000
$end
$rem
MAX_SCF_CYCLES=200
BASIS  =  6-311++G(d,p)
GUI  =  2
JOB_TYPE  =  SP
METHOD  =  B3LYP
SOLVENT_METHOD = COSMO
$end
$solvent
dielectric 37.219
opticaldielectric 1.43
$end

--------------------------------------------------------------

             Standard Nuclear Orientation (Angstroms)
    I     Atom           X                Y                Z
 ----------------------------------------------------------------
    1      C      -0.4024633996    -1.4699684478     0.1936944053
    2      C      -1.6116833924    -0.6975017434     0.0846803905
    3      C      -1.6115924513     0.6974966125    -0.0846860539
    4      C      -0.4022993064     1.4698407744    -0.1939487637
    5      C       0.8005256336     0.6935556083    -0.0976299861
    6      C       0.8004439178    -0.6937602853     0.0976288400
    7      O      -0.3913097827    -2.7587812121     0.3818672491
    8      O      -0.3910094993     2.7585984686    -0.3824211177
    9      O       2.0363211494    -1.3255711700     0.2734081090
   10      C       2.3380937338    -2.2801806650    -0.7292314627
   11      C      -2.9112161684    -1.4599123188     0.2001129337
   12      C      -2.9110340827     1.4601132454    -0.1999469972
   13      H       1.5511444089    -3.0399215031    -0.7792088195
   14      H       3.2945398815    -2.7435205887    -0.4514249241
   15      H       2.4583934071    -1.7927105296    -1.7115761846
   16      O       2.0365286715     1.3252561664    -0.2729109838
   17      C       2.3375926876     2.2805766040     0.7292753278
   18      H       1.5512551972     3.0410835889     0.7772350078
   19      H       3.2949860055     2.7426405808     0.4526165915
   20      H       2.4557041361     1.7940327096     1.7123446623
   21      H      -2.6737390888    -2.5208066156     0.3163285924
   22      H      -3.5565443338    -1.3337036775    -0.6840148712
   23      H      -3.5142725933    -1.1403260694     1.0672857643
   24      H      -3.5558134131     1.3349324115     0.6847525773
   25      H      -3.5147573255     1.1398774681    -1.0663957266
   26      H      -2.6733436245     2.5208478966    -0.3171805239
 ----------------------------------------------------------------

   12    -689.2965481702      5.75e-06  Convergence criterion met
 Total energy in the final basis set =     -689.2965481702
    5    -689.5894737797      7.90e-06  Convergence criterion met
 Total energy in the final basis set =     -689.5894737797

                    Orbital Energies (a.u.)
 --------------------------------------------------------------

 Alpha MOs
 -- Occupied --
-19.1107 -19.1106 -19.0146 -19.0146 -10.1874 -10.1874 -10.1709 -10.1704
-10.1650 -10.1649 -10.1328 -10.1328 -10.1234 -10.1229  -1.0294  -1.0121
 -0.9258  -0.9231  -0.7848  -0.7355  -0.6950  -0.6767  -0.6652  -0.6140
 -0.6058  -0.5313  -0.5225  -0.4796  -0.4600  -0.4537  -0.4412  -0.4237
 -0.4177  -0.4093  -0.4010  -0.3818  -0.3691  -0.3616  -0.3580  -0.3576
 -0.3416  -0.3307  -0.3261  -0.3130  -0.3092  -0.3053  -0.2597  -0.2558
 -0.2177  -0.1956  -0.1924  -0.1848  -0.1162

          Ground-State Mulliken Net Atomic Charges

     Atom                 Charge (a.u.)
  ----------------------------------------
      1 C                    -0.656063
      2 C                     0.599470
      3 C                     0.598754
      4 C                    -0.656364
      5 C                    -0.111377
      6 C                    -0.103615
      7 O                    -0.760295
      8 O                    -0.760216
      9 O                    -0.230692
     10 C                    -0.259058
     11 C                    -0.471380
     12 C                    -0.471234
     13 H                     0.171023
     14 H                     0.150653
     15 H                     0.123894
     16 O                    -0.229855
     17 C                    -0.258801
     18 H                     0.170927
     19 H                     0.150560
     20 H                     0.123749
     21 H                     0.170528
     22 H                     0.132292
     23 H                     0.137122
     24 H                     0.132348
     25 H                     0.137056
     26 H                     0.170575
  ----------------------------------------
  Sum of atomic charges =    -2.000000

                    Cartesian Multipole Moments
 -----------------------------------------------------------------
    Charge (ESU x 10^10)
                -9.6064
    Dipole Moment (Debye)
         X       1.3575      Y       0.0019      Z       0.0003
       Tot       1.3575
    Quadrupole Moments (Debye-Ang)
        XX    -103.1010     XY      -0.0031     YY    -149.7236
        XZ      -0.0048     YZ      13.6790     ZZ     -94.2030

 Total job time:  49.51s(wall), 370.30s(cpu)
        *  Thank you very much for using Q-Chem.  Have a nice day.  *
