 Gaussian 16, Revision A.03,
 Gaussian 16:  ES64L-G16RevA.03 25-Dec-2016

 ----------------------------------------------------------------------
 #P UB3LYP/6-311++G(d,p) nosym opt freq SCRF=(PCM,Solvent=n,n-DiMethylF
 ormamide)
 ----------------------------------------------------------------------

 -------
 Reduced
 -------
 Symbolic Z-matrix:
 Charge = -2 Multiplicity = 1

 SCF Done:  E(UB3LYP) =  -5686.21840252     A.U. after   16 cycles
 SCF Done:  E(UB3LYP) =  -5686.21918186     A.U. after   12 cycles
 SCF Done:  E(UB3LYP) =  -5686.21925649     A.U. after   13 cycles
 SCF Done:  E(UB3LYP) =  -5686.21930383     A.U. after   12 cycles
 SCF Done:  E(UB3LYP) =  -5686.21940321     A.U. after   11 cycles
 SCF Done:  E(UB3LYP) =  -5686.21941580     A.U. after   11 cycles
 SCF Done:  E(UB3LYP) =  -5686.21941682     A.U. after    9 cycles
 SCF Done:  E(UB3LYP) =  -5686.21941769     A.U. after   10 cycles
 SCF Done:  E(UB3LYP) =  -5686.21941876     A.U. after   10 cycles
 SCF Done:  E(UB3LYP) =  -5686.21941988     A.U. after   10 cycles
 SCF Done:  E(UB3LYP) =  -5686.21942122     A.U. after    9 cycles
 SCF Done:  E(UB3LYP) =  -5686.21942291     A.U. after   10 cycles
 SCF Done:  E(UB3LYP) =  -5686.21942302     A.U. after    9 cycles
 SCF Done:  E(UB3LYP) =  -5686.21942305     A.U. after    8 cycles
 Optimization completed.
    -- Stationary point found.
 Normal termination of Gaussian 16 at Sat Feb 10 11:14:10 2024.

 ----------------------------------------------------------------------
 #P Geom=AllCheck Guess=TCheck SCRF=Check GenChk UB3LYP/6-311++G(d,p) F
 req
 ----------------------------------------------------------------------

 Structure from the checkpoint file:  "019-an.chk"
 -------
 Reduced
 -------
 Charge = -2 Multiplicity = 1

                          Input orientation:
 ---------------------------------------------------------------------
 Center     Atomic      Atomic             Coordinates (Angstroms)
 Number     Number       Type             X           Y           Z
 ---------------------------------------------------------------------
      1          6           0       -2.913607    0.381732    0.525185
      2          6           0       -1.922307   -0.411943   -0.348636
      3          6           0       -2.263628   -0.309649   -1.848501
      4          6           0       -0.450266   -0.169419   -0.014292
      5          6           0        0.260275    1.024728   -0.197769
      6         35           0       -0.647957    2.624526   -0.918387
      7          6           0        1.637866    1.265103    0.093687
      8          8           0        2.240843    2.401949   -0.093083
      9          6           0        2.319924    0.115717    0.625174
     10          6           0        1.615256   -1.072605    0.821414
     11         35           0        2.591680   -2.607065    1.574319
     12          6           0        0.241858   -1.315241    0.540220
     13          8           0       -0.346360   -2.455314    0.754854
     14          6           0        3.785977    0.258609    0.950924
     15          1           0       -2.875139    1.455119    0.331435
     16          1           0       -2.704159    0.222901    1.587667
     17          1           0       -3.938297    0.041941    0.334457
     18          1           0       -2.059563   -1.461217   -0.081195
     19          1           0       -2.189917    0.710801   -2.227805
     20          1           0       -1.592063   -0.939005   -2.440923
     21          1           0       -3.287442   -0.660186   -2.023579
     22          1           0        4.394807   -0.492303    0.436437
     23          1           0        4.118459    1.250495    0.647132
     24          1           0        3.983763    0.140326    2.023021
 ---------------------------------------------------------------------

 SCF Done:  E(UB3LYP) =  -5686.21942305     A.U. after    1 cycles

 Alpha  occ. eigenvalues -- -482.79975-482.79655 -62.45260 -62.44946 -56.27254
 Alpha  occ. eigenvalues --  -56.26942 -56.26941 -56.26908 -56.26624 -56.26590
 Alpha  occ. eigenvalues --  -19.01750 -19.01667 -10.18170 -10.18088 -10.18006
 Alpha  occ. eigenvalues --  -10.17823 -10.15139 -10.14509 -10.14398 -10.14047
 Alpha  occ. eigenvalues --  -10.14041 -10.14029  -8.66219  -8.65910  -6.49220
 Alpha  occ. eigenvalues --   -6.48920  -6.48177  -6.48081  -6.47865  -6.47768
 Alpha  occ. eigenvalues --   -2.60339  -2.60058  -2.60037  -2.59985  -2.59754
 Alpha  occ. eigenvalues --   -2.59679  -2.59155  -2.59154  -2.58841  -2.58839
 Alpha  occ. eigenvalues --   -0.93460  -0.92986  -0.81335  -0.79144  -0.76018
 Alpha  occ. eigenvalues --   -0.74170  -0.71366  -0.66757  -0.65145  -0.64099
 Alpha  occ. eigenvalues --   -0.57536  -0.52308  -0.51531  -0.46578  -0.43173
 Alpha  occ. eigenvalues --   -0.41752  -0.40478  -0.40463  -0.39341  -0.37543
 Alpha  occ. eigenvalues --   -0.37405  -0.36634  -0.35758  -0.35333  -0.34709
 Alpha  occ. eigenvalues --   -0.32647  -0.32542  -0.32348  -0.31744  -0.29955
 Alpha  occ. eigenvalues --   -0.28371  -0.27671  -0.26428  -0.25680  -0.22434
 Alpha  occ. eigenvalues --   -0.20377  -0.20080  -0.19559  -0.12387
 Alpha virt. eigenvalues --   -0.00749   0.00137   0.00819   0.01183   0.01623
 Alpha virt. eigenvalues --    0.02688   0.02774   0.03204   0.03769   0.04078
 Alpha virt. eigenvalues --    0.05137   0.05361   0.05571   0.06052   0.06138

  Beta  occ. eigenvalues -- -482.79975-482.79655 -62.45260 -62.44946 -56.27254
  Beta  occ. eigenvalues --  -56.26942 -56.26941 -56.26908 -56.26624 -56.26590
  Beta  occ. eigenvalues --  -19.01750 -19.01667 -10.18170 -10.18088 -10.18006
  Beta  occ. eigenvalues --  -10.17823 -10.15139 -10.14509 -10.14398 -10.14047
  Beta  occ. eigenvalues --  -10.14041 -10.14029  -8.66219  -8.65910  -6.49220
  Beta  occ. eigenvalues --   -6.48920  -6.48177  -6.48081  -6.47865  -6.47768
  Beta  occ. eigenvalues --   -2.60339  -2.60058  -2.60037  -2.59985  -2.59754
  Beta  occ. eigenvalues --   -2.59679  -2.59155  -2.59154  -2.58841  -2.58839
  Beta  occ. eigenvalues --   -0.93460  -0.92986  -0.81335  -0.79144  -0.76018
  Beta  occ. eigenvalues --   -0.74170  -0.71366  -0.66757  -0.65145  -0.64099
  Beta  occ. eigenvalues --   -0.57536  -0.52308  -0.51531  -0.46578  -0.43173
  Beta  occ. eigenvalues --   -0.41752  -0.40478  -0.40463  -0.39341  -0.37543
  Beta  occ. eigenvalues --   -0.37405  -0.36634  -0.35758  -0.35333  -0.34709
  Beta  occ. eigenvalues --   -0.32647  -0.32542  -0.32348  -0.31744  -0.29955
  Beta  occ. eigenvalues --   -0.28371  -0.27671  -0.26428  -0.25680  -0.22434
  Beta  occ. eigenvalues --   -0.20377  -0.20080  -0.19559  -0.12387
  Beta virt. eigenvalues --   -0.00749   0.00137   0.00819   0.01183   0.01623
  Beta virt. eigenvalues --    0.02688   0.02774   0.03204   0.03769   0.04078
  Beta virt. eigenvalues --    0.05137   0.05361   0.05571   0.06052   0.06138

 Mulliken charges and spin densities:
               1          2
     1  C   -0.704715   0.000000
     2  C    0.258425   0.000000
     3  C   -0.696873  -0.000000
     4  C    0.983765  -0.000000
     5  C    0.141799  -0.000000
     6  Br  -0.212085   0.000000
     7  C   -1.266694  -0.000000
     8  O   -0.626504  -0.000000
     9  C    0.872072  -0.000000
    10  C   -0.013813   0.000000
    11  Br  -0.264559   0.000000
    12  C   -0.985494   0.000000
    13  O   -0.611184   0.000000
    14  C   -0.379160   0.000000
    15  H    0.142895  -0.000000
    16  H    0.142828   0.000000
    17  H    0.133737  -0.000000
    18  H    0.205811  -0.000000
    19  H    0.142111  -0.000000
    20  H    0.140817   0.000000
    21  H    0.132711  -0.000000
    22  H    0.141541   0.000000
    23  H    0.172655   0.000000
    24  H    0.149916   0.000000
 Sum of Mulliken charges =  -2.00000  -0.00000

 Dipole moment (field-independent basis, Debye):
    X=             -8.8538    Y=             -0.0700    Z=             -3.0160  Tot=              9.3537
 Quadrupole moment (field-independent basis, Debye-Ang):
   XX=           -146.2152   YY=           -178.5366   ZZ=           -125.6759
   XY=            -11.7472   XZ=             -3.9824   YZ=             15.5017

  Exact polarizability: 307.165 -16.338 326.657  39.184 -50.647 205.845
 Approx polarizability: 324.095  -3.890 357.188  35.822 -52.335 219.858

                      1                      2                      3
                      A                      A                      A
 Frequencies --     54.3946                61.2596                86.8344
 Red. masses --      6.2991                 4.0424                 3.3672
 Frc consts  --      0.0110                 0.0089                 0.0150
 IR Inten    --      0.6431                 8.9531                 9.2824

                      4                      5                      6
                      A                      A                      A
 Frequencies --     94.1467               117.3184               154.4606
 Red. masses --      1.6096                 1.9455                 8.3957
 Frc consts  --      0.0084                 0.0158                 0.1180
 IR Inten    --      7.9870                 3.5324                12.0961

                      7                      8                      9
                      A                      A                      A
 Frequencies --    165.2446               168.3163               189.6299
 Red. masses --      3.5481                 5.7833                33.9355
 Frc consts  --      0.0571                 0.0965                 0.7190
 IR Inten    --      3.0125                 2.1594                 0.1159

                     10                     11                     12
                      A                      A                      A
 Frequencies --    202.9331               213.9398               230.2194
 Red. masses --      1.2914                 1.2375                 4.3711
 Frc consts  --      0.0313                 0.0334                 0.1365
 IR Inten    --      1.6581                 0.0769                 5.5480

                     13                     14                     15
                      A                      A                      A
 Frequencies --    243.1616               259.6197               298.2162
 Red. masses --      3.8718                 2.5057                 6.0156
 Frc consts  --      0.1349                 0.0995                 0.3152
 IR Inten    --      0.2887                 4.2106                 0.6292

                     16                     17                     18
                      A                      A                      A
 Frequencies --    334.0364               354.9306               410.2735
 Red. masses --     10.7772                 3.7967                 5.1483
 Frc consts  --      0.7085                 0.2818                 0.5106
 IR Inten    --      0.0681                 4.7542                 0.2757

                     19                     20                     21
                      A                      A                      A
 Frequencies --    430.3064               438.8444               494.8495
 Red. masses --      3.4709                 5.5998                 6.0491
 Frc consts  --      0.3787                 0.6354                 0.8727
 IR Inten    --     24.0384                12.4165                 5.8838

                     22                     23                     24
                      A                      A                      A
 Frequencies --    532.3899               573.2977               673.7776
 Red. masses --      3.9323                 7.1476                 6.8463
 Frc consts  --      0.6567                 1.3841                 1.8312
 IR Inten    --      2.5677                 0.0207               266.6774

                     25                     26                     27
                      A                      A                      A
 Frequencies --    703.2433               704.5167               744.0469
 Red. masses --      5.4058                 6.8702                 9.4852
 Frc consts  --      1.5752                 2.0091                 3.0938
 IR Inten    --     17.9414                17.5613                 2.0254

                     28                     29                     30
                      A                      A                      A
 Frequencies --    789.1129               861.4518               921.2620
 Red. masses --      7.5446                 3.5218                 2.9845
 Frc consts  --      2.7680                 1.5398                 1.4924
 IR Inten    --     44.0505               152.4016                58.1034

                     31                     32                     33
                      A                      A                      A
 Frequencies --    925.4720               954.1813               999.1732
 Red. masses --      1.1883                 1.4750                 1.9429
 Frc consts  --      0.5997                 0.7912                 1.1428
 IR Inten    --      1.6237                 0.3734               227.3414

                     34                     35                     36
                      A                      A                      A
 Frequencies --   1040.6379              1059.9206              1102.7204
 Red. masses --      1.4352                 3.7735                 1.9663
 Frc consts  --      0.9157                 2.4977                 1.4088
 IR Inten    --      1.6317                75.3849                27.9995

                     37                     38                     39
                      A                      A                      A
 Frequencies --   1117.8797              1118.9571              1179.7522
 Red. masses --      6.5201                 2.8943                 3.0724
 Frc consts  --      4.8006                 2.1351                 2.5195
 IR Inten    --    408.0295                78.0856                19.9772

                     40                     41                     42
                      A                      A                      A
 Frequencies --   1197.2936              1326.8760              1363.3502
 Red. masses --      2.3031                 3.1453                 2.2718
 Frc consts  --      1.9452                 3.2627                 2.4879
 IR Inten    --     16.3998                25.5118               921.4890

                     43                     44                     45
                      A                      A                      A
 Frequencies --   1379.6439              1379.9250              1382.4248
 Red. masses --      1.3465                 1.7310                 1.7591
 Frc consts  --      1.5101                 1.9420                 1.9808
 IR Inten    --     32.3120               102.5828                95.4893

                     46                     47                     48
                      A                      A                      A
 Frequencies --   1392.4085              1395.9182              1404.1765
 Red. masses --      2.0460                 2.1775                 2.0846
 Frc consts  --      2.3371                 2.5000                 2.4217
 IR Inten    --    196.6818               642.4184                33.3210

                     49                     50                     51
                      A                      A                      A
 Frequencies --   1426.5062              1472.4911              1475.5986
 Red. masses --      3.0327                 1.1283                 1.0414
 Frc consts  --      3.6360                 1.4414                 1.3359
 IR Inten    --    159.3150                45.2833                 0.0605

                     52                     53                     54
                      A                      A                      A
 Frequencies --   1485.7149              1485.8783              1490.8514
 Red. masses --      1.0531                 1.0481                 1.0508
 Frc consts  --      1.3696                 1.3633                 1.3761
 IR Inten    --     15.7919                 7.7714                 1.1362

                     55                     56                     57
                      A                      A                      A
 Frequencies --   1502.2636              1574.8745              3000.7591
 Red. masses --      1.0613                10.6272                 1.0433
 Frc consts  --      1.4112                15.5296                 5.5350
 IR Inten    --      1.5313                 1.0306               144.9826

                     58                     59                     60
                      A                      A                      A
 Frequencies --   3004.8743              3010.0450              3040.0359
 Red. masses --      1.0400                 1.0409                 1.0964
 Frc consts  --      5.5328                 5.5563                 5.9701
 IR Inten    --     72.5590               128.4433                58.4804

                     61                     62                     63
                      A                      A                      A
 Frequencies --   3051.7171              3059.9351              3062.3410
 Red. masses --      1.0839                 1.0984                 1.0978
 Frc consts  --      5.9472                 6.0596                 6.0655
 IR Inten    --     11.9056                53.3603               125.7782

                     64                     65                     66
                      A                      A                      A
 Frequencies --   3098.0314              3104.3826              3117.8021
 Red. masses --      1.0980                 1.0959                 1.0948
 Frc consts  --      6.2092                 6.2227                 6.2699
 IR Inten    --      4.5257                67.4875                16.4137

 - Thermochemistry -
 -------------------
 Temperature   298.150 Kelvin.  Pressure   1.00000 Atm.
 Atom     1 has atomic number  6 and mass  12.00000

 Molecular mass:   319.90475 amu.
 Principal axes and moments of inertia in atomic units:
                           1         2         3
     Eigenvalues --  2672.499997643.391809906.14793
           X           -0.58678   0.77149  -0.24596
           Y            0.71497   0.63622   0.28990
           Z           -0.38014   0.00575   0.92491
 This molecule is an asymmetric top.
 Rotational symmetry number  1.
 Warning -- assumption of classical behavior for rotation
           may cause significant error
 Rotational temperatures (Kelvin)      0.03241     0.01133     0.00874
 Rotational constants (GHZ):           0.67530     0.23612     0.18218
 Zero-point vibrational energy     452731.8 (Joules/Mol)
                                  108.20550 (Kcal/Mol)
 Warning -- explicit consideration of  23 degrees of freedom as
           vibrations may cause significant error
 Vibrational temperatures:     78.26    88.14   124.94   135.46   168.79
          (Kelvin)            222.23   237.75   242.17   272.84   291.98
                              307.81   331.23   349.86   373.53   429.07
                              480.60   510.67   590.29   619.11   631.40
                              711.98   765.99   824.85   969.42  1011.81
                             1013.64  1070.52  1135.36  1239.44  1325.49
                             1331.55  1372.85  1437.59  1497.25  1524.99
                             1586.57  1608.38  1609.93  1697.40  1722.64
                             1909.08  1961.56  1985.00  1985.40  1989.00
                             2003.37  2008.41  2020.30  2052.42  2118.59
                             2123.06  2137.61  2137.85  2145.00  2161.42
                             2265.89  4317.42  4323.34  4330.78  4373.93
                             4390.74  4402.56  4406.03  4457.38  4466.51
                             4485.82

 Zero-point correction=                           0.172436 (Hartree/Particle)
 Thermal correction to Energy=                    0.187791
 Thermal correction to Enthalpy=                  0.188736
 Thermal correction to Gibbs Free Energy=         0.128638
 Sum of electronic and zero-point Energies=          -5686.046987
 Sum of electronic and thermal Energies=             -5686.031632
 Sum of electronic and thermal Enthalpies=           -5686.030688
 Sum of electronic and thermal Free Energies=        -5686.090785

                     E (Thermal)             CV                S
                      KCal/Mol        Cal/Mol-Kelvin    Cal/Mol-Kelvin
 Total                  117.841             54.530            126.486
 Electronic               0.000              0.000              0.000
 Translational            0.889              2.981             43.184
 Rotational               0.889              2.981             33.670
 Vibrational            116.063             48.568             49.632
 Vibration     1          0.596              1.976              4.651
 Vibration     2          0.597              1.973              4.416
 Vibration     3          0.601              1.958              3.730
 Vibration     4          0.603              1.953              3.572
 Vibration     5          0.608              1.935              3.144
 Vibration     6          0.620              1.898              2.617
 Vibration     7          0.624              1.885              2.489
 Vibration     8          0.625              1.881              2.454
 Vibration     9          0.633              1.854              2.231
 Vibration    10          0.639              1.836              2.106
 Vibration    11          0.644              1.820              2.010
 Vibration    12          0.652              1.795              1.877
 Vibration    13          0.659              1.774              1.780
 Vibration    14          0.668              1.746              1.664
 Vibration    15          0.691              1.677              1.427
 Vibration    16          0.716              1.608              1.240
 Vibration    17          0.731              1.565              1.144
 Vibration    18          0.774              1.448              0.926
 Vibration    19          0.791              1.404              0.858
 Vibration    20          0.799              1.385              0.830
 Vibration    21          0.850              1.261              0.671
 Vibration    22          0.887              1.178              0.582
 Vibration    23          0.930              1.089              0.498

 Optimization completed.
    -- Stationary point found.
 Normal termination of Gaussian 16 at Sat Feb 10 12:16:33 2024.
