 Q-Chem 5.4, Q-Chem, Inc., Pleasanton, CA (2021)
 Q-Chem 5.4.0 for Intel X86 EM64T Linux

User input:
--------------------------------------------------------------
$molecule
-1 2
O                  0.1205500000      0.4167540000      2.6812970000
C                  0.0803760000      0.2188350000      1.4063370000
C                 -1.1875010000      0.1125640000      0.7089210000
C                 -2.4303350000      0.2207290000      1.3924380000
C                 -3.6257800000      0.1124510000      0.6853270000
C                 -3.6261310000     -0.1027880000     -0.6984950000
C                 -2.4173240000     -0.2111970000     -1.3846150000
C                 -1.2258710000     -0.1027880000     -0.6768710000
O                 -0.0679670000     -0.2212740000     -1.4287950000
C                  1.1677880000     -0.1258810000     -0.8021320000
C                  2.2821550000     -0.2527930000     -1.6085600000
C                  3.5717420000     -0.1670710000     -1.0423320000
C                  3.6977460000      0.0459060000      0.3324170000
C                  2.5723690000      0.1730480000      1.1398090000
C                  1.2618420000      0.0910990000      0.5969820000
O                 -2.4361110000      0.4292980000      2.7329950000
H                 -4.5594830000      0.1984820000      1.2298670000
H                 -4.5540270000     -0.1875580000     -1.2518420000
O                 -2.4065710000     -0.4239330000     -2.7524400000
H                  2.1436440000     -0.4175150000     -2.6716680000
H                  4.4477040000     -0.2664230000     -1.6736610000
H                  4.6861120000      0.1134080000      0.7783720000
H                  2.6553560000      0.3384100000      2.2069080000
H                 -1.4585220000      0.4674960000      2.9881820000
H                 -1.4788860000     -0.4664160000     -3.0166140000
$end
$rem
MAX_SCF_CYCLES=200
BASIS  =  6-311++G(d,p)
GUI  =  2
JOB_TYPE  =  SP
METHOD  =  B3LYP
SOLVENT_METHOD = COSMO
$end
$solvent
dielectric 37.219
opticaldielectric 1.43
$end

--------------------------------------------------------------

             Standard Nuclear Orientation (Angstroms)
    I     Atom           X                Y                Z
 ----------------------------------------------------------------
    1      O      -0.2898591903    -2.6562826218     0.0001394689
    2      C      -0.3146809158    -1.3656654293    -0.0000244639
    3      C       0.9160803409    -0.5972765948    -0.0001576896
    4      C       2.1921738594    -1.2258597954    -0.0001502587
    5      C       3.3500965253    -0.4512412588     0.0000988924
    6      C       3.2799531510     0.9474621250     0.0002698817
    7      C       2.0377123454     1.5803644058     0.0001563980
    8      C       0.8838091614     0.8053020224    -0.0001188189
    9      O      -0.3109439218     1.5072531204    -0.0003017747
   10      C      -1.5132270242     0.8119746888    -0.0002355726
   11      C      -2.6672743866     1.5711987963    -0.0003954444
   12      C      -3.9264023397     0.9343363537    -0.0001372391
   13      C      -3.9822225964    -0.4613910178     0.0003393932
   14      C      -2.8171293555    -1.2210475536     0.0004370518
   15      C      -1.5358946578    -0.6068038497     0.0000766869
   16      O       2.2662330266    -2.5805341672    -0.0003651620
   17      H       4.3103668029    -0.9548357658     0.0001571343
   18      H       4.1784954825     1.5532603357     0.0004901383
   19      O       1.9572941085     2.9623377600     0.0002935976
   20      H      -2.5830895614     2.6526007060    -0.0006762235
   21      H      -4.8334243930     1.5285312109    -0.0002715600
   22      H      -4.9466341296    -0.9616010342     0.0005965158
   23      H      -2.8456571471    -2.3036914257     0.0007841363
   24      H       1.3028702219    -2.8874410706    -0.0004314833
   25      H       1.0173158964     3.1828669573     0.0002694028
 ----------------------------------------------------------------

   10    -801.3748752450      4.30e-06  Convergence criterion met
 Total energy in the final basis set =     -801.3748752450
    4    -801.4547331600      8.61e-06  Convergence criterion met
 Total energy in the final basis set =     -801.4547331600

                    Orbital Energies (a.u.)
 --------------------------------------------------------------

 Alpha MOs
 -- Occupied --
-19.1790 -19.1515 -19.1260 -19.0751 -10.2377 -10.2357 -10.2260 -10.2251
-10.2143 -10.1763 -10.1738 -10.1700 -10.1672 -10.1665 -10.1655 -10.1643
-10.1631  -1.0972  -1.0544  -1.0464  -0.9886  -0.8566  -0.8472  -0.7766
 -0.7633  -0.7417  -0.7223  -0.6573  -0.6484  -0.6018  -0.5938  -0.5579
 -0.5528  -0.5409  -0.5223  -0.4789  -0.4748  -0.4667  -0.4649  -0.4326
 -0.4267  -0.4189  -0.4115  -0.4094  -0.4037  -0.4011  -0.3927  -0.3717
 -0.3705  -0.3611  -0.3512  -0.3493  -0.3349  -0.3076  -0.2637  -0.2574
 -0.2492  -0.2429  -0.2029  -0.1142

 Beta MOs
 -- Occupied --
-19.1776 -19.1517 -19.1253 -19.0702 -10.2366 -10.2340 -10.2267 -10.2235
-10.2093 -10.1775 -10.1746 -10.1680 -10.1672 -10.1667 -10.1650 -10.1637
-10.1605  -1.0949  -1.0545  -1.0443  -0.9793  -0.8545  -0.8447  -0.7724
 -0.7606  -0.7392  -0.7208  -0.6538  -0.6441  -0.6001  -0.5910  -0.5554
 -0.5510  -0.5385  -0.5214  -0.4780  -0.4730  -0.4652  -0.4582  -0.4306
 -0.4248  -0.4164  -0.4098  -0.4039  -0.4024  -0.3943  -0.3916  -0.3694
 -0.3598  -0.3582  -0.3501  -0.3365  -0.3336  -0.3023  -0.2553  -0.2454
 -0.2440  -0.2331  -0.1984

          Ground-State Mulliken Net Atomic Charges

     Atom                 Charge (a.u.)    Spin (a.u.)
  --------------------------------------------------------
      1 O                    -0.610042       0.174101
      2 C                    -0.037331       0.317601
      3 C                     1.252949      -0.088977
      4 C                    -0.068545       0.136604
      5 C                    -0.103152      -0.066046
      6 C                    -0.086005       0.153768
      7 C                    -0.995315      -0.052177
      8 C                    -0.325500       0.096602
      9 O                    -0.175003       0.030607
     10 C                    -1.222071       0.074167
     11 C                    -0.386421      -0.028539
     12 C                    -0.487316       0.209703
     13 C                    -0.272364      -0.079090
     14 C                     0.131304       0.231090
     15 C                     1.255146      -0.089014
     16 O                    -0.430065       0.020615
     17 H                     0.209345       0.003380
     18 H                     0.220183      -0.011578
     19 O                    -0.332169      -0.002986
     20 H                     0.203082      -0.000438
     21 H                     0.196705      -0.015236
     22 H                     0.189877       0.004871
     23 H                     0.193894      -0.014574
     24 H                     0.359728      -0.004349
     25 H                     0.319087      -0.000106
  --------------------------------------------------------
  Sum of atomic charges =    -1.000000

                    Cartesian Multipole Moments
 -----------------------------------------------------------------
    Charge (ESU x 10^10)
                -4.8032
    Dipole Moment (Debye)
         X      -2.4726      Y       6.9820      Z       0.0005
       Tot       7.4069
    Quadrupole Moments (Debye-Ang)
        XX    -114.7777     XY      -1.8065     YY    -126.8669
        XZ       0.0013     YZ      -0.0019     ZZ    -106.1846

 Total job time:  62.86s(wall), 475.96s(cpu)
        *  Thank you very much for using Q-Chem.  Have a nice day.  *
