 Gaussian 16, Revision A.03,
 Gaussian 16:  ES64L-G16RevA.03 25-Dec-2016

 ----------------------------------------------------------------------
 #P UB3LYP/6-311++G(d,p) nosym opt freq SCRF=(PCM,Solvent=n,n-DiMethylF
 ormamide)
 ----------------------------------------------------------------------

 -------
 Radical
 -------
 Symbolic Z-matrix:
 Charge = -1 Multiplicity = 2

 SCF Done:  E(UB3LYP) =  -801.447437039     A.U. after   20 cycles
 SCF Done:  E(UB3LYP) =  -801.447764994     A.U. after   14 cycles
 SCF Done:  E(UB3LYP) =  -801.447790231     A.U. after   14 cycles
 SCF Done:  E(UB3LYP) =  -801.447814042     A.U. after   13 cycles
 SCF Done:  E(UB3LYP) =  -801.447817310     A.U. after   10 cycles
 SCF Done:  E(UB3LYP) =  -801.447822627     A.U. after   11 cycles
 Optimization completed.
    -- Stationary point found.
 Normal termination of Gaussian 16 at Sun Feb 11 15:33:39 2024.

 ----------------------------------------------------------------------
 #P Geom=AllCheck Guess=TCheck SCRF=Check GenChk UB3LYP/6-311++G(d,p) F
 req
 ----------------------------------------------------------------------

 Structure from the checkpoint file:  "336-rad.chk"
 -------
 Radical
 -------
 Charge = -1 Multiplicity = 2

                          Input orientation:
 ---------------------------------------------------------------------
 Center     Atomic      Atomic             Coordinates (Angstroms)
 Number     Number       Type             X           Y           Z
 ---------------------------------------------------------------------
      1          8           0        0.115542    0.421359    2.691664
      2          6           0        0.078180    0.220142    1.403222
      3          6           0       -1.186256    0.113594    0.709850
      4          6           0       -2.431350    0.219658    1.388271
      5          6           0       -3.627044    0.111101    0.685503
      6          6           0       -3.625248   -0.103610   -0.698151
      7          6           0       -2.415151   -0.211115   -1.385467
      8          6           0       -1.222462   -0.102228   -0.679066
      9          8           0       -0.064881   -0.219178   -1.425502
     10          6           0        1.169466   -0.124543   -0.798481
     11          6           0        2.284204   -0.252382   -1.605637
     12          6           0        3.570030   -0.167729   -1.039459
     13          6           0        3.701081    0.045113    0.334212
     14          6           0        2.573960    0.173199    1.141930
     15          6           0        1.264858    0.092655    0.601072
     16          8           0       -2.434017    0.429188    2.737359
     17          1           0       -4.564255    0.195151    1.223918
     18          1           0       -4.554829   -0.188444   -1.247984
     19          8           0       -2.417768   -0.423047   -2.748316
     20          1           0        2.148844   -0.416999   -2.668595
     21          1           0        4.444466   -0.267914   -1.671395
     22          1           0        4.688765    0.111574    0.778578
     23          1           0        2.671872    0.338863    2.207566
     24          1           0       -1.454870    0.467427    2.985286
     25          1           0       -1.500262   -0.468993   -3.048548
 ---------------------------------------------------------------------

 SCF Done:  E(UB3LYP) =  -801.447822627     A.U. after    1 cycles

 Alpha  occ. eigenvalues --  -19.17765 -19.15065 -19.12029 -19.06897 -10.23749
 Alpha  occ. eigenvalues --  -10.23402 -10.22483 -10.22277 -10.21140 -10.17466
 Alpha  occ. eigenvalues --  -10.17378 -10.16911 -10.16721 -10.16659 -10.16586
 Alpha  occ. eigenvalues --  -10.16342 -10.16338  -1.09686  -1.05452  -1.03819
 Alpha  occ. eigenvalues --   -0.97685  -0.85595  -0.84590  -0.77560  -0.76312
 Alpha  occ. eigenvalues --   -0.74125  -0.72130  -0.65667  -0.64801  -0.60116
 Alpha  occ. eigenvalues --   -0.59363  -0.55720  -0.55291  -0.53894  -0.51923
 Alpha  occ. eigenvalues --   -0.47942  -0.47378  -0.46650  -0.46372  -0.43240
 Alpha  occ. eigenvalues --   -0.42562  -0.41496  -0.40694  -0.40595  -0.40182
 Alpha  occ. eigenvalues --   -0.39792  -0.39127  -0.37023  -0.36700  -0.35812
 Alpha  occ. eigenvalues --   -0.35097  -0.34651  -0.33293  -0.30446  -0.26178
 Alpha  occ. eigenvalues --   -0.25596  -0.24384  -0.24111  -0.20076  -0.11281
 Alpha virt. eigenvalues --   -0.02159  -0.00546  -0.00401   0.00506   0.00844
 Alpha virt. eigenvalues --    0.01722   0.01971   0.02467   0.03938   0.04167
 Alpha virt. eigenvalues --    0.04470   0.04559   0.05080   0.06646   0.06745

  Beta  occ. eigenvalues --  -19.17629 -19.15084 -19.11949 -19.06404 -10.23627
  Beta  occ. eigenvalues --  -10.23232 -10.22555 -10.22101 -10.20632 -10.17590
  Beta  occ. eigenvalues --  -10.17468 -10.16728 -10.16705 -10.16699 -10.16425
  Beta  occ. eigenvalues --  -10.16393 -10.16080  -1.09454  -1.05468  -1.03601
  Beta  occ. eigenvalues --   -0.96735  -0.85373  -0.84354  -0.77144  -0.76037
  Beta  occ. eigenvalues --   -0.73884  -0.71990  -0.65310  -0.64391  -0.59933
  Beta  occ. eigenvalues --   -0.59078  -0.55465  -0.55115  -0.53653  -0.51832
  Beta  occ. eigenvalues --   -0.47860  -0.47199  -0.46496  -0.45697  -0.43060
  Beta  occ. eigenvalues --   -0.42422  -0.41265  -0.40551  -0.40159  -0.39959
  Beta  occ. eigenvalues --   -0.39039  -0.39005  -0.36925  -0.35685  -0.35532
  Beta  occ. eigenvalues --   -0.34992  -0.33154  -0.33143  -0.29907  -0.25384
  Beta  occ. eigenvalues --   -0.24263  -0.23999  -0.23036  -0.19623
  Beta virt. eigenvalues --   -0.05137  -0.01483  -0.00395   0.00350   0.00508
  Beta virt. eigenvalues --    0.00851   0.01744   0.02459   0.02568   0.03964
  Beta virt. eigenvalues --    0.04176   0.04470   0.04662   0.06467   0.06751

 Mulliken charges and spin densities:
               1          2
     1  O   -0.584956   0.178978
     2  C   -0.059773   0.315321
     3  C    1.250559  -0.092152
     4  C   -0.094121   0.141418
     5  C   -0.062368  -0.070718
     6  C   -0.041746   0.160744
     7  C   -1.020863  -0.056247
     8  C   -0.340292   0.101193
     9  O   -0.168812   0.030576
    10  C   -1.230606   0.075183
    11  C   -0.362979  -0.029415
    12  C   -0.459710   0.203990
    13  C   -0.257604  -0.078014
    14  C    0.150848   0.229609
    15  C    1.267968  -0.091276
    16  O   -0.416670   0.021741
    17  H    0.188787   0.003857
    18  H    0.198399  -0.012424
    19  O   -0.310845  -0.003209
    20  H    0.180868  -0.000035
    21  H    0.175556  -0.014855
    22  H    0.169361   0.004898
    23  H    0.180195  -0.014490
    24  H    0.346749  -0.004577
    25  H    0.302056  -0.000097
 Sum of Mulliken charges =  -1.00000   1.00000

 Dipole moment (field-independent basis, Debye):
    X=              3.5887    Y=             -1.1570    Z=             -7.3712  Tot=              8.2796
 Quadrupole moment (field-independent basis, Debye-Ang):
   XX=           -118.4319   YY=           -106.7286   ZZ=           -127.2026
   XY=              0.0986   XZ=              0.5668   YZ=             -3.2963

  Exact polarizability: 516.594  -3.856 132.027 -20.922  24.480 285.231
 Approx polarizability: 508.620  -3.411 149.527 -18.274  31.207 345.109

                      1                      2                      3
                      A                      A                      A
 Frequencies --     50.6464                90.0536               148.8477
 Red. masses --      6.9145                 5.9316                 6.7172
 Frc consts  --      0.0104                 0.0283                 0.0877
 IR Inten    --      1.9994                 0.0036                 1.0361

                      4                      5                      6
                      A                      A                      A
 Frequencies --    151.4384               187.6476               249.5447
 Red. masses --      7.1216                 5.7543                 7.2354
 Frc consts  --      0.0962                 0.1194                 0.2655
 IR Inten    --      0.0229                 0.4927                 0.7542

                      7                      8                      9
                      A                      A                      A
 Frequencies --    253.5453               292.9353               313.0914
 Red. masses --      5.5044                 6.0680                 1.1269
 Frc consts  --      0.2085                 0.3068                 0.0651
 IR Inten    --      0.0096                 7.1405               167.3470

                     10                     11                     12
                      A                      A                      A
 Frequencies --    341.3339               364.5409               388.7087
 Red. masses --      6.4762                 6.9754                 4.1526
 Frc consts  --      0.4446                 0.5462                 0.3697
 IR Inten    --     30.5816                 1.7756                 2.6635

                     13                     14                     15
                      A                      A                      A
 Frequencies --    392.9555               434.8174               474.7754
 Red. masses --      9.7036                 6.9922                10.6271
 Frc consts  --      0.8828                 0.7789                 1.4114
 IR Inten    --     27.4959                 9.4263                 1.0928

                     16                     17                     18
                      A                      A                      A
 Frequencies --    483.8415               516.5564               530.1473
 Red. masses --      4.1728                 5.8351                 4.1025
 Frc consts  --      0.5756                 0.9173                 0.6793
 IR Inten    --      1.8211                29.6043                 6.3200

                     19                     20                     21
                      A                      A                      A
 Frequencies --    536.7923               576.3536               615.8088
 Red. masses --      9.3398                 4.5895                 4.1883
 Frc consts  --      1.5856                 0.8982                 0.9358
 IR Inten    --     19.7396                22.3385                 3.3144

                     22                     23                     24
                      A                      A                      A
 Frequencies --    637.5918               644.3309               667.2190
 Red. masses --      7.8244                 5.9682                 6.6834
 Frc consts  --      1.8741                 1.4599                 1.7530
 IR Inten    --     15.9253                23.9890                27.6354

                     25                     26                     27
                      A                      A                      A
 Frequencies --    672.2200               714.0170               731.0415
 Red. masses --      8.0787                 4.5262                 1.2709
 Frc consts  --      2.1509                 1.3596                 0.4002
 IR Inten    --      2.4211                 2.0764               144.9595

                     28                     29                     30
                      A                      A                      A
 Frequencies --    748.0095               777.2332               828.0628
 Red. masses --      7.8507                 1.5661                 1.4054
 Frc consts  --      2.5881                 0.5574                 0.5678
 IR Inten    --     44.0544                75.9705                 2.3071

                     31                     32                     33
                      A                      A                      A
 Frequencies --    832.1331               889.7077               894.6363
 Red. masses --      6.7612                 1.2729                 1.4170
 Frc consts  --      2.7584                 0.5937                 0.6682
 IR Inten    --    159.6294                16.2961                16.7928

                     34                     35                     36
                      A                      A                      A
 Frequencies --    894.9028               909.5629               958.6247
 Red. masses --      5.7732                 1.0575                 1.2620
 Frc consts  --      2.7241                 0.5154                 0.6833
 IR Inten    --     54.8423               112.8843                 0.1759

                     37                     38                     39
                      A                      A                      A
 Frequencies --    990.6426              1024.8716              1054.4161
 Red. masses --      6.2883                 3.0950                 2.0309
 Frc consts  --      3.6360                 1.9154                 1.3303
 IR Inten    --    179.1034                19.3599               166.4659

                     40                     41                     42
                      A                      A                      A
 Frequencies --   1098.5096              1146.2265              1158.7461
 Red. masses --      2.0959                 1.5108                 1.1897
 Frc consts  --      1.4902                 1.1695                 0.9412
 IR Inten    --    137.2684                69.6776                 6.5321

                     43                     44                     45
                      A                      A                      A
 Frequencies --   1161.3407              1205.6467              1214.5181
 Red. masses --      2.1032                 4.3018                 2.2867
 Frc consts  --      1.6713                 3.6842                 1.9873
 IR Inten    --    205.8780               714.5444               122.8877

                     46                     47                     48
                      A                      A                      A
 Frequencies --   1260.5954              1265.8738              1285.2364
 Red. masses --      2.0314                 2.4437                 4.5492
 Frc consts  --      1.9019                 2.3072                 4.4274
 IR Inten    --      8.9595               146.0022               211.8211

                     49                     50                     51
                      A                      A                      A
 Frequencies --   1304.1397              1349.2966              1358.6493
 Red. masses --      5.0874                 5.1151                 2.8059
 Frc consts  --      5.0979                 5.4868                 3.0517
 IR Inten    --    824.9824                14.0413               233.7667

                     52                     53                     54
                      A                      A                      A
 Frequencies --   1407.4114              1410.1961              1459.5501
 Red. masses --      3.7063                 4.7399                 2.4483
 Frc consts  --      4.3255                 5.5537                 3.0729
 IR Inten    --    419.4851               159.3723               139.6513

                     55                     56                     57
                      A                      A                      A
 Frequencies --   1480.9942              1502.5034              1544.1171
 Red. masses --      2.7843                 3.2773                 3.2481
 Frc consts  --      3.5981                 4.3591                 4.5628
 IR Inten    --    102.3002               920.4127               291.3354

                     58                     59                     60
                      A                      A                      A
 Frequencies --   1569.9142              1587.5927              1621.9770
 Red. masses --      3.9526                 3.9162                 4.0869
 Frc consts  --      5.7397                 5.8155                 6.3349
 IR Inten    --     47.7236                94.7548                73.5312

                     61                     62                     63
                      A                      A                      A
 Frequencies --   1660.9432              2880.0807              3158.0114
 Red. masses --      3.9527                 1.0749                 1.0865
 Frc consts  --      6.4247                 5.2533                 6.3842
 IR Inten    --      2.3181              1077.7918                34.1138

                     64                     65                     66
                      A                      A                      A
 Frequencies --   3173.2443              3173.5898              3187.2427
 Red. masses --      1.0888                 1.0879                 1.0933
 Frc consts  --      6.4593                 6.4560                 6.5433
 IR Inten    --     17.8667                39.2590                24.6947

                     67                     68                     69
                      A                      A                      A
 Frequencies --   3191.1591              3193.7230              3781.1347
 Red. masses --      1.0937                 1.0933                 1.0657
 Frc consts  --      6.5624                 6.5703                 8.9773
 IR Inten    --      7.5403                11.2737               118.2494

 - Thermochemistry -
 -------------------
 Temperature   298.150 Kelvin.  Pressure   1.00000 Atm.
 Atom     1 has atomic number  8 and mass  15.99491

 Molecular mass:   228.04226 amu.
 Principal axes and moments of inertia in atomic units:
                           1         2         3
     Eigenvalues --  2153.080484474.934966628.01294
           X            0.99888   0.04734   0.00151
           Y           -0.00876   0.15343   0.98812
           Z           -0.04654   0.98702  -0.15367
 This molecule is an asymmetric top.
 Rotational symmetry number  1.
 Warning -- assumption of classical behavior for rotation
           may cause significant error
 Rotational temperatures (Kelvin)      0.04023     0.01936     0.01307
 Rotational constants (GHZ):           0.83821     0.40330     0.27229
 Zero-point vibrational energy     466877.2 (Joules/Mol)
                                  111.58632 (Kcal/Mol)
 Warning -- explicit consideration of  21 degrees of freedom as
           vibrations may cause significant error
 Vibrational temperatures:     72.87   129.57   214.16   217.89   269.98
          (Kelvin)            359.04   364.80   421.47   450.47   491.10
                              524.49   559.27   565.38   625.61   683.10
                              696.14   743.21   762.76   772.32   829.24
                              886.01   917.35   927.05   959.98   967.17
                             1027.31  1051.81  1076.22  1118.27  1191.40
                             1197.25  1280.09  1287.18  1287.57  1308.66
                             1379.25  1425.31  1474.56  1517.07  1580.51
                             1649.16  1667.18  1670.91  1734.66  1747.42
                             1813.72  1821.31  1849.17  1876.37  1941.34
                             1954.79  2024.95  2028.96  2099.97  2130.82
                             2161.77  2221.64  2258.76  2284.19  2333.66
                             2389.73  4143.79  4543.67  4565.59  4566.09
                             4585.73  4591.37  4595.06  5440.21

 Zero-point correction=                           0.177824 (Hartree/Particle)
 Thermal correction to Energy=                    0.190611
 Thermal correction to Enthalpy=                  0.191555
 Thermal correction to Gibbs Free Energy=         0.138345
 Sum of electronic and zero-point Energies=           -801.269998
 Sum of electronic and thermal Energies=              -801.257211
 Sum of electronic and thermal Enthalpies=            -801.256267
 Sum of electronic and thermal Free Energies=         -801.309477

                     E (Thermal)             CV                S
                      KCal/Mol        Cal/Mol-Kelvin    Cal/Mol-Kelvin
 Total                  119.610             52.524            111.990
 Electronic               0.000              0.000              1.377
 Translational            0.889              2.981             42.175
 Rotational               0.889              2.981             32.524
 Vibrational            117.833             46.562             35.914
 Vibration     1          0.595              1.977              4.792
 Vibration     2          0.602              1.956              3.659
 Vibration     3          0.618              1.904              2.687
 Vibration     4          0.619              1.901              2.654
 Vibration     5          0.632              1.857              2.251
 Vibration     6          0.662              1.764              1.734
 Vibration     7          0.665              1.757              1.706
 Vibration     8          0.688              1.687              1.457
 Vibration     9          0.701              1.649              1.346
 Vibration    10          0.721              1.593              1.206
 Vibration    11          0.738              1.545              1.103
 Vibration    12          0.757              1.494              1.005
 Vibration    13          0.760              1.485              0.989
 Vibration    14          0.795              1.394              0.843
 Vibration    15          0.831              1.306              0.724
 Vibration    16          0.840              1.286              0.700
 Vibration    17          0.872              1.213              0.618
 Vibration    18          0.885              1.183              0.587
 Vibration    19          0.892              1.169              0.572
 Vibration    20          0.933              1.082              0.492
 Vibration    21          0.975              0.998              0.423

 Optimization completed.
    -- Stationary point found.
 Normal termination of Gaussian 16 at Sun Feb 11 16:16:46 2024.
