 Q-Chem 5.4, Q-Chem, Inc., Pleasanton, CA (2021)
 Q-Chem 5.4.0 for Intel X86 EM64T Linux

User input:
--------------------------------------------------------------
$molecule
-2 1
C                  2.1361720000      3.0141000000      1.2358810000
C                  2.0600120000      1.5442680000      1.5794370000
O                  1.7023270000      1.1087660000      2.6494460000
O                  2.7683680000      0.8137350000      0.6588930000
C                  2.4598590000     -0.5471290000      0.5135410000
C                  3.5054000000     -1.4176320000      0.7001430000
C                  3.3161040000     -2.8071700000      0.4758670000
C                  2.0805600000     -3.2572730000      0.0746010000
C                  0.9872080000     -2.3785010000     -0.1330560000
C                 -0.2593260000     -2.9490200000     -0.5912240000
O                 -0.4128220000     -4.2089400000     -0.7781130000
C                 -1.3111430000     -1.9916580000     -0.8507500000
C                 -2.5367550000     -2.4872070000     -1.3612630000
C                 -3.5901640000     -1.6628980000     -1.6791830000
C                 -3.4461230000     -0.2626330000     -1.4897280000
C                 -2.2730680000      0.2404710000     -0.9867730000
O                 -2.1881230000      1.6496230000     -0.9452060000
C                 -2.1982640000      2.2824430000      0.2511800000
C                 -1.6256770000      3.6705840000      0.0937940000
O                 -2.6927810000      1.8461270000      1.2620930000
C                 -1.1406980000     -0.5593920000     -0.6312950000
C                  0.0878670000     -0.0048180000     -0.1224850000
O                  0.2330140000      1.2695940000      0.1278270000
C                  1.1542380000     -0.9508350000      0.0896470000
H                  1.9304030000      3.1563000000      0.1768930000
H                  1.4109170000      3.5564030000      1.8415400000
H                  3.1446530000      3.3822040000      1.4667970000
H                  4.4626970000     -1.0160510000      1.0174930000
H                  4.1421160000     -3.4986100000      0.6265900000
H                  1.8859800000     -4.3083340000     -0.1104210000
H                 -2.5909750000     -3.5624560000     -1.4952940000
H                 -4.5207260000     -2.0660660000     -2.0716590000
H                 -4.2437070000      0.4306520000     -1.7378360000
H                 -1.7533650000      4.2309580000      1.0201930000
H                 -0.5678980000      3.5497130000     -0.1422040000
H                 -2.1162800000      4.1906800000     -0.7353670000
$end
$rem
MAX_SCF_CYCLES=200
BASIS  =  6-311++G(d,p)
GUI  =  2
JOB_TYPE  =  SP
METHOD  =  B3LYP
SOLVENT_METHOD = COSMO
$end
$solvent
dielectric 37.219
opticaldielectric 1.43
$end

--------------------------------------------------------------

             Standard Nuclear Orientation (Angstroms)
    I     Atom           X                Y                Z
 ----------------------------------------------------------------
    1      C      -1.0622053823    -3.9105468357    -0.3875513730
    2      C      -1.6059354576    -2.6824026197     0.3054540879
    3      O      -1.6810260802    -2.5499075450     1.5051733321
    4      O      -2.3062015887    -1.9141542347    -0.5902410094
    5      C      -2.4906792416    -0.5549695133    -0.2955535098
    6      C      -3.7947534391    -0.1267218224    -0.2537663739
    7      C      -4.0797554664     1.2514389415    -0.0629908341
    8      C      -3.0370786753     2.1363143867     0.0784186607
    9      C      -1.6820583533     1.7210574466     0.0308597058
   10      C      -0.6605801974     2.7364280296     0.1527687491
   11      O      -0.9390842778     3.9754343002     0.3349386297
   12      C       0.6971547390     2.2562811978     0.0253732717
   13      C       1.7387670150     3.2159383566     0.0745577554
   14      C       3.0625378149     2.8755290035    -0.0737032197
   15      C       3.4001551652     1.5120550665    -0.2842653834
   16      C       2.4104951224     0.5628260535    -0.3251638014
   17      O       2.8378973922    -0.7424796915    -0.6540361769
   18      C       2.8096492182    -1.7105490384     0.2914516515
   19      C       2.8331870356    -3.0664333346    -0.3723144278
   20      O       2.8711825142    -1.5192448115     1.4816113697
   21      C       1.0158462037     0.8465705034    -0.1739992391
   22      C      -0.0065450374    -0.1664365274    -0.2399143538
   23      O       0.2705785358    -1.4374381507    -0.3648427075
   24      C      -1.3626839437     0.3153486292    -0.1633272198
   25      H      -0.5871594135    -3.6254435200    -1.3240687153
   26      H      -0.3447148544    -4.3990373569     0.2708516466
   27      H      -1.8913595649    -4.6010179635    -0.5915357950
   28      H      -4.5848065415    -0.8620213810    -0.3701559042
   29      H      -5.1121101104     1.5920013049    -0.0260627123
   30      H      -3.2027570518     3.1982940410     0.2252983115
   31      H       1.4259807200     4.2433346764     0.2284605336
   32      H       3.8446766920     3.6300060650    -0.0343252670
   33      H       4.4293023726     1.1945825079    -0.4199455518
   34      H       2.9452722325    -3.8458462242     0.3816688668
   35      H       1.8858880162    -3.1740693250    -0.9016917308
   36      H       3.6519128194    -3.1188292999    -1.0973260625
 ----------------------------------------------------------------

   11   -1144.8291443731      7.78e-06  Convergence criterion met
 Total energy in the final basis set =    -1144.8291443731
    6   -1145.0905768560      2.67e-06  Convergence criterion met
 Total energy in the final basis set =    -1145.0905768560

                    Orbital Energies (a.u.)
 --------------------------------------------------------------

 Alpha MOs
 -- Occupied --
-19.1576 -19.1503 -19.1087 -19.0999 -19.0311 -19.0280 -10.3012 -10.2982
-10.2209 -10.2194 -10.1898 -10.1845 -10.1591 -10.1569 -10.1568 -10.1564
-10.1561 -10.1554 -10.1553 -10.1536 -10.1506 -10.1495 -10.1478 -10.1474
 -1.1016  -1.0931  -1.0223  -1.0147  -0.9520  -0.9414  -0.8401  -0.8321
 -0.7663  -0.7577  -0.7536  -0.7198  -0.7164  -0.7128  -0.6547  -0.6294
 -0.6207  -0.6017  -0.5898  -0.5328  -0.5291  -0.5020  -0.5011  -0.4814
 -0.4777  -0.4706  -0.4665  -0.4644  -0.4619  -0.4500  -0.4437  -0.4332
 -0.4237  -0.4051  -0.3983  -0.3963  -0.3909  -0.3858  -0.3837  -0.3793
 -0.3740  -0.3671  -0.3625  -0.3611  -0.3472  -0.3402  -0.3360  -0.3311
 -0.3176  -0.3107  -0.3082  -0.3016  -0.2798  -0.2737  -0.2353  -0.2348
 -0.2286  -0.2266  -0.2132  -0.2026  -0.1174

          Ground-State Mulliken Net Atomic Charges

     Atom                 Charge (a.u.)
  ----------------------------------------
      1 C                    -0.431768
      2 C                    -0.085464
      3 O                    -0.312072
      4 O                    -0.030157
      5 C                    -0.211491
      6 C                    -0.121729
      7 C                    -0.524035
      8 C                    -0.207816
      9 C                     0.385142
     10 C                    -0.612992
     11 O                    -0.675894
     12 C                     0.362457
     13 C                    -0.241093
     14 C                    -0.514569
     15 C                     0.025926
     16 C                    -0.395953
     17 O                    -0.000301
     18 C                     0.010403
     19 C                    -0.430603
     20 O                    -0.316134
     21 C                     0.408914
     22 C                    -0.305739
     23 O                    -0.487298
     24 C                     0.476951
     25 H                     0.202228
     26 H                     0.177856
     27 H                     0.187990
     28 H                     0.194960
     29 H                     0.193595
     30 H                     0.161653
     31 H                     0.161711
     32 H                     0.195466
     33 H                     0.195742
     34 H                     0.170689
     35 H                     0.212753
     36 H                     0.180671
  ----------------------------------------
  Sum of atomic charges =    -2.000000

                    Cartesian Multipole Moments
 -----------------------------------------------------------------
    Charge (ESU x 10^10)
                -9.6064
    Dipole Moment (Debye)
         X       3.2826      Y     -10.6333      Z      -5.3912
       Tot      12.3656
    Quadrupole Moments (Debye-Ang)
        XX    -167.9346     XY       8.1309     YY    -203.8000
        XZ      -2.3565     YZ       6.8683     ZZ    -164.1523

 Total job time:  161.10s(wall), 1216.82s(cpu)
        *  Thank you very much for using Q-Chem.  Have a nice day.  *
