 Q-Chem 5.4, Q-Chem, Inc., Pleasanton, CA (2021)
 Q-Chem 5.4.0 for Intel X86 EM64T Linux

User input:
--------------------------------------------------------------
$molecule
0 1
C                 -2.9257610000      0.4240760000      0.5253280000
C                 -1.9615580000     -0.4075160000     -0.3432730000
C                 -2.3003100000     -0.3340310000     -1.8451040000
C                 -0.4969260000     -0.1141820000     -0.0507270000
C                  0.1766170000      1.0371550000     -0.2414990000
Br                -0.6101400000      2.6238350000     -0.9568040000
C                  1.6296670000      1.2137180000      0.0851590000
O                  2.1965150000      2.2697790000     -0.1037080000
C                  2.3833730000      0.0488070000      0.6569730000
C                  1.7185560000     -1.1031030000      0.8497410000
Br                 2.5854990000     -2.6369520000      1.5683380000
C                  0.2732070000     -1.2838160000      0.5268130000
O                 -0.2782250000     -2.3471100000      0.7222150000
C                  3.8331890000      0.2625170000      0.9714010000
H                 -2.9044210000      1.4849840000      0.2757890000
H                 -2.6912330000      0.3158430000      1.5874900000
H                 -3.9458590000      0.0612540000      0.3721540000
H                 -2.0962640000     -1.4477030000     -0.0461180000
H                 -2.2397940000      0.6807680000     -2.2385370000
H                 -1.6317960000     -0.9703950000     -2.4307900000
H                 -3.3208960000     -0.6955750000     -1.9980560000
H                  4.4536240000     -0.4408990000      0.4093250000
H                  4.1280060000      1.2797120000      0.7235010000
H                  4.0249320000      0.0788340000      2.0321450000
$end
$rem
MAX_SCF_CYCLES=200
BASIS  =  6-311++G(d,p)
GUI  =  2
JOB_TYPE  =  SP
METHOD  =  B3LYP
SOLVENT_METHOD = COSMO
$end
$solvent
dielectric 37.219
opticaldielectric 1.43
$end

--------------------------------------------------------------

             Standard Nuclear Orientation (Angstroms)
    I     Atom           X                Y                Z
 ----------------------------------------------------------------
    1      C      -2.4241425427     2.2677575465    -1.2829526133
    2      C      -1.5842225131     2.1121899118     0.0000257309
    3      C      -2.4239772865     2.2673132433     1.2831461414
    4      C      -0.7287157810     0.8532685127    -0.0001629330
    5      C      -1.1361178324    -0.4311202843    -0.0001082878
    6      Br     -2.9698869489    -0.9654347951     0.0001630731
    7      C      -0.1972811646    -1.6006586356    -0.0001228723
    8      O      -0.6089423968    -2.7420556090     0.0003391894
    9      C       1.2797488627    -1.3352462063    -0.0005277723
   10      C       1.6938891916    -0.0567606083    -0.0001315533
   11      Br      3.5451594310     0.3830833432     0.0004748911
   12      C       0.7641769266     1.1101191667    -0.0004605481
   13      O       1.1930323942     2.2454323140    -0.0010671782
   14      C       2.1871146669    -2.5282216589    -0.0010095790
   15      H      -3.2119439390     1.5183789752    -1.3607447044
   16      H      -1.7960210024     2.2002795222    -2.1750377696
   17      H      -2.8951581834     3.2545940128    -1.2827026511
   18      H      -0.8647072573     2.9311731761     0.0000959913
   19      H      -3.2109343483     1.5170890379     1.3614465039
   20      H      -1.7955133915     2.2008810716     2.1750643543
   21      H      -2.8960716656     3.2536351252     1.2826945066
   22      H       2.8384037179    -2.5130686554     0.8772022670
   23      H       1.6043686864    -3.4466247373    -0.0007877312
   24      H       2.8374853670    -2.5128962776    -0.8799098812
 ----------------------------------------------------------------

    9   -5685.9403979947      4.93e-06  Convergence criterion met
 Total energy in the final basis set =    -5685.9403979947
    5   -5685.9514989686      2.78e-06  Convergence criterion met
 Total energy in the final basis set =    -5685.9514989686

                    Orbital Energies (a.u.)
 --------------------------------------------------------------

 Alpha MOs
 -- Occupied --
********-482.8471 -62.5022 -62.5000 -56.3227 -56.3205 -56.3189 -56.3185
-56.3167 -56.3162 -19.1540 -19.1537 -10.3055 -10.3049 -10.2645 -10.2620
-10.2346 -10.2333 -10.1933 -10.1792 -10.1626 -10.1626  -8.7110  -8.7089
 -6.5426  -6.5406  -6.5299  -6.5286  -6.5277  -6.5264  -2.6534  -2.6515
 -2.6500  -2.6492  -2.6479  -2.6470  -2.6390  -2.6389  -2.6368  -2.6368
 -1.0914  -1.0895  -0.8947  -0.8640  -0.8098  -0.8006  -0.7713  -0.7180
 -0.6964  -0.6907  -0.6305  -0.6054  -0.5786  -0.5507  -0.5027  -0.4846
 -0.4761  -0.4635  -0.4505  -0.4421  -0.4375  -0.4317  -0.4253  -0.4201
 -0.4121  -0.3944  -0.3930  -0.3681  -0.3583  -0.3470  -0.3432  -0.3408
 -0.3111  -0.3084  -0.2996  -0.2926  -0.2887  -0.2705

          Ground-State Mulliken Net Atomic Charges

     Atom                 Charge (a.u.)
  ----------------------------------------
      1 C                    -0.705281
      2 C                     0.275697
      3 C                    -0.705153
      4 C                     1.225820
      5 C                     0.287647
      6 Br                   -0.033091
      7 C                    -1.380511
      8 O                    -0.195975
      9 C                     0.896342
     10 C                     0.176222
     11 Br                   -0.146901
     12 C                    -1.048444
     13 O                    -0.186675
     14 C                    -0.278614
     15 H                     0.156632
     16 H                     0.164525
     17 H                     0.171461
     18 H                     0.232604
     19 H                     0.156509
     20 H                     0.164585
     21 H                     0.171347
     22 H                     0.199236
     23 H                     0.202677
     24 H                     0.199340
  ----------------------------------------
  Sum of atomic charges =     0.000000

                    Cartesian Multipole Moments
 -----------------------------------------------------------------
    Charge (ESU x 10^10)
                 0.0000
    Dipole Moment (Debye)
         X       0.0137      Y       0.2483      Z      -0.0010
       Tot       0.2487
    Quadrupole Moments (Debye-Ang)
        XX    -105.6158     XY     -14.7417     YY    -117.2326
        XZ       0.0016     YZ       0.0077     ZZ    -106.5117

 Total job time:  139.28s(wall), 364.59s(cpu)
        *  Thank you very much for using Q-Chem.  Have a nice day.  *
