 Gaussian 16, Revision A.03,
 Gaussian 16:  ES64L-G16RevA.03 25-Dec-2016

 ----------------------------------------------------------------
 #P UB3LYP/6-311++G(d,p) SCRF=(PCM,Solvent=n,n-DiMethylFormamide)
 ----------------------------------------------------------------

 ------------------
 Radical PCM in DMF
 ------------------
 Symbolic Z-matrix:
 Charge = -1 Multiplicity = 2

                         Standard orientation:
 ---------------------------------------------------------------------
 Center     Atomic      Atomic             Coordinates (Angstroms)
 Number     Number       Type             X           Y           Z
 ---------------------------------------------------------------------
      1          8           0       -2.511058    2.222638   -0.065892
      2          6           0       -2.480769    0.868357   -0.066440
      3          6           0       -3.665590    0.163220   -0.259550
      4          6           0       -3.662067   -1.235479   -0.280076
      5          6           0       -2.464886   -1.931582   -0.086875
      6          6           0       -1.271505   -1.246092    0.125519
      7          6           0        0.000057   -1.985159    0.477341
      8          6           0        1.271610   -1.246034    0.125584
      9          6           0        2.465073   -1.931510   -0.086738
     10          6           0        3.662148   -1.235291   -0.279923
     11          6           0        3.665618    0.163400   -0.259548
     12          6           0        2.480730    0.868534   -0.066568
     13          8           0        2.510634    2.222661   -0.066190
     14          6           0        1.245565    0.172509    0.121336
     15          6           0       -0.000016    0.896991    0.231449
     16          8           0        0.000107    2.216400    0.283478
     17          6           0       -1.245510    0.172595    0.121357
     18          1           0       -1.556438    2.504888    0.076849
     19          1           0       -4.580843    0.727633   -0.403673
     20          1           0       -4.589070   -1.776563   -0.441370
     21          1           0       -2.462395   -3.018399   -0.085901
     22          1           0        0.000103   -2.982605    0.024632
     23          1           0        0.000082   -2.153116    1.570806
     24          1           0        2.462678   -3.018324   -0.085684
     25          1           0        4.589242   -1.776278   -0.441065
     26          1           0        4.580881    0.727805   -0.403671
     27          1           0        1.555557    2.504615    0.076696
 ---------------------------------------------------------------------

 SCF Done:  E(UB3LYP) =  -765.545748006     A.U. after   20 cycles

 The electronic state is 2-A.
 Alpha  occ. eigenvalues --  -19.12341 -19.12336 -19.08036 -10.22313 -10.22313
 Alpha  occ. eigenvalues --  -10.21078 -10.17424 -10.17423 -10.17180 -10.16571
 Alpha  occ. eigenvalues --  -10.16569 -10.16476 -10.16476 -10.15724 -10.15723
 Alpha  occ. eigenvalues --  -10.15721 -10.15720  -1.04800  -1.04109  -0.98311
 Alpha  occ. eigenvalues --   -0.86098  -0.83793  -0.78565  -0.75181  -0.73609
 Alpha  occ. eigenvalues --   -0.72659  -0.68553  -0.63568  -0.62404  -0.58167
 Alpha  occ. eigenvalues --   -0.57994  -0.55347  -0.51493  -0.50808  -0.50777
 Alpha  occ. eigenvalues --   -0.46610  -0.46243  -0.45290  -0.43940  -0.42816
 Alpha  occ. eigenvalues --   -0.41250  -0.40706  -0.40604  -0.39943  -0.39842
 Alpha  occ. eigenvalues --   -0.38680  -0.37755  -0.36119  -0.36044  -0.35750
 Alpha  occ. eigenvalues --   -0.33708  -0.32646  -0.32275  -0.32159  -0.25954
 Alpha  occ. eigenvalues --   -0.25107  -0.24337  -0.21974  -0.21746  -0.11642
 Alpha virt. eigenvalues --   -0.01522  -0.00708  -0.00143   0.00610   0.01138
 Alpha virt. eigenvalues --    0.01302   0.01807   0.02447   0.03079   0.04028
 Alpha virt. eigenvalues --    0.04302   0.04375   0.04953   0.06048   0.06489

  Beta  occ. eigenvalues --  -19.12260 -19.12255 -19.07521 -10.22142 -10.22142
  Beta  occ. eigenvalues --  -10.20496 -10.17224 -10.17198 -10.17185 -10.16696
  Beta  occ. eigenvalues --  -10.16695 -10.16250 -10.16250 -10.15821 -10.15821
  Beta  occ. eigenvalues --  -10.15792 -10.15791  -1.04536  -1.03935  -0.97345
  Beta  occ. eigenvalues --   -0.85822  -0.83598  -0.78288  -0.74805  -0.73411
  Beta  occ. eigenvalues --   -0.72513  -0.68369  -0.63004  -0.62117  -0.57878
  Beta  occ. eigenvalues --   -0.57844  -0.55139  -0.51338  -0.50718  -0.50510
  Beta  occ. eigenvalues --   -0.46424  -0.46038  -0.45201  -0.43346  -0.42620
  Beta  occ. eigenvalues --   -0.40891  -0.40364  -0.40013  -0.39613  -0.39482
  Beta  occ. eigenvalues --   -0.38568  -0.37638  -0.35949  -0.35758  -0.33664
  Beta  occ. eigenvalues --   -0.33373  -0.32530  -0.31892  -0.31545  -0.24702
  Beta  occ. eigenvalues --   -0.24344  -0.23782  -0.21529  -0.21405
  Beta virt. eigenvalues --   -0.05211  -0.00563  -0.00446   0.00153   0.00617
  Beta virt. eigenvalues --    0.01158   0.01852   0.01933   0.02448   0.03175
  Beta virt. eigenvalues --    0.04111   0.04296   0.04452   0.06106   0.06278

 Mulliken charges and spin densities:
               1          2
     1  O   -0.399597   0.022203
     2  C   -0.110265   0.135087
     3  C   -0.343821  -0.058617
     4  C   -0.257631   0.179336
     5  C   -0.161395  -0.078075
     6  C   -0.043612   0.101910
     7  C   -0.900726   0.121865
     8  C   -0.043184   0.101775
     9  C   -0.161602  -0.077977
    10  C   -0.257623   0.179088
    11  C   -0.344038  -0.058523
    12  C   -0.110007   0.134931
    13  O   -0.399871   0.022210
    14  C    0.819358  -0.154475
    15  C   -0.620664   0.393133
    16  O   -0.589718   0.170561
    17  C    0.819626  -0.154558
    18  H    0.387910  -0.002448
    19  H    0.173744   0.003025
    20  H    0.178273  -0.012984
    21  H    0.163051   0.004753
    22  H    0.091316   0.005931
    23  H    0.207252   0.029496
    24  H    0.163055   0.004749
    25  H    0.178267  -0.012967
    26  H    0.173728   0.003021
    27  H    0.388176  -0.002448
 Sum of Mulliken charges =  -1.00000   1.00000

 Dipole moment (field-independent basis, Debye):
    X=             -0.0014    Y=             -7.3554    Z=              0.0843  Tot=              7.3558
 Quadrupole moment (field-independent basis, Debye-Ang):
   XX=           -126.2668   YY=           -116.8518   ZZ=           -107.7012
   XY=             -0.0039   XZ=              0.0018   YZ=             -1.1936

 Normal termination of Gaussian 16 at Sat Jan 13 19:20:18 2024.
