 Q-Chem 5.4, Q-Chem, Inc., Pleasanton, CA (2021)
 Q-Chem 5.4.0 for Intel X86 EM64T Linux

User input:
--------------------------------------------------------------
$molecule
0 1
C                 -2.5490400000      4.1040210000      4.5039600000
C                 -2.9291840000      3.1892200000      5.4800860000
C                 -2.2433370000      1.9792510000      5.6065270000
C                 -1.4790450000      3.8055180000      3.6556210000
C                 -0.7874550000      2.5901690000      3.7795440000
C                 -1.1787470000      1.6788280000      4.7591350000
C                 -1.0596330000      4.7602580000      2.6189400000
C                  0.1025930000      4.3965850000      1.7529910000
C                  0.8062890000      3.2411810000      1.8676140000
C                  0.3604650000      2.2444350000      2.8675180000
O                 -1.5930600000      5.8469080000      2.4236400000
O                  0.8942940000      1.1510480000      2.9630460000
O                  0.4019280000      5.3385200000      0.8432160000
H                 -3.0656230000      5.0485270000      4.3846530000
H                 -3.7572930000      3.4158150000      6.1415310000
H                 -2.5406970000      1.2676000000      6.3684230000
H                 -0.6385890000      0.7440190000      4.8423020000
H                 -0.2347370000      6.0652420000      0.9891630000
C                  3.2298270000      2.4276020000      1.6246630000
C                  3.6277200000      2.9659410000      2.8532620000
C                  4.0515040000      1.4775910000      1.0165440000
C                  5.2294740000      1.0567690000      1.6336380000
C                  5.6111480000      1.5886450000      2.8627160000
C                  4.8054520000      2.5516700000      3.4690480000
H                  3.0133820000      3.7186030000      3.3376870000
H                  3.7686130000      1.0810590000      0.0500750000
H                  5.8517050000      0.3127720000      1.1478130000
H                  5.0943360000      2.9815600000      4.4220180000
H                  6.5271610000      1.2612040000      3.3416560000
C                  1.9811490000      2.9657710000      0.9214390000
H                  2.2693780000      3.9485130000      0.5384960000
N                  1.6161490000      2.2066650000     -0.2828070000
C                  0.8844010000      0.9433430000     -0.1470970000
C                  0.7754480000      0.2442800000     -1.5029610000
C                  0.0044590000     -1.0785240000     -1.4347740000
C                 -0.1042890000     -1.7913580000     -2.7875290000
C                 -0.8717330000     -3.1166190000     -2.7227880000
C                 -0.9798020000     -3.8310860000     -4.0747120000
C                 -1.7452220000     -5.1575930000     -4.0099020000
C                 -1.8531330000     -5.8722660000     -5.3617510000
C                 -2.6173690000     -7.1994940000     -5.2968290000
C                 -2.7255030000     -7.9141580000     -6.6484480000
C                 -3.4888810000     -9.2419580000     -6.5845940000
C                 -3.5915420000     -9.9481480000     -7.9397130000
H                  1.1307940000      2.8220460000     -0.9257020000
H                 -0.1274730000      1.0812290000      0.2678470000
H                  1.4216640000      0.3101310000      0.5615380000
H                  1.7841350000      0.0702290000     -1.8937490000
H                  0.2808020000      0.9154180000     -2.2185720000
H                 -1.0036800000     -0.8940540000     -1.0418650000
H                  0.4937090000     -1.7449830000     -0.7131570000
H                  0.9037100000     -1.9761230000     -3.1806560000
H                 -0.5936540000     -1.1247840000     -3.5096580000
H                 -1.8800100000     -2.9318600000     -2.3297450000
H                 -0.3823710000     -3.7824170000     -2.0001290000
H                  0.0285150000     -4.0146410000     -4.4680360000
H                 -1.4701110000     -3.1656700000     -4.7972430000
H                 -2.7535640000     -4.9742720000     -3.6163710000
H                 -1.2546610000     -5.8228990000     -3.2875130000
H                 -0.8448150000     -6.0548700000     -5.7555470000
H                 -2.3443440000     -5.2072680000     -6.0840230000
H                 -3.6256990000     -7.0170690000     -4.9028110000
H                 -2.1259020000     -7.8645720000     -4.5747890000
H                 -1.7174740000     -8.0969520000     -7.0433870000
H                 -3.2176640000     -7.2500720000     -7.3711600000
H                 -4.4963230000     -9.0598360000     -6.1907710000
H                 -2.9969950000     -9.9060880000     -5.8633670000
H                 -4.1102170000     -9.3227620000     -8.6733630000
H                 -4.1410160000    -10.8903510000     -7.8596790000
H                 -2.5997440000    -10.1756610000     -8.3433740000
$end
$rem
MAX_SCF_CYCLES=200
SCF_Guess=core
BASIS  =  6-311++G(d,p)
GUI  =  2
JOB_TYPE  =  SP
METHOD  =  B3LYP
THRESH = 14
SCF_CONVERGENCE = 8
SOLVENT_METHOD = COSMO
$end
$solvent
dielectric 37.219
opticaldielectric 1.43
$end

--------------------------------------------------------------

             Standard Nuclear Orientation (Angstroms)
    I     Atom           X                Y                Z
 ----------------------------------------------------------------
    1      C      -5.3782958176     3.9077072983    -0.2387532044
    2      C      -5.2260585131     4.4432358214    -1.5132041851
    3      C      -4.5580899715     3.7151230116    -2.5001531091
    4      C      -4.8618236449     2.6402660776     0.0450101596
    5      C      -4.1895502576     1.9055514164    -0.9444188117
    6      C      -4.0395747956     2.4529801552    -2.2176350194
    7      C      -5.0144963071     2.0550200832     1.3852790033
    8      C      -4.4590556143     0.6889267552     1.6264628591
    9      C      -3.8282743834    -0.0549581383     0.6819867082
   10      C      -3.6152863342     0.5432817947    -0.6554790709
   11      O      -5.5814308449     2.6089815831     2.3208037563
   12      O      -2.9806741622    -0.0363613770    -1.5220096915
   13      O      -4.6551513957     0.2500544459     2.8808436138
   14      H      -5.8909572889     4.4528213717     0.5443257208
   15      H      -5.6255505859     5.4250110905    -1.7393517090
   16      H      -4.4408909326     4.1339344363    -3.4932377007
   17      H      -3.5166767340     1.8769217134    -2.9708212980
   18      H      -5.1456268150     0.9593731805     3.3402655443
   19      C      -3.6118205367    -2.5203629699    -0.0031404068
   20      C      -4.8743816441    -2.5563729417    -0.6049925092
   21      C      -2.7057933526    -3.5409150065    -0.2948097283
   22      C      -3.0440793702    -4.5588930596    -1.1863212173
   23      C      -4.2985015644    -4.5796466143    -1.7906341331
   24      C      -5.2166694541    -3.5739185434    -1.4911671685
   25      H      -5.6020505395    -1.7825514080    -0.3807670473
   26      H      -1.7394085472    -3.5394861544     0.1924536902
   27      H      -2.3237472432    -5.3399844428    -1.4048315421
   28      H      -6.2007421079    -3.5817974076    -1.9471826659
   29      H      -4.5608280283    -5.3714922685    -2.4833434767
   30      C      -3.2909200102    -1.4460479212     1.0390767695
   31      H      -3.8462650613    -1.7402182506     1.9338163003
   32      N      -1.8866564376    -1.4535168032     1.4722780879
   33      C      -0.8676924192    -0.8150896849     0.6332441439
   34      C       0.5299497600    -1.1025256938     1.1836112036
   35      C       1.6444486427    -0.4477534415     0.3601736130
   36      C       3.0503430742    -0.7357242652     0.8990967812
   37      C       4.1680457487    -0.0854269304     0.0760946450
   38      C       5.5744815268    -0.3739785123     0.6132323288
   39      C       6.6926157951     0.2742817188    -0.2109177572
   40      C       8.0991224412    -0.0144203664     0.3260069676
   41      C       9.2174582567     0.6326666055    -0.4988622028
   42      C      10.6238634263     0.3442375853     0.0379289254
   43      C      11.7431049285     0.9901852715    -0.7866474450
   44      C      13.1441776599     0.6962863106    -0.2423959377
   45      H      -1.8319363752    -1.0949272868     2.4188490074
   46      H      -1.0049918133     0.2758000937     0.5545775610
   47      H      -0.9620942686    -1.2089168643    -0.3805413240
   48      H       0.6796966509    -2.1872564465     1.2209413286
   49      H       0.5909675521    -0.7485191936     2.2219542156
   50      H       1.4854874721     0.6378129002     0.3281116325
   51      H       1.5773765604    -0.7946841894    -0.6787703931
   52      H       3.2096923207    -1.8212332729     0.9311426706
   53      H       3.1176772760    -0.3888002598     1.9385096603
   54      H       4.0088159867     1.0003291346     0.0441439511
   55      H       4.0998010874    -0.4321541103    -0.9631941036
   56      H       5.7329826103    -1.4597460143     0.6461825595
   57      H       5.6431419426    -0.0263360932     1.6523006182
   58      H       6.5341643416     1.3601058775    -0.2441722196
   59      H       6.6239064173    -0.0736303543    -1.2498423196
   60      H       8.2572120760    -1.1002293979     0.3599350385
   61      H       8.1681329582     0.3341234509     1.3647283858
   62      H       9.0593649583     1.7185278909    -0.5330708536
   63      H       9.1485959572     0.2838116557    -1.5375000259
   64      H      10.7828780632    -0.7415912934     0.0726120110
   65      H      10.6940422346     0.6935159780     1.0764975748
   66      H      11.5851612447     2.0751165305    -0.8210322901
   67      H      11.6739543832     0.6408004219    -1.8241142196
   68      H      13.2559817345     1.0653332943     0.7821419580
   69      H      13.9182899777     1.1707769157    -0.8520535434
   70      H      13.3456052052    -0.3796357164    -0.2287439503
 ----------------------------------------------------------------

   36   -1408.1940784850      5.95e-09  Convergence criterion met
 Total energy in the final basis set =    -1408.1940784850
   11   -1408.2143916912      5.86e-09  Convergence criterion met
 Total energy in the final basis set =    -1408.2143916912

                    Orbital Energies (a.u.)
 --------------------------------------------------------------

 Alpha MOs
 -- Occupied --
-19.1813 -19.1522 -19.1290 -14.3041 -10.2961 -10.2827 -10.2725 -10.2217
-10.2111 -10.2100 -10.2060 -10.2011 -10.1988 -10.1968 -10.1968 -10.1858
-10.1858 -10.1746 -10.1739 -10.1729 -10.1722 -10.1697 -10.1596 -10.1588
-10.1586 -10.1574 -10.1567 -10.1565 -10.1565 -10.1564 -10.1562 -10.1562
-10.1521  -1.1118  -1.0697  -1.0649  -0.9167  -0.8927  -0.8584  -0.8376
 -0.8109  -0.8005  -0.7891  -0.7803  -0.7766  -0.7623  -0.7504  -0.7471
 -0.7225  -0.7060  -0.6889  -0.6703  -0.6540  -0.6428  -0.6272  -0.6092
 -0.6071  -0.6047  -0.5835  -0.5799  -0.5756  -0.5734  -0.5695  -0.5683
 -0.5446  -0.5228  -0.5150  -0.4997  -0.4921  -0.4833  -0.4831  -0.4765
 -0.4717  -0.4694  -0.4605  -0.4581  -0.4532  -0.4520  -0.4464  -0.4417
 -0.4360  -0.4301  -0.4283  -0.4264  -0.4200  -0.4190  -0.4116  -0.4093
 -0.4073  -0.4047  -0.3988  -0.3902  -0.3844  -0.3808  -0.3775  -0.3719
 -0.3701  -0.3673  -0.3629  -0.3576  -0.3481  -0.3434  -0.3419  -0.3386
 -0.3329  -0.3265  -0.3263  -0.3237  -0.3197  -0.3194  -0.3168  -0.3165
 -0.3069  -0.2937  -0.2917  -0.2844  -0.2803  -0.2691  -0.2581  -0.2459
 -0.2318

          Ground-State Mulliken Net Atomic Charges

     Atom                 Charge (a.u.)
  ----------------------------------------
      1 C                     0.147799
      2 C                    -0.513351
      3 C                    -0.462097
      4 C                     0.434170
      5 C                     0.325249
      6 C                    -0.047962
      7 C                    -0.260925
      8 C                    -0.318076
      9 C                     0.383601
     10 C                    -0.082253
     11 O                    -0.323838
     12 O                    -0.227618
     13 O                    -0.227856
     14 H                     0.227194
     15 H                     0.221423
     16 H                     0.234541
     17 H                     0.213066
     18 H                     0.332476
     19 C                     0.425665
     20 C                    -0.368255
     21 C                    -0.153867
     22 C                    -0.326725
     23 C                    -0.405827
     24 C                    -0.394852
     25 H                     0.194175
     26 H                     0.196116
     27 H                     0.222390
     28 H                     0.215486
     29 H                     0.191466
     30 C                    -0.058179
     31 H                     0.274594
     32 N                    -0.042035
     33 C                    -0.629879
     34 C                    -0.727424
     35 C                     0.188257
     36 C                    -0.241200
     37 C                    -0.396848
     38 C                    -0.374413
     39 C                    -0.237885
     40 C                    -0.083817
     41 C                    -0.130688
     42 C                    -0.274365
     43 C                    -0.235187
     44 C                    -0.702879
     45 H                     0.321371
     46 H                     0.186213
     47 H                     0.222858
     48 H                     0.149761
     49 H                     0.134278
     50 H                     0.115112
     51 H                     0.119334
     52 H                     0.130629
     53 H                     0.133402
     54 H                     0.136735
     55 H                     0.137061
     56 H                     0.136572
     57 H                     0.136244
     58 H                     0.133111
     59 H                     0.133211
     60 H                     0.132156
     61 H                     0.132532
     62 H                     0.130620
     63 H                     0.130937
     64 H                     0.127444
     65 H                     0.127451
     66 H                     0.135993
     67 H                     0.136027
     68 H                     0.145301
     69 H                     0.151044
     70 H                     0.145238
  ----------------------------------------
  Sum of atomic charges =     0.000000

                    Cartesian Multipole Moments
 -----------------------------------------------------------------
    Charge (ESU x 10^10)
                -0.0000
    Dipole Moment (Debye)
         X      -1.1609      Y       4.7888      Z      -0.5458
       Tot       4.9576
    Quadrupole Moments (Debye-Ang)
        XX    -192.7588     XY     -19.9047     YY    -191.0222
        XZ       8.5115     YZ      -6.3284     ZZ    -199.3293

 Total job time:  2279.81s(wall), 17563.06s(cpu)
        *  Thank you very much for using Q-Chem.  Have a nice day.  *
