 Q-Chem 5.4, Q-Chem, Inc., Pleasanton, CA (2021)
 Q-Chem 5.4.0 for Intel X86 EM64T Linux

User input:
--------------------------------------------------------------
$molecule
-1 2
C                  3.2917220000     -0.2727640000     -0.1038390000
C                  1.7932050000     -0.4018260000     -0.1454660000
C                  0.9703100000      0.7520480000      0.1498850000
O                  1.4632910000      1.8722720000      0.4437060000
C                 -0.4962980000      0.5642640000      0.0932160000
C                 -1.3450560000      1.6500540000      0.3707240000
C                 -2.7234210000      1.5145100000      0.3278730000
C                 -3.2964630000      0.2688840000      0.0009700000
C                 -2.4837900000     -0.8146960000     -0.2763690000
C                 -1.0777670000     -0.6938280000     -0.2371740000
C                 -0.2278770000     -1.8290100000     -0.5277700000
O                 -0.6394150000     -2.9965630000     -0.8335620000
C                  1.1959840000     -1.6030130000     -0.4612980000
O                  1.9407840000     -2.7110970000     -0.7454150000
H                  3.7335620000     -0.9681970000      0.6197820000
H                  3.5565610000      0.7479830000      0.1743920000
H                  3.7412870000     -0.5065290000     -1.0762790000
H                 -0.8773550000      2.5959940000      0.6193150000
H                 -3.3620380000      2.3655210000      0.5456480000
H                 -4.3769040000      0.1612060000     -0.0330090000
H                 -2.9004110000     -1.7829140000     -0.5302990000
H                  1.2456480000     -3.3821710000     -0.9234540000
$end
$rem
MAX_SCF_CYCLES=200
BASIS  =  6-311++G(d,p)
GUI  =  2
JOB_TYPE  =  SP
METHOD  =  B3LYP
SOLVENT_METHOD = COSMO
$end
$solvent
dielectric 37.219
opticaldielectric 1.43
$end

--------------------------------------------------------------

             Standard Nuclear Orientation (Angstroms)
    I     Atom           X                Y                Z
 ----------------------------------------------------------------
    1      C       3.0335836266    -1.3721207709    -0.0000946834
    2      C       1.7004337375    -0.6745146000    -0.0001922247
    3      C       0.4849183113    -1.4608579230    -0.0000218354
    4      O       0.4980737139    -2.7194642060     0.0001058053
    5      C      -0.7955843381    -0.7194227100    -0.0001697765
    6      C      -2.0081126416    -1.4308408999     0.0000003587
    7      C      -3.2277092836    -0.7730548556     0.0000903690
    8      C      -3.2653077010     0.6359920521     0.0000016313
    9      C      -2.0869621189     1.3591805686     0.0000336263
   10      C      -0.8360272065     0.7048046574    -0.0000651297
   11      C       0.3970664658     1.4630112324     0.0000085858
   12      O       0.4778272744     2.7356187806    -0.0000133094
   13      C       1.6229931809     0.7014490191     0.0000592814
   14      O       2.7483246933     1.4740605926     0.0001268214
   15      H       3.6337369930    -1.0889577190    -0.8730847278
   16      H       2.8742327338    -2.4509916960    -0.0111148186
   17      H       3.6246570850    -1.1068637253     0.8845889802
   18      H      -1.9495310548    -2.5133899216    -0.0000875394
   19      H      -4.1534830170    -1.3408755490     0.0001007262
   20      H      -4.2207305576     1.1529727441     0.0000895151
   21      H      -2.0895863866     2.4433819819    -0.0000477346
   22      H       2.3711465570     2.3812479269    -0.0001001566
 ----------------------------------------------------------------

   10    -649.9222190267      6.95e-06  Convergence criterion met
 Total energy in the final basis set =     -649.9222190267
    5    -650.0044963715      4.65e-06  Convergence criterion met
 Total energy in the final basis set =     -650.0044963715

                    Orbital Energies (a.u.)
 --------------------------------------------------------------

 Alpha MOs
 -- Occupied --
-19.1458 -19.0894 -19.0784 -10.2272 -10.2242 -10.2224 -10.1761 -10.1743
-10.1723 -10.1713 -10.1711 -10.1696 -10.1667 -10.1535  -1.0656  -1.0045
 -0.9995  -0.8595  -0.8086  -0.7555  -0.7511  -0.6971  -0.6614  -0.6187
 -0.5955  -0.5708  -0.5376  -0.5058  -0.4842  -0.4606  -0.4511  -0.4423
 -0.4272  -0.4206  -0.4132  -0.4007  -0.3919  -0.3897  -0.3820  -0.3645
 -0.3628  -0.3462  -0.3453  -0.3373  -0.2696  -0.2641  -0.2591  -0.2447
 -0.2298  -0.1543

 Beta MOs
 -- Occupied --
-19.1453 -19.0833 -19.0731 -10.2258 -10.2216 -10.2211 -10.1760 -10.1732
-10.1722 -10.1706 -10.1705 -10.1698 -10.1659 -10.1536  -1.0634  -0.9951
 -0.9891  -0.8572  -0.8048  -0.7530  -0.7492  -0.6930  -0.6550  -0.6168
 -0.5925  -0.5684  -0.5358  -0.5034  -0.4811  -0.4592  -0.4501  -0.4317
 -0.4258  -0.4159  -0.4103  -0.3925  -0.3906  -0.3805  -0.3792  -0.3634
 -0.3481  -0.3447  -0.3359  -0.3299  -0.2586  -0.2520  -0.2501  -0.2397
 -0.2210

          Ground-State Mulliken Net Atomic Charges

     Atom                 Charge (a.u.)    Spin (a.u.)
  --------------------------------------------------------
      1 C                    -0.270745      -0.002553
      2 C                     1.189429       0.061327
      3 C                    -0.676838       0.078168
      4 O                    -0.503485       0.192065
      5 C                     0.125057       0.068311
      6 C                     0.162529       0.002949
      7 C                    -0.448423       0.070364
      8 C                    -0.316815      -0.000400
      9 C                    -0.058174       0.077507
     10 C                     0.394407      -0.018693
     11 C                    -0.726183       0.179275
     12 O                    -0.554234       0.222007
     13 C                    -0.603658       0.060985
     14 O                    -0.313403       0.016474
     15 H                     0.175880       0.003125
     16 H                     0.179570      -0.001272
     17 H                     0.177220       0.003225
     18 H                     0.172622      -0.000069
     19 H                     0.203274      -0.005118
     20 H                     0.203577      -0.000595
     21 H                     0.178226      -0.003985
     22 H                     0.310166      -0.003097
  --------------------------------------------------------
  Sum of atomic charges =    -1.000000

                    Cartesian Multipole Moments
 -----------------------------------------------------------------
    Charge (ESU x 10^10)
                -4.8032
    Dipole Moment (Debye)
         X      -3.4430      Y       0.6188      Z       0.0017
       Tot       3.4982
    Quadrupole Moments (Debye-Ang)
        XX     -86.7877     XY      -0.2017     YY    -117.1915
        XZ       0.0027     YZ      -0.0020     ZZ     -86.8177

 Total job time:  49.32s(wall), 369.59s(cpu)
        *  Thank you very much for using Q-Chem.  Have a nice day.  *
