 Gaussian 16, Revision A.03,
 Gaussian 16:  ES64L-G16RevA.03 25-Dec-2016

 ----------------------------------------------------------------------
 #P UB3LYP/6-311++G(d,p) nosym opt freq SCRF=(PCM,Solvent=n,n-DiMethylF
 ormamide)
 ----------------------------------------------------------------------

 -------
 Radical
 -------
 Symbolic Z-matrix:
 Charge = -1 Multiplicity = 2

 SCF Done:  E(UB3LYP) =  -1049.11803553     A.U. after   20 cycles
 SCF Done:  E(UB3LYP) =  -1049.11862842     A.U. after   16 cycles
 SCF Done:  E(UB3LYP) =  -1049.11875561     A.U. after   16 cycles
 SCF Done:  E(UB3LYP) =  -1049.11875995     A.U. after   15 cycles
 SCF Done:  E(UB3LYP) =  -1049.11877508     A.U. after   14 cycles
 SCF Done:  E(UB3LYP) =  -1049.11877552     A.U. after   12 cycles
 Optimization completed.
    -- Stationary point found.
 Normal termination of Gaussian 16 at Sun Feb 11 15:32:31 2024.

 ----------------------------------------------------------------------
 #P Geom=AllCheck Guess=TCheck SCRF=Check GenChk UB3LYP/6-311++G(d,p) F
 req
 ----------------------------------------------------------------------

 Structure from the checkpoint file:  "338-rad.chk"
 -------
 Radical
 -------
 Charge = -1 Multiplicity = 2

                          Input orientation:
 ---------------------------------------------------------------------
 Center     Atomic      Atomic             Coordinates (Angstroms)
 Number     Number       Type             X           Y           Z
 ---------------------------------------------------------------------
      1          8           0       -0.016604   -2.485306   -0.618792
      2          6           0       -0.008650   -1.274069   -0.219458
      3          6           0        1.249514   -0.596574    0.075286
      4          6           0        2.451191   -1.350111    0.110359
      5          6           0        3.654190   -0.785541    0.493704
      6          6           0        3.725897    0.569583    0.863766
      7          6           0        2.573461    1.343939    0.810207
      8          6           0        1.355746    0.778776    0.416295
      9         16           0        0.011459    1.929799    0.168522
     10          8           0        0.011545    2.328233   -1.330702
     11          6           0       -1.345968    0.795222    0.420473
     12          6           0       -2.555494    1.375217    0.818046
     13          6           0       -3.717150    0.615032    0.875136
     14          6           0       -3.663100   -0.740882    0.504998
     15          6           0       -2.468253   -1.320103    0.118044
     16          6           0       -1.257569   -0.581318    0.079155
     17          1           0        2.392558   -2.398390   -0.154932
     18          1           0        4.549963   -1.397188    0.517471
     19          1           0        4.666517    1.009158    1.173634
     20          1           0        2.613243    2.398697    1.063550
     21          1           0       -2.581631    2.430385    1.071463
     22          1           0       -4.651390    1.066077    1.187808
     23          1           0       -4.566171   -1.341589    0.531571
     24          1           0       -2.423304   -2.369047   -0.147153
 ---------------------------------------------------------------------

 SCF Done:  E(UB3LYP) =  -1049.11877552     A.U. after    1 cycles

 Alpha  occ. eigenvalues --  -88.94496 -19.07908 -19.06667 -10.21524 -10.19790
 Alpha  occ. eigenvalues --  -10.19789 -10.18381 -10.18381 -10.18167 -10.18166
 Alpha  occ. eigenvalues --  -10.17636 -10.17636 -10.17356 -10.17356 -10.17148
 Alpha  occ. eigenvalues --  -10.17147  -8.02125  -5.98389  -5.98276  -5.97725
 Alpha  occ. eigenvalues --   -0.99726  -0.98693  -0.86893  -0.85841  -0.79230
 Alpha  occ. eigenvalues --   -0.76608  -0.75592  -0.74648  -0.69607  -0.64804
 Alpha  occ. eigenvalues --   -0.61999  -0.59619  -0.58502  -0.54633  -0.53120
 Alpha  occ. eigenvalues --   -0.48897  -0.46782  -0.46662  -0.46061  -0.43954
 Alpha  occ. eigenvalues --   -0.43055  -0.42548  -0.41958  -0.41657  -0.40007
 Alpha  occ. eigenvalues --   -0.38083  -0.37573  -0.37492  -0.35494  -0.35096
 Alpha  occ. eigenvalues --   -0.34926  -0.34249  -0.27930  -0.27408  -0.26144
 Alpha  occ. eigenvalues --   -0.26121  -0.25186  -0.23781  -0.23667  -0.13435
 Alpha virt. eigenvalues --   -0.03885  -0.02900  -0.01288  -0.00164   0.00354
 Alpha virt. eigenvalues --    0.01214   0.02145   0.02258   0.02592   0.03106
 Alpha virt. eigenvalues --    0.04098   0.04348   0.04677   0.04764   0.05962

  Beta  occ. eigenvalues --  -88.94499 -19.07801 -19.05996 -10.21198 -10.19642
  Beta  occ. eigenvalues --  -10.19642 -10.18450 -10.18450 -10.18146 -10.18146
  Beta  occ. eigenvalues --  -10.17667 -10.17667 -10.17185 -10.17185 -10.17045
  Beta  occ. eigenvalues --  -10.17045  -8.02124  -5.98389  -5.98279  -5.97730
  Beta  occ. eigenvalues --   -0.99427  -0.97486  -0.86622  -0.85674  -0.78925
  Beta  occ. eigenvalues --   -0.76210  -0.75428  -0.74402  -0.69290  -0.64366
  Beta  occ. eigenvalues --   -0.61703  -0.59523  -0.58242  -0.54358  -0.52970
  Beta  occ. eigenvalues --   -0.48652  -0.46661  -0.46444  -0.45984  -0.43780
  Beta  occ. eigenvalues --   -0.42996  -0.42235  -0.41787  -0.40788  -0.39540
  Beta  occ. eigenvalues --   -0.37754  -0.37093  -0.36849  -0.35406  -0.34920
  Beta  occ. eigenvalues --   -0.34269  -0.33041  -0.27707  -0.26617  -0.25605
  Beta  occ. eigenvalues --   -0.24626  -0.24312  -0.23538  -0.23171
  Beta virt. eigenvalues --   -0.07519  -0.03534  -0.01744  -0.00919  -0.00154
  Beta virt. eigenvalues --    0.00364   0.01218   0.02177   0.02258   0.02972
  Beta virt. eigenvalues --    0.03212   0.04138   0.04362   0.04714   0.05603

 Mulliken charges and spin densities:
               1          2
     1  O   -0.496495   0.253127
     2  C   -0.101941   0.206647
     3  C    1.273001  -0.015416
     4  C    0.093121   0.115949
     5  C   -0.560946  -0.024447
     6  C   -0.137882   0.133823
     7  C   -0.196202  -0.048456
     8  C   -1.050377   0.097245
     9  S   -0.203981   0.044113
    10  O   -0.521535   0.002839
    11  C   -1.050173   0.097233
    12  C   -0.196279  -0.048449
    13  C   -0.138025   0.133818
    14  C   -0.560673  -0.024443
    15  C    0.093107   0.115947
    16  C    1.273170  -0.015412
    17  H    0.188277  -0.007100
    18  H    0.178811   0.001076
    19  H    0.186172  -0.009545
    20  H    0.187831   0.003510
    21  H    0.187817   0.003509
    22  H    0.186178  -0.009545
    23  H    0.178811   0.001076
    24  H    0.188213  -0.007100
 Sum of Mulliken charges =  -1.00000   1.00000

 Dipole moment (field-independent basis, Debye):
    X=              0.0197    Y=              1.4053    Z=              5.7110  Tot=              5.8814
 Quadrupole moment (field-independent basis, Debye-Ang):
   XX=            -94.2977   YY=           -126.7847   ZZ=           -115.0872
   XY=             -0.1868   XZ=              0.0102   YZ=              7.4888

  Exact polarizability: 502.343  -1.158 306.187  -0.359  24.517 169.540
 Approx polarizability: 507.843  -0.872 357.113  -0.278  32.015 199.119

                      1                      2                      3
                      A                      A                      A
 Frequencies --     49.9327               102.2057               122.3315
 Red. masses --      7.0382                 4.1319                 6.8538
 Frc consts  --      0.0103                 0.0254                 0.0604
 IR Inten    --     10.2666                 4.7490                10.6099

                      4                      5                      6
                      A                      A                      A
 Frequencies --    149.9335               164.6915               225.2294
 Red. masses --      6.1651                 7.1471                 5.2077
 Frc consts  --      0.0817                 0.1142                 0.1556
 IR Inten    --      2.5753                 5.2256                 0.6238

                      7                      8                      9
                      A                      A                      A
 Frequencies --    287.5395               305.4979               310.4510
 Red. masses --      6.2573                 6.7847                 7.8574
 Frc consts  --      0.3048                 0.3731                 0.4462
 IR Inten    --      0.4608                 2.7878                 4.8234

                     10                     11                     12
                      A                      A                      A
 Frequencies --    344.9222               408.0889               409.9860
 Red. masses --      6.7754                 3.6669                 8.7458
 Frc consts  --      0.4749                 0.3598                 0.8661
 IR Inten    --      2.6715                 3.0757                17.8689

                     13                     14                     15
                      A                      A                      A
 Frequencies --    450.6292               461.3035               461.8092
 Red. masses --      5.0245                12.3526                 5.1644
 Frc consts  --      0.6012                 1.5488                 0.6489
 IR Inten    --      0.8939                65.4168                 2.5118

                     16                     17                     18
                      A                      A                      A
 Frequencies --    507.0784               533.3302               590.2236
 Red. masses --      4.3069                 5.2657                 6.8247
 Frc consts  --      0.6525                 0.8825                 1.4008
 IR Inten    --      0.0475                43.6594                 4.2361

                     19                     20                     21
                      A                      A                      A
 Frequencies --    633.5040               636.4167               674.4640
 Red. masses --      6.9613                 4.1531                 6.2638
 Frc consts  --      1.6460                 0.9911                 1.6788
 IR Inten    --      3.7836                52.6030                 9.2251

                     22                     23                     24
                      A                      A                      A
 Frequencies --    715.9079               733.3185               742.0370
 Red. masses --      5.2859                 5.4582                 1.7598
 Frc consts  --      1.5962                 1.7294                 0.5709
 IR Inten    --      9.8657                 4.6143               129.3758

                     25                     26                     27
                      A                      A                      A
 Frequencies --    753.4363               772.4307               778.7320
 Red. masses --      1.2486                 3.8755                 3.1271
 Frc consts  --      0.4176                 1.3624                 1.1173
 IR Inten    --      9.2433                24.2178                55.1305

                     28                     29                     30
                      A                      A                      A
 Frequencies --    871.7081               874.4848               897.1337
 Red. masses --      1.3664                 1.4729                16.6951
 Frc consts  --      0.6117                 0.6636                 7.9169
 IR Inten    --      0.0644                 5.0480               431.7628

                     31                     32                     33
                      A                      A                      A
 Frequencies --    930.9081               957.0203               958.5546
 Red. masses --      6.8276                 1.3450                 1.3527
 Frc consts  --      3.4861                 0.7258                 0.7323
 IR Inten    --      3.5780                 0.4041                 1.8910

                     34                     35                     36
                      A                      A                      A
 Frequencies --    997.1758               997.7900              1023.6897
 Red. masses --      1.3038                 1.3055                 5.6862
 Frc consts  --      0.7638                 0.7658                 3.5108
 IR Inten    --      0.2967                 1.4316               354.7853

                     37                     38                     39
                      A                      A                      A
 Frequencies --   1037.9314              1054.5835              1064.8117
 Red. masses --      2.8055                 2.0195                 4.0964
 Frc consts  --      1.7808                 1.3233                 2.7365
 IR Inten    --     14.4668                 0.9231                26.9402

                     40                     41                     42
                      A                      A                      A
 Frequencies --   1112.8159              1126.6566              1168.0736
 Red. masses --      1.8046                 1.8150                 1.1682
 Frc consts  --      1.3167                 1.3574                 0.9391
 IR Inten    --     99.1292                73.7750                19.8579

                     43                     44                     45
                      A                      A                      A
 Frequencies --   1169.4797              1193.8557              1238.7195
 Red. masses --      1.1557                 2.4037                 1.6133
 Frc consts  --      0.9313                 2.0185                 1.4585
 IR Inten    --      3.9553                 6.2024                 0.3200

                     46                     47                     48
                      A                      A                      A
 Frequencies --   1265.6209              1295.2629              1335.1617
 Red. masses --      1.7427                 3.9964                 7.3670
 Frc consts  --      1.6446                 3.9503                 7.7377
 IR Inten    --     22.5344               364.1029                49.8515

                     49                     50                     51
                      A                      A                      A
 Frequencies --   1340.1948              1430.6456              1441.9947
 Red. masses --      8.3505                 2.9939                 2.1742
 Frc consts  --      8.8369                 3.6104                 2.6637
 IR Inten    --     12.1339               473.3646               413.3291

                     52                     53                     54
                      A                      A                      A
 Frequencies --   1459.7371              1466.8538              1502.4427
 Red. masses --      2.2885                 2.5206                 3.3178
 Frc consts  --      2.8732                 3.1954                 4.4126
 IR Inten    --     35.9997               193.8662               197.8846

                     55                     56                     57
                      A                      A                      A
 Frequencies --   1548.4623              1567.7060              1594.0570
 Red. masses --      4.5383                 5.8784                 4.8428
 Frc consts  --      6.4112                 8.5122                 7.2503
 IR Inten    --     43.0877                 8.1625               312.1244

                     58                     59                     60
                      A                      A                      A
 Frequencies --   1620.7615              3158.0711              3158.1913
 Red. masses --      5.9867                 1.0870                 1.0872
 Frc consts  --      9.2656                 6.3876                 6.3891
 IR Inten    --     10.4235                18.8068                 2.4985

                     61                     62                     63
                      A                      A                      A
 Frequencies --   3163.6828              3163.7465              3186.1823
 Red. masses --      1.0891                 1.0891                 1.0928
 Frc consts  --      6.4227                 6.4230                 6.5361
 IR Inten    --     32.8053                14.2798                18.8961

                     64                     65                     66
                      A                      A                      A
 Frequencies --   3186.3615              3192.5738              3193.2595
 Red. masses --      1.0930                 1.0943                 1.0940
 Frc consts  --      6.5383                 6.5715                 6.5728
 IR Inten    --     19.3700                45.3397                15.6756

 - Thermochemistry -
 -------------------
 Temperature   298.150 Kelvin.  Pressure   1.00000 Atm.
 Atom     1 has atomic number  8 and mass  15.99491

 Molecular mass:   228.02450 amu.
 Principal axes and moments of inertia in atomic units:
                           1         2         3
     Eigenvalues --  1982.451534378.268165811.64052
           X            0.99998   0.00618   0.00123
           Y           -0.00611   0.99872  -0.05015
           Z           -0.00154   0.05014   0.99874
 This molecule is an asymmetric top.
 Rotational symmetry number  1.
 Warning -- assumption of classical behavior for rotation
           may cause significant error
 Rotational temperatures (Kelvin)      0.04369     0.01978     0.01490
 Rotational constants (GHZ):           0.91036     0.41220     0.31054
 Zero-point vibrational energy     450225.3 (Joules/Mol)
                                  107.60643 (Kcal/Mol)
 Warning -- explicit consideration of  18 degrees of freedom as
           vibrations may cause significant error
 Vibrational temperatures:     71.84   147.05   176.01   215.72   236.95
          (Kelvin)            324.05   413.71   439.54   446.67   496.27
                              587.15   589.88   648.35   663.71   664.44
                              729.57   767.34   849.20   911.47   915.66
                              970.40  1030.03  1055.08  1067.63  1084.03
                             1111.36  1120.42  1254.19  1258.19  1290.78
                             1339.37  1376.94  1379.15  1434.71  1435.60
                             1472.86  1493.35  1517.31  1532.03  1601.09
                             1621.01  1680.60  1682.62  1717.69  1782.24
                             1820.95  1863.59  1921.00  1928.24  2058.38
                             2074.71  2100.24  2110.48  2161.68  2227.89
                             2255.58  2293.49  2331.91  4543.76  4543.93
                             4551.83  4551.93  4584.21  4584.46  4593.40
                             4594.39

 Zero-point correction=                           0.171482 (Hartree/Particle)
 Thermal correction to Energy=                    0.183621
 Thermal correction to Enthalpy=                  0.184566
 Thermal correction to Gibbs Free Energy=         0.132324
 Sum of electronic and zero-point Energies=          -1048.947294
 Sum of electronic and thermal Energies=             -1048.935154
 Sum of electronic and thermal Enthalpies=           -1048.934210
 Sum of electronic and thermal Free Energies=        -1048.986451

                     E (Thermal)             CV                S
                      KCal/Mol        Cal/Mol-Kelvin    Cal/Mol-Kelvin
 Total                  115.224             49.206            109.951
 Electronic               0.000              0.000              1.377
 Translational            0.889              2.981             42.175
 Rotational               0.889              2.981             32.289
 Vibrational            113.447             43.244             34.109
 Vibration     1          0.595              1.978              4.820
 Vibration     2          0.604              1.947              3.412
 Vibration     3          0.610              1.930              3.063
 Vibration     4          0.618              1.903              2.673
 Vibration     5          0.623              1.886              2.495
 Vibration     6          0.650              1.803              1.917
 Vibration     7          0.685              1.697              1.488
 Vibration     8          0.696              1.663              1.387
 Vibration     9          0.699              1.654              1.360
 Vibration    10          0.723              1.586              1.189
 Vibration    11          0.773              1.453              0.933
 Vibration    12          0.774              1.449              0.927
 Vibration    13          0.809              1.359              0.794
 Vibration    14          0.819              1.336              0.762
 Vibration    15          0.820              1.335              0.761
 Vibration    16          0.862              1.234              0.641
 Vibration    17          0.888              1.176              0.580
 Vibration    18          0.948              1.053              0.467

 Optimization completed.
    -- Stationary point found.
 Normal termination of Gaussian 16 at Sun Feb 11 15:56:50 2024.
