 Gaussian 16, Revision A.03,
 Gaussian 16:  ES64L-G16RevA.03 25-Dec-2016

 --------------------------------------
 #P UB3LYP/6-311++G(d,p) nosym opt freq
 --------------------------------------

 -------
 Reduced
 -------
 Symbolic Z-matrix:
 Charge = -2 Multiplicity = 1

 SCF Done:  E(UB3LYP) =  -1004.26582338     A.U. after   25 cycles
 Optimization completed.
    -- Stationary point found.
 Normal termination of Gaussian 16 at Wed Dec 27 21:03:29 2023.

 ----------------------------------------------------------------------
 #P Geom=AllCheck Guess=TCheck SCRF=Check GenChk UB3LYP/6-311++G(d,p) F
 req
 ----------------------------------------------------------------------

 Structure from the checkpoint file:  "176-an.chk"
 -------
 Reduced
 -------
 Charge = -2 Multiplicity = 1

                          Input orientation:
 ---------------------------------------------------------------------
 Center     Atomic      Atomic             Coordinates (Angstroms)
 Number     Number       Type             X           Y           Z
 ---------------------------------------------------------------------
      1          7           0       -2.926046   -2.594726   -0.110450
      2          6           0       -2.612018   -1.233064    0.122262
      3          6           0       -3.616558   -0.365821    0.514300
      4          6           0       -3.363634    1.009850    0.669183
      5          6           0       -2.106531    1.548523    0.446655
      6          7           0       -1.930121    2.949984    0.563945
      7          6           0       -1.010129    0.685551    0.086445
      8          6           0        0.338284    1.248128   -0.048815
      9          8           0        0.561177    2.518248   -0.034126
     10          6           0        1.401334    0.314234   -0.202406
     11          6           0        1.136771   -1.084909   -0.483092
     12          6           0        2.177328   -1.917607   -0.913632
     13          6           0        3.481469   -1.458060   -1.056497
     14          6           0        3.786009   -0.137413   -0.681773
     15          6           0        2.792829    0.704797   -0.216723
     16          7           0        3.289858    1.902852    0.426735
     17          8           0        2.797088    2.251714    1.507492
     18          8           0        4.263876    2.510282   -0.101242
     19          6           0       -0.196632   -1.653603   -0.399071
     20          8           0       -0.377609   -2.912816   -0.615187
     21          6           0       -1.274094   -0.735392   -0.077953
     22          1           0       -3.514231   -2.980566    0.617290
     23          1           0       -2.051654   -3.118464   -0.261814
     24          1           0       -4.625370   -0.752678    0.647702
     25          1           0       -4.178348    1.683931    0.927993
     26          1           0       -2.316465    3.305598    1.429753
     27          1           0       -0.920140    3.156371    0.451336
     28          1           0        1.914060   -2.945979   -1.137322
     29          1           0        4.272390   -2.123144   -1.392760
     30          1           0        4.807105    0.224182   -0.678229
 ---------------------------------------------------------------------

 SCF Done:  E(UB3LYP) =  -1004.26582338     A.U. after    2 cycles

 Alpha  occ. eigenvalues --  -18.88886 -18.88182 -18.81912 -18.79321 -14.26830
 Alpha  occ. eigenvalues --  -14.07023 -14.05577  -9.97827  -9.97593  -9.97115
 Alpha  occ. eigenvalues --   -9.96467  -9.95685  -9.95392  -9.94518  -9.94360
 Alpha  occ. eigenvalues --   -9.93217  -9.93168  -9.93148  -9.93110  -9.92808
 Alpha  occ. eigenvalues --   -9.92042  -0.94486  -0.77185  -0.74002  -0.71840
 Alpha  occ. eigenvalues --   -0.67133  -0.65611  -0.62779  -0.58148  -0.55347
 Alpha  occ. eigenvalues --   -0.53895  -0.50008  -0.47426  -0.44876  -0.42151
 Alpha  occ. eigenvalues --   -0.38980  -0.38622  -0.33366  -0.31554  -0.30726
 Alpha  occ. eigenvalues --   -0.29113  -0.27928  -0.25981  -0.25524  -0.25107
 Alpha  occ. eigenvalues --   -0.23989  -0.23556  -0.23066  -0.21577  -0.20468
 Alpha  occ. eigenvalues --   -0.19733  -0.17195  -0.16969  -0.15471  -0.14889
 Alpha  occ. eigenvalues --   -0.14311  -0.14080  -0.13541  -0.11827  -0.11109
 Alpha  occ. eigenvalues --   -0.10272  -0.09741  -0.08257  -0.05385  -0.04876
 Alpha  occ. eigenvalues --   -0.03802  -0.03368  -0.01367  -0.00515  -0.00212
 Alpha  occ. eigenvalues --    0.00728   0.02796   0.04496   0.11341
 Alpha virt. eigenvalues --    0.15601   0.15771   0.16198   0.16861   0.18542
 Alpha virt. eigenvalues --    0.18966   0.20108   0.20771   0.20829   0.21262
 Alpha virt. eigenvalues --    0.22614   0.23498   0.24674   0.24805   0.24955

  Beta  occ. eigenvalues --  -18.88886 -18.88182 -18.81912 -18.79321 -14.26830
  Beta  occ. eigenvalues --  -14.07023 -14.05577  -9.97827  -9.97593  -9.97115
  Beta  occ. eigenvalues --   -9.96467  -9.95685  -9.95392  -9.94518  -9.94360
  Beta  occ. eigenvalues --   -9.93217  -9.93168  -9.93148  -9.93110  -9.92808
  Beta  occ. eigenvalues --   -9.92042  -0.94486  -0.77185  -0.74002  -0.71840
  Beta  occ. eigenvalues --   -0.67133  -0.65611  -0.62779  -0.58148  -0.55347
  Beta  occ. eigenvalues --   -0.53895  -0.50008  -0.47426  -0.44876  -0.42151
  Beta  occ. eigenvalues --   -0.38980  -0.38622  -0.33366  -0.31554  -0.30726
  Beta  occ. eigenvalues --   -0.29113  -0.27928  -0.25981  -0.25524  -0.25107
  Beta  occ. eigenvalues --   -0.23989  -0.23556  -0.23066  -0.21577  -0.20468
  Beta  occ. eigenvalues --   -0.19733  -0.17195  -0.16969  -0.15471  -0.14889
  Beta  occ. eigenvalues --   -0.14311  -0.14080  -0.13541  -0.11827  -0.11109
  Beta  occ. eigenvalues --   -0.10272  -0.09741  -0.08257  -0.05385  -0.04876
  Beta  occ. eigenvalues --   -0.03802  -0.03368  -0.01367  -0.00515  -0.00212
  Beta  occ. eigenvalues --    0.00728   0.02796   0.04496   0.11341
  Beta virt. eigenvalues --    0.15601   0.15771   0.16198   0.16861   0.18542
  Beta virt. eigenvalues --    0.18966   0.20108   0.20771   0.20829   0.21262
  Beta virt. eigenvalues --    0.22614   0.23498   0.24674   0.24805   0.24955

 Mulliken charges and spin densities:
               1          2
     1  N   -0.431298  -0.000000
     2  C   -0.106675   0.000000
     3  C   -0.348260   0.000000
     4  C   -0.352368   0.000000
     5  C   -0.501388   0.000000
     6  N   -0.400164   0.000000
     7  C    0.714852  -0.000000
     8  C   -0.702451  -0.000000
     9  O   -0.419303   0.000000
    10  C    0.131639  -0.000000
    11  C    0.710662  -0.000000
    12  C   -0.085456  -0.000000
    13  C   -0.668411  -0.000000
    14  C    0.134879   0.000000
    15  C   -0.425272   0.000000
    16  N   -0.193988  -0.000000
    17  O   -0.055646  -0.000000
    18  O   -0.139569  -0.000000
    19  C   -0.542331   0.000000
    20  O   -0.451849  -0.000000
    21  C    0.629668  -0.000000
    22  H    0.184005   0.000000
    23  H    0.295048   0.000000
    24  H    0.068575   0.000000
    25  H    0.071636  -0.000000
    26  H    0.175206  -0.000000
    27  H    0.306931   0.000000
    28  H    0.145120  -0.000000
    29  H    0.088996  -0.000000
    30  H    0.167209   0.000000
 Sum of Mulliken charges =  -2.00000   0.00000

 Dipole moment (field-independent basis, Debye):
    X=             -5.1974    Y=             -5.4598    Z=              1.4637  Tot=              7.6788
 Quadrupole moment (field-independent basis, Debye-Ang):
   XX=           -198.4131   YY=           -189.4198   ZZ=           -137.4912
   XY=            -26.1744   XZ=             -6.2476   YZ=             -9.0661

  Exact polarizability: 498.440  58.869 317.307 -35.317  43.107 154.396
 Approx polarizability:1067.260 257.579 672.607 -38.028 105.316 268.841

                      1                      2                      3
                      A                      A                      A
 Frequencies --     39.1028                44.0465                64.3382
 Red. masses --      9.6660                 6.0705                 7.2068
 Frc consts  --      0.0087                 0.0069                 0.0176
 IR Inten    --      3.1700                 5.4762                24.0718

                      4                      5                      6
                      A                      A                      A
 Frequencies --    102.1998               109.5403               157.6478
 Red. masses --      9.3752                 4.4166                 7.8118
 Frc consts  --      0.0577                 0.0312                 0.1144
 IR Inten    --      8.1196                 9.7722                 1.2797

                      7                      8                      9
                      A                      A                      A
 Frequencies --    183.8092               189.9957               236.4472
 Red. masses --      8.7283                 6.2438                 5.9308
 Frc consts  --      0.1737                 0.1328                 0.1954
 IR Inten    --      1.3337                 2.3576                 3.2963

                     10                     11                     12
                      A                      A                      A
 Frequencies --    266.1388               302.2940               324.8263
 Red. masses --      5.7369                 2.1079                 7.0274
 Frc consts  --      0.2394                 0.1135                 0.4369
 IR Inten    --     11.6339               116.2572                21.5706

                     13                     14                     15
                      A                      A                      A
 Frequencies --    340.9065               371.9736               380.8279
 Red. masses --      5.7741                 4.5913                 3.1414
 Frc consts  --      0.3954                 0.3743                 0.2684
 IR Inten    --      7.9840                16.9479                40.4346

                     16                     17                     18
                      A                      A                      A
 Frequencies --    389.7910               400.9283               405.8292
 Red. masses --      1.6584                 8.1286                 2.2829
 Frc consts  --      0.1485                 0.7698                 0.2215
 IR Inten    --    120.3178                 7.3362                57.6728

                     19                     20                     21
                      A                      A                      A
 Frequencies --    417.0328               432.7988               441.4578
 Red. masses --      4.6614                 6.0648                 5.8261
 Frc consts  --      0.4776                 0.6693                 0.6690
 IR Inten    --     21.4366                12.4737                32.4458

                     22                     23                     24
                      A                      A                      A
 Frequencies --    476.9896               494.7267               500.1070
 Red. masses --      5.8093                 4.2982                 5.2898
 Frc consts  --      0.7787                 0.6198                 0.7795
 IR Inten    --     17.2731                26.8198                 1.7044

                     25                     26                     27
                      A                      A                      A
 Frequencies --    519.1470               568.7807               595.7470
 Red. masses --      6.7132                 4.5149                 4.4893
 Frc consts  --      1.0660                 0.8606                 0.9387
 IR Inten    --     37.7392                15.6155                30.3660

                     28                     29                     30
                      A                      A                      A
 Frequencies --    609.2656               640.0877               679.5226
 Red. masses --      4.6566                 5.1877                 6.2079
 Frc consts  --      1.0184                 1.2523                 1.6889
 IR Inten    --     14.2228                21.2254                30.0121

                     31                     32                     33
                      A                      A                      A
 Frequencies --    693.3434               702.3310               721.9440
 Red. masses --      5.5899                 2.2109                 6.1833
 Frc consts  --      1.5833                 0.6426                 1.8988
 IR Inten    --     27.1528                12.2957                20.0334

                     34                     35                     36
                      A                      A                      A
 Frequencies --    744.6617               758.4080               765.3519
 Red. masses --      3.2162                 2.3713                 4.4194
 Frc consts  --      1.0508                 0.8036                 1.5252
 IR Inten    --     22.0664                47.1097                45.3945

                     37                     38                     39
                      A                      A                      A
 Frequencies --    767.3319               810.9380               821.7904
 Red. masses --      2.5477                 6.0246                 1.3910
 Frc consts  --      0.8838                 2.3343                 0.5535
 IR Inten    --     20.1641                 3.8009                 7.2233

                     40                     41                     42
                      A                      A                      A
 Frequencies --    828.3894               873.4762               909.0702
 Red. masses --      9.2313                 3.3292                 1.5582
 Frc consts  --      3.7323                 1.4966                 0.7587
 IR Inten    --     71.4933               152.8184                75.5350

                     43                     44                     45
                      A                      A                      A
 Frequencies --    912.5540               931.3429               952.0049
 Red. masses --      1.6737                 2.8644                 4.1400
 Frc consts  --      0.8212                 1.4639                 2.2107
 IR Inten    --     47.8836               121.3304                50.0503

                     46                     47                     48
                      A                      A                      A
 Frequencies --    965.8573               967.7387              1049.5162
 Red. masses --      1.5660                 1.7237                 2.6284
 Frc consts  --      0.8607                 0.9511                 1.7058
 IR Inten    --     17.6499                10.5197                28.3482

                     49                     50                     51
                      A                      A                      A
 Frequencies --   1074.0275              1138.7484              1148.6256
 Red. masses --      1.7778                 2.0671                 2.1765
 Frc consts  --      1.2083                 1.5793                 1.6918
 IR Inten    --    107.1375                68.2561               537.0316

                     52                     53                     54
                      A                      A                      A
 Frequencies --   1151.4902              1178.9012              1190.7618
 Red. masses --      2.4351                 1.7885                 1.8849
 Frc consts  --      1.9023                 1.4645                 1.5747
 IR Inten    --    548.0236               794.1487               501.4806

                     55                     56                     57
                      A                      A                      A
 Frequencies --   1215.7527              1226.5975              1248.1400
 Red. masses --      2.9501                 2.4282                 2.8380
 Frc consts  --      2.5691                 2.1525                 2.6049
 IR Inten    --    801.1966               928.6083                47.4198

                     58                     59                     60
                      A                      A                      A
 Frequencies --   1255.9077              1269.5352              1308.9224
 Red. masses --      4.9195                 2.8120                 8.3380
 Frc consts  --      4.5718                 2.6703                 8.4167
 IR Inten    --     22.8705                18.0759                33.6048

                     61                     62                     63
                      A                      A                      A
 Frequencies --   1343.3038              1359.1962              1398.4041
 Red. masses --      3.3880                 4.2020                 2.0531
 Frc consts  --      3.6020                 4.5737                 2.3655
 IR Inten    --     84.5412               215.6597               173.7667

                     64                     65                     66
                      A                      A                      A
 Frequencies --   1413.4989              1432.2116              1459.3237
 Red. masses --      7.2434                 2.9155                 4.7870
 Frc consts  --      8.5267                 3.5235                 6.0064
 IR Inten    --    124.2125                 2.9569               140.4375

                     67                     68                     69
                      A                      A                      A
 Frequencies --   1470.3814              1475.8329              1489.9631
 Red. masses --      6.9147                 3.4028                 4.7135
 Frc consts  --      8.8082                 4.3667                 6.1652
 IR Inten    --    166.8309                24.5981               471.0163

                     70                     71                     72
                      A                      A                      A
 Frequencies --   1525.2592              1584.9674              1589.0793
 Red. masses --      4.6598                 4.1715                 2.4444
 Frc consts  --      6.3872                 6.1742                 3.6368
 IR Inten    --      8.4940               249.6125               102.5379

                     73                     74                     75
                      A                      A                      A
 Frequencies --   1609.2826              1619.6351              1622.7161
 Red. masses --      1.9286                 1.9124                 2.2555
 Frc consts  --      2.9427                 2.9557                 3.4992
 IR Inten    --     89.1315                38.8403                51.6244

                     76                     77                     78
                      A                      A                      A
 Frequencies --   3096.8667              3119.6741              3121.6624
 Red. masses --      1.0834                 1.0757                 1.0887
 Frc consts  --      6.1216                 6.1681                 6.2506
 IR Inten    --     58.6511               112.4224               264.4199

                     79                     80                     81
                      A                      A                      A
 Frequencies --   3126.3622              3168.8445              3184.4506
 Red. masses --      1.0859                 1.0904                 1.0912
 Frc consts  --      6.2537                 6.4512                 6.5194
 IR Inten    --     31.2864                26.1087                27.4929

                     82                     83                     84
                      A                      A                      A
 Frequencies --   3223.9193              3547.7534              3557.7905
 Red. masses --      1.0680                 1.0775                 1.0800
 Frc consts  --      6.5400                 7.9906                 8.0543
 IR Inten    --    286.9908                 6.2300                10.6711

 - Thermochemistry -
 -------------------
 Temperature   298.150 Kelvin.  Pressure   1.00000 Atm.
 Atom     1 has atomic number  7 and mass  14.00307

 Molecular mass:   283.05931 amu.
 Principal axes and moments of inertia in atomic units:
                           1         2         3
     Eigenvalues --  3437.484316837.073059987.56202
           X            0.95968  -0.25868   0.10998
           Y            0.27824   0.92983  -0.24084
           Z           -0.03996   0.26173   0.96431
 This molecule is an asymmetric top.
 Rotational symmetry number  1.
 Warning -- assumption of classical behavior for rotation
           may cause significant error
 Rotational temperatures (Kelvin)      0.02520     0.01267     0.00867
 Rotational constants (GHZ):           0.52502     0.26396     0.18070
 Zero-point vibrational energy     549146.6 (Joules/Mol)
                                  131.24919 (Kcal/Mol)
 Warning -- explicit consideration of  28 degrees of freedom as
           vibrations may cause significant error
 Vibrational temperatures:     56.26    63.37    92.57   147.04   157.60
          (Kelvin)            226.82   264.46   273.36   340.19   382.91
                              434.93   467.35   490.49   535.19   547.93
                              560.82   576.85   583.90   600.02   622.70
                              635.16   686.28   711.80   719.54   746.94
                              818.35   857.15   876.60   920.94   977.68
                              997.57  1010.50  1038.72  1071.40  1091.18
                             1101.17  1104.02  1166.76  1182.37  1191.87
                             1256.74  1307.95  1312.96  1339.99  1369.72
                             1389.65  1392.36  1510.02  1545.29  1638.40
                             1652.62  1656.74  1696.18  1713.24  1749.20
                             1764.80  1795.80  1806.97  1826.58  1883.25
                             1932.71  1955.58  2011.99  2033.71  2060.63
                             2099.64  2115.55  2123.39  2143.72  2194.51
                             2280.41  2286.33  2315.40  2330.29  2334.73
                             4455.70  4488.52  4491.38  4498.14  4559.26
                             4581.71  4638.50  5104.43  5118.87

 Zero-point correction=                           0.209159 (Hartree/Particle)
 Thermal correction to Energy=                    0.225564
 Thermal correction to Enthalpy=                  0.226508
 Thermal correction to Gibbs Free Energy=         0.165253
 Sum of electronic and zero-point Energies=          -1004.056664
 Sum of electronic and thermal Energies=             -1004.040260
 Sum of electronic and thermal Enthalpies=           -1004.039316
 Sum of electronic and thermal Free Energies=        -1004.100571

                     E (Thermal)             CV                S
                      KCal/Mol        Cal/Mol-Kelvin    Cal/Mol-Kelvin
 Total                  141.543             65.914            128.922
 Electronic               0.000              0.000              0.000
 Translational            0.889              2.981             42.819
 Rotational               0.889              2.981             33.817
 Vibrational            139.766             59.953             52.286
 Vibration     1          0.594              1.981              5.304
 Vibration     2          0.595              1.980              5.068
 Vibration     3          0.597              1.971              4.320
 Vibration     4          0.604              1.947              3.412
 Vibration     5          0.606              1.942              3.277
 Vibration     6          0.621              1.894              2.578
 Vibration     7          0.631              1.862              2.289
 Vibration     8          0.633              1.854              2.228
 Vibration     9          0.655              1.785              1.829
 Vibration    10          0.672              1.735              1.621
 Vibration    11          0.694              1.669              1.404
 Vibration    12          0.709              1.626              1.286
 Vibration    13          0.720              1.594              1.208
 Vibration    14          0.744              1.530              1.072
 Vibration    15          0.751              1.511              1.036
 Vibration    16          0.758              1.492              1.001
 Vibration    17          0.767              1.468              0.959
 Vibration    18          0.771              1.458              0.941
 Vibration    19          0.780              1.433              0.902
 Vibration    20          0.794              1.399              0.850
 Vibration    21          0.801              1.380              0.822
 Vibration    22          0.834              1.301              0.718
 Vibration    23          0.850              1.262              0.671
 Vibration    24          0.856              1.250              0.658
 Vibration    25          0.874              1.208              0.612
 Vibration    26          0.925              1.099              0.507
 Vibration    27          0.954              1.041              0.457
 Vibration    28          0.968              1.012              0.434

                           ! Non-Optimized Parameters !
 Normal termination of Gaussian 16 at Wed Dec 27 21:49:46 2023.
