 Q-Chem 5.4, Q-Chem, Inc., Pleasanton, CA (2021)
 Q-Chem 5.4.0 for Intel X86 EM64T Linux

User input:
--------------------------------------------------------------
$molecule
-2 1
N                 -2.9260460000     -2.5947260000     -0.1104500000
C                 -2.6120180000     -1.2330640000      0.1222620000
C                 -3.6165580000     -0.3658210000      0.5143000000
C                 -3.3636340000      1.0098500000      0.6691830000
C                 -2.1065310000      1.5485230000      0.4466550000
N                 -1.9301210000      2.9499840000      0.5639450000
C                 -1.0101290000      0.6855510000      0.0864450000
C                  0.3382840000      1.2481280000     -0.0488150000
O                  0.5611770000      2.5182480000     -0.0341260000
C                  1.4013340000      0.3142340000     -0.2024060000
C                  1.1367710000     -1.0849090000     -0.4830920000
C                  2.1773280000     -1.9176070000     -0.9136320000
C                  3.4814690000     -1.4580600000     -1.0564970000
C                  3.7860090000     -0.1374130000     -0.6817730000
C                  2.7928290000      0.7047970000     -0.2167230000
N                  3.2898580000      1.9028520000      0.4267350000
O                  2.7970880000      2.2517140000      1.5074920000
O                  4.2638760000      2.5102820000     -0.1012420000
C                 -0.1966320000     -1.6536030000     -0.3990710000
O                 -0.3776090000     -2.9128160000     -0.6151870000
C                 -1.2740940000     -0.7353920000     -0.0779530000
H                 -3.5142310000     -2.9805660000      0.6172900000
H                 -2.0516540000     -3.1184640000     -0.2618140000
H                 -4.6253700000     -0.7526780000      0.6477020000
H                 -4.1783480000      1.6839310000      0.9279930000
H                 -2.3164650000      3.3055980000      1.4297530000
H                 -0.9201400000      3.1563710000      0.4513360000
H                  1.9140600000     -2.9459790000     -1.1373220000
H                  4.2723900000     -2.1231440000     -1.3927600000
H                  4.8071050000      0.2241820000     -0.6782290000
$end
$rem
MAX_SCF_CYCLES=200
BASIS  =  6-311++G(d,p)
GUI  =  2
JOB_TYPE  =  SP
METHOD  =  B3LYP
SOLVENT_METHOD = PCM
$end
$pcm
theory = CPCM
$end
$solvent
dielectric 37.219
opticaldielectric 1.43
$end

--------------------------------------------------------------

             Standard Nuclear Orientation (Angstroms)
    I     Atom           X                Y                Z
 ----------------------------------------------------------------
    1      N      -2.9260460000    -2.5947260000    -0.1104500000
    2      C      -2.6120180000    -1.2330640000     0.1222620000
    3      C      -3.6165580000    -0.3658210000     0.5143000000
    4      C      -3.3636340000     1.0098500000     0.6691830000
    5      C      -2.1065310000     1.5485230000     0.4466550000
    6      N      -1.9301210000     2.9499840000     0.5639450000
    7      C      -1.0101290000     0.6855510000     0.0864450000
    8      C       0.3382840000     1.2481280000    -0.0488150000
    9      O       0.5611770000     2.5182480000    -0.0341260000
   10      C       1.4013340000     0.3142340000    -0.2024060000
   11      C       1.1367710000    -1.0849090000    -0.4830920000
   12      C       2.1773280000    -1.9176070000    -0.9136320000
   13      C       3.4814690000    -1.4580600000    -1.0564970000
   14      C       3.7860090000    -0.1374130000    -0.6817730000
   15      C       2.7928290000     0.7047970000    -0.2167230000
   16      N       3.2898580000     1.9028520000     0.4267350000
   17      O       2.7970880000     2.2517140000     1.5074920000
   18      O       4.2638760000     2.5102820000    -0.1012420000
   19      C      -0.1966320000    -1.6536030000    -0.3990710000
   20      O      -0.3776090000    -2.9128160000    -0.6151870000
   21      C      -1.2740940000    -0.7353920000    -0.0779530000
   22      H      -3.5142310000    -2.9805660000     0.6172900000
   23      H      -2.0516540000    -3.1184640000    -0.2618140000
   24      H      -4.6253700000    -0.7526780000     0.6477020000
   25      H      -4.1783480000     1.6839310000     0.9279930000
   26      H      -2.3164650000     3.3055980000     1.4297530000
   27      H      -0.9201400000     3.1563710000     0.4513360000
   28      H       1.9140600000    -2.9459790000    -1.1373220000
   29      H       4.2723900000    -2.1231440000    -1.3927600000
   30      H       4.8071050000     0.2241820000    -0.6782290000
 ----------------------------------------------------------------

   10   -1004.5254297542      7.35e-06  Convergence criterion met
 Total energy in the final basis set =    -1004.5254297542

                    Orbital Energies (a.u.)
 --------------------------------------------------------------

 Alpha MOs
 -- Occupied --
-19.1218 -19.1135 -19.0548 -19.0380 -14.4961 -14.2834 -14.2759 -10.2107
-10.2037 -10.1937 -10.1925 -10.1869 -10.1756 -10.1660 -10.1625 -10.1608
-10.1603 -10.1569 -10.1523 -10.1503 -10.1474  -1.1783  -1.0058  -0.9756
 -0.9619  -0.8899  -0.8776  -0.8544  -0.8058  -0.7799  -0.7633  -0.7242
 -0.6993  -0.6761  -0.6475  -0.6141  -0.6098  -0.5558  -0.5426  -0.5341
 -0.5126  -0.5009  -0.4906  -0.4860  -0.4780  -0.4609  -0.4559  -0.4506
 -0.4417  -0.4270  -0.4214  -0.4027  -0.3965  -0.3855  -0.3724  -0.3684
 -0.3627  -0.3591  -0.3526  -0.3375  -0.3342  -0.3247  -0.3117  -0.2888
 -0.2856  -0.2730  -0.2585  -0.2437  -0.2369  -0.2308  -0.2255  -0.2129
 -0.1822  -0.1208

          Ground-State Mulliken Net Atomic Charges

     Atom                 Charge (a.u.)
  ----------------------------------------
      1 N                    -0.494551
      2 C                    -0.144530
      3 C                    -0.367399
      4 C                    -0.440628
      5 C                    -0.471335
      6 N                    -0.485533
      7 C                     0.714900
      8 C                    -0.564540
      9 O                    -0.564327
     10 C                    -0.034799
     11 C                     0.534141
     12 C                    -0.105600
     13 C                    -0.682168
     14 C                     0.087508
     15 C                    -0.336565
     16 N                    -0.140315
     17 O                    -0.167221
     18 O                    -0.218215
     19 C                    -0.298107
     20 O                    -0.544790
     21 C                     0.603736
     22 H                     0.266147
     23 H                     0.313587
     24 H                     0.178154
     25 H                     0.180733
     26 H                     0.257616
     27 H                     0.320289
     28 H                     0.177879
     29 H                     0.192557
     30 H                     0.233377
  ----------------------------------------
  Sum of atomic charges =    -2.000000

                    Cartesian Multipole Moments
 -----------------------------------------------------------------
    Charge (ESU x 10^10)
                -9.6064
    Dipole Moment (Debye)
         X      -8.0664      Y      -8.6530      Z       1.8292
       Tot      11.9703
    Quadrupole Moments (Debye-Ang)
        XX    -176.1421     XY     -34.7348     YY    -188.9537
        XZ     -15.0901     YZ      -8.1868     ZZ    -135.5059

 Total job time:  240.51s(wall), 532.60s(cpu)
        *  Thank you very much for using Q-Chem.  Have a nice day.  *
