 Gaussian 16, Revision A.03,
 Gaussian 16:  ES64L-G16RevA.03 25-Dec-2016

 ----------------------------------------------------------------
 #P UB3LYP/6-311++G(d,p) SCRF=(PCM,Solvent=n,n-DiMethylFormamide)
 ----------------------------------------------------------------

 -------
 Reduced
 -------
 Symbolic Z-matrix:
 Charge = -4 Multiplicity = 1

                         Standard orientation:
 ---------------------------------------------------------------------
 Center     Atomic      Atomic             Coordinates (Angstroms)
 Number     Number       Type             X           Y           Z
 ---------------------------------------------------------------------
      1          6           0        0.582270    2.491087   -0.048810
      2          6           0        1.837273    1.923018   -0.066572
      3          6           0        1.959398    0.507490   -0.026813
      4          6           0       -0.616503    1.725715   -0.008459
      5          6           0       -0.491410    0.275375   -0.018537
      6          6           0        0.823735   -0.287481   -0.016634
      7          6           0       -1.890113    2.446011    0.031712
      8          6           0       -3.117342    1.625944   -0.010317
      9          6           0       -2.932670    0.203415   -0.021010
     10          6           0       -1.714876   -0.471739   -0.027040
     11          8           0       -1.931865    3.724509    0.083227
     12          8           0       -4.299566    2.144677   -0.016879
     13          1           0        0.469357    3.572616   -0.080535
     14          1           0        2.725702    2.548977   -0.117053
     15         16           0        3.650926   -0.183453    0.011611
     16          1           0        0.934306   -1.364670   -0.000366
     17          1           0       -3.840448   -0.390310   -0.034741
     18         16           0       -1.804063   -2.308805    0.002711
     19          8           0       -3.265575   -2.667085   -0.081365
     20          8           0       -1.205502   -2.773698    1.299171
     21          8           0       -1.048574   -2.823449   -1.187350
     22          8           0        4.325188    0.255015   -1.260749
     23          8           0        3.539174   -1.670677    0.109805
     24          8           0        4.327056    0.420273    1.213942
 ---------------------------------------------------------------------

 SCF Done:  E(UB3LYP) =  -1782.44340571     A.U. after   18 cycles

 The electronic state is 1-A.
 Alpha  occ. eigenvalues --  -89.02881 -89.02133 -19.07583 -19.07276 -19.07270
 Alpha  occ. eigenvalues --  -19.06718 -19.06716 -19.06666 -19.02193 -19.01684
 Alpha  occ. eigenvalues --  -10.17304 -10.17256 -10.16813 -10.15913 -10.15856
 Alpha  occ. eigenvalues --  -10.15607 -10.15136 -10.14638 -10.13962 -10.12796
 Alpha  occ. eigenvalues --   -8.08751  -8.07994  -6.05041  -6.05023  -6.04895
 Alpha  occ. eigenvalues --   -6.04291  -6.04272  -6.04123  -1.08534  -1.07783
 Alpha  occ. eigenvalues --   -0.95208  -0.94636  -0.94593  -0.94303  -0.94102
 Alpha  occ. eigenvalues --   -0.91659  -0.83472  -0.77903  -0.73223  -0.70274
 Alpha  occ. eigenvalues --   -0.66521  -0.61572  -0.59065  -0.57825  -0.54489
 Alpha  occ. eigenvalues --   -0.51965  -0.48486  -0.47470  -0.46161  -0.43882
 Alpha  occ. eigenvalues --   -0.43519  -0.43386  -0.42893  -0.42198  -0.41421
 Alpha  occ. eigenvalues --   -0.40142  -0.38619  -0.37346  -0.36974  -0.35108
 Alpha  occ. eigenvalues --   -0.33719  -0.33503  -0.32133  -0.31678  -0.31546
 Alpha  occ. eigenvalues --   -0.31149  -0.30823  -0.30125  -0.28716  -0.27716
 Alpha  occ. eigenvalues --   -0.27504  -0.27129  -0.26932  -0.26429  -0.25341
 Alpha  occ. eigenvalues --   -0.23823  -0.23297  -0.22884  -0.20770  -0.19291
 Alpha  occ. eigenvalues --   -0.18319  -0.11841
 Alpha virt. eigenvalues --   -0.01340   0.00819   0.01307   0.01922   0.02395
 Alpha virt. eigenvalues --    0.03950   0.04250   0.04587   0.05216   0.05439
 Alpha virt. eigenvalues --    0.06296   0.06594   0.06807   0.07309   0.07988

  Beta  occ. eigenvalues --  -89.02881 -89.02133 -19.07583 -19.07276 -19.07270
  Beta  occ. eigenvalues --  -19.06718 -19.06716 -19.06666 -19.02193 -19.01684
  Beta  occ. eigenvalues --  -10.17304 -10.17256 -10.16813 -10.15913 -10.15856
  Beta  occ. eigenvalues --  -10.15607 -10.15136 -10.14638 -10.13962 -10.12796
  Beta  occ. eigenvalues --   -8.08751  -8.07994  -6.05041  -6.05023  -6.04895
  Beta  occ. eigenvalues --   -6.04291  -6.04272  -6.04123  -1.08534  -1.07783
  Beta  occ. eigenvalues --   -0.95208  -0.94636  -0.94593  -0.94303  -0.94102
  Beta  occ. eigenvalues --   -0.91659  -0.83472  -0.77903  -0.73223  -0.70274
  Beta  occ. eigenvalues --   -0.66521  -0.61572  -0.59065  -0.57825  -0.54489
  Beta  occ. eigenvalues --   -0.51965  -0.48486  -0.47470  -0.46161  -0.43882
  Beta  occ. eigenvalues --   -0.43519  -0.43386  -0.42893  -0.42198  -0.41421
  Beta  occ. eigenvalues --   -0.40142  -0.38619  -0.37346  -0.36974  -0.35108
  Beta  occ. eigenvalues --   -0.33719  -0.33503  -0.32133  -0.31678  -0.31546
  Beta  occ. eigenvalues --   -0.31149  -0.30823  -0.30125  -0.28716  -0.27716
  Beta  occ. eigenvalues --   -0.27504  -0.27129  -0.26932  -0.26429  -0.25341
  Beta  occ. eigenvalues --   -0.23823  -0.23297  -0.22884  -0.20770  -0.19291
  Beta  occ. eigenvalues --   -0.18319  -0.11841
  Beta virt. eigenvalues --   -0.01340   0.00819   0.01307   0.01922   0.02395
  Beta virt. eigenvalues --    0.03950   0.04250   0.04587   0.05216   0.05439
  Beta virt. eigenvalues --    0.06296   0.06594   0.06807   0.07309   0.07988

 Mulliken charges and spin densities:
               1          2
     1  C   -0.159525   0.000000
     2  C   -0.540711   0.000000
     3  C   -0.205115  -0.000000
     4  C    0.945602  -0.000000
     5  C   -0.039692   0.000000
     6  C   -0.386969  -0.000000
     7  C   -0.753252   0.000000
     8  C    0.015371  -0.000000
     9  C    0.351463  -0.000000
    10  C   -1.219291   0.000000
    11  O   -0.655179  -0.000000
    12  O   -0.705816   0.000000
    13  H    0.142700   0.000000
    14  H    0.201372  -0.000000
    15  S    0.636468  -0.000000
    16  H    0.194033  -0.000000
    17  H    0.203105   0.000000
    18  S    0.579806   0.000000
    19  O   -0.427696   0.000000
    20  O   -0.430995   0.000000
    21  O   -0.442853  -0.000000
    22  O   -0.425234  -0.000000
    23  O   -0.445397  -0.000000
    24  O   -0.432197  -0.000000
 Sum of Mulliken charges =  -4.00000   0.00000

 Dipole moment (field-independent basis, Debye):
    X=              8.0456    Y=             -1.2966    Z=             -0.4108  Tot=              8.1597
 Quadrupole moment (field-independent basis, Debye-Ang):
   XX=           -352.4713   YY=           -261.5914   ZZ=           -160.7623
   XY=             31.8042   XZ=             -0.0665   YZ=             -1.1104

 Normal termination of Gaussian 16 at Sun Jan 28 18:45:25 2024.
