 Q-Chem 5.4, Q-Chem, Inc., Pleasanton, CA (2021)
 Q-Chem 5.4.0 for Intel X86 EM64T Linux

User input:
--------------------------------------------------------------
$molecule
-1 2
C                  2.5476690000     -0.8948720000     -0.1357460000
C                  1.2523190000     -0.1420010000      0.0041050000
C                  1.1947500000      1.1902920000      0.3192760000
Cl                 2.7015500000      2.0915060000      0.5791010000
C                 -0.0237870000      1.9739580000      0.4689160000
O                 -0.0384510000      3.1876990000      0.7572660000
C                 -1.2232920000      1.1791010000      0.2435500000
C                 -1.2487430000     -0.1535410000     -0.0743290000
C                 -2.5258170000     -0.9181930000     -0.2950120000
C                  0.0106520000     -0.8825090000     -0.2095910000
O                  0.0254870000     -2.1113490000     -0.5014140000
Cl                -2.7516750000      2.0662370000      0.4085080000
H                  3.1274730000     -0.8646030000      0.7929350000
H                  2.3287750000     -1.9316970000     -0.3894330000
H                  3.1797010000     -0.4574280000     -0.9159330000
H                 -3.1628140000     -0.8939240000      0.5956030000
H                 -3.1118510000     -0.4859150000     -1.1130730000
H                 -2.2819470000     -1.9527600000     -0.5347290000
$end
$rem
MAX_SCF_CYCLES=200
BASIS  =  6-311++G(d,p)
GUI  =  2
JOB_TYPE  =  SP
METHOD  =  B3LYP
SOLVENT_METHOD = PCM
$end
$pcm
theory = CPCM
$end
$solvent
dielectric 37.219
opticaldielectric 1.43
$end

--------------------------------------------------------------

             Standard Nuclear Orientation (Angstroms)
    I     Atom           X                Y                Z
 ----------------------------------------------------------------
    1      C       2.5476690000    -0.8948720000    -0.1357460000
    2      C       1.2523190000    -0.1420010000     0.0041050000
    3      C       1.1947500000     1.1902920000     0.3192760000
    4      Cl      2.7015500000     2.0915060000     0.5791010000
    5      C      -0.0237870000     1.9739580000     0.4689160000
    6      O      -0.0384510000     3.1876990000     0.7572660000
    7      C      -1.2232920000     1.1791010000     0.2435500000
    8      C      -1.2487430000    -0.1535410000    -0.0743290000
    9      C      -2.5258170000    -0.9181930000    -0.2950120000
   10      C       0.0106520000    -0.8825090000    -0.2095910000
   11      O       0.0254870000    -2.1113490000    -0.5014140000
   12      Cl     -2.7516750000     2.0662370000     0.4085080000
   13      H       3.1274730000    -0.8646030000     0.7929350000
   14      H       2.3287750000    -1.9316970000    -0.3894330000
   15      H       3.1797010000    -0.4574280000    -0.9159330000
   16      H      -3.1628140000    -0.8939240000     0.5956030000
   17      H      -3.1118510000    -0.4859150000    -1.1130730000
   18      H      -2.2819470000    -1.9527600000    -0.5347290000
 ----------------------------------------------------------------

    9   -1379.6311896596      6.66e-06  Convergence criterion met
 Total energy in the final basis set =    -1379.6311896596

                    Orbital Energies (a.u.)
 --------------------------------------------------------------

 Alpha MOs
 -- Occupied --
********-101.5496 -19.0900 -19.0878 -10.2432 -10.2330 -10.2256 -10.2256
-10.1876 -10.1876 -10.1586 -10.1586  -9.4642  -9.4641  -7.2284  -7.2283
 -7.2195  -7.2195  -7.2186  -7.2185  -1.0218  -1.0115  -0.8794  -0.8670
 -0.8065  -0.7705  -0.7273  -0.6684  -0.6614  -0.5693  -0.5684  -0.5164
 -0.4692  -0.4469  -0.4381  -0.4190  -0.4181  -0.4144  -0.4110  -0.4045
 -0.3911  -0.3760  -0.3683  -0.3587  -0.3516  -0.3355  -0.3177  -0.3093
 -0.2787  -0.2621  -0.2507  -0.2431  -0.1708

 Beta MOs
 -- Occupied --
********-101.5496 -19.0839 -19.0806 -10.2416 -10.2314 -10.2248 -10.2248
-10.1863 -10.1863 -10.1587 -10.1587  -9.4641  -9.4641  -7.2284  -7.2284
 -7.2194  -7.2194  -7.2186  -7.2185  -1.0112  -0.9989  -0.8760  -0.8661
 -0.8027  -0.7687  -0.7229  -0.6671  -0.6537  -0.5657  -0.5641  -0.5143
 -0.4656  -0.4361  -0.4330  -0.4174  -0.4160  -0.4126  -0.4071  -0.3903
 -0.3902  -0.3661  -0.3572  -0.3533  -0.3498  -0.3247  -0.3173  -0.3089
 -0.2562  -0.2527  -0.2444  -0.2366

          Ground-State Mulliken Net Atomic Charges

     Atom                 Charge (a.u.)    Spin (a.u.)
  --------------------------------------------------------
      1 C                    -0.647981       0.001876
      2 C                     0.588446       0.093877
      3 C                     0.188825       0.043891
      4 Cl                    0.363798       0.004060
      5 C                    -1.040374       0.107221
      6 O                    -0.407932       0.223067
      7 C                     0.190835       0.043893
      8 C                     0.587845       0.093747
      9 C                    -0.646702       0.001889
     10 C                    -1.125668       0.107191
     11 O                    -0.458951       0.261614
     12 Cl                    0.363746       0.004063
     13 H                     0.173424       0.004416
     14 H                     0.175277      -0.002016
     15 H                     0.173341       0.004410
     16 H                     0.173373       0.004410
     17 H                     0.173365       0.004406
     18 H                     0.175333      -0.002017
  --------------------------------------------------------
  Sum of atomic charges =    -1.000000

                    Cartesian Multipole Moments
 -----------------------------------------------------------------
    Charge (ESU x 10^10)
                -4.8032
    Dipole Moment (Debye)
         X       0.0721      Y      -6.1142      Z      -1.4533
       Tot       6.2850
    Quadrupole Moments (Debye-Ang)
        XX     -92.7080     XY       0.5004     YY    -130.7112
        XZ      -0.0668     YZ     -10.5004     ZZ     -89.0143

 Total job time:  21.67s(wall), 156.74s(cpu)
        *  Thank you very much for using Q-Chem.  Have a nice day.  *
