 Gaussian 16, Revision A.03,
 Gaussian 16:  ES64L-G16RevA.03 25-Dec-2016

 ----------------------------------------------------------------
 #P UB3LYP/6-311++G(d,p) SCRF=(PCM,Solvent=n,n-DiMethylFormamide)
 ----------------------------------------------------------------

 ------------------
 Radical PCM in DMF
 ------------------
 Symbolic Z-matrix:
 Charge = -1 Multiplicity = 2

                         Standard orientation:
 ---------------------------------------------------------------------
 Center     Atomic      Atomic             Coordinates (Angstroms)
 Number     Number       Type             X           Y           Z
 ---------------------------------------------------------------------
      1          6           0        2.514613    1.393769   -0.000080
      2          6           0        3.713469    0.703784   -0.000054
      3          6           0        3.713468   -0.703808    0.000060
      4          6           0        1.284840    0.707482    0.000042
      5          6           0        1.284851   -0.707428    0.000100
      6          6           0        2.514595   -1.393754    0.000090
      7          6           0        0.032837    1.486946    0.000202
      8          6           0       -1.177970    0.693082    0.000045
      9          6           0       -1.177960   -0.693054    0.000036
     10          6           0        0.032861   -1.486897    0.000220
     11          8           0        0.035238    2.737382   -0.000250
     12          8           0        0.035286   -2.737335   -0.000259
     13          1           0        2.482498    2.477077   -0.000170
     14          1           0        4.653622    1.247120   -0.000114
     15          1           0        2.482360   -2.477055    0.000129
     16         17           0       -2.683855    1.597946    0.000062
     17          1           0        4.653609   -1.247165    0.000081
     18         17           0       -2.683786   -1.598010   -0.000051
 ---------------------------------------------------------------------

 SCF Done:  E(UB3LYP) =  -1454.65739824     A.U. after   18 cycles

 The electronic state is 2-A.
 Alpha  occ. eigenvalues -- -101.55531-101.55531 -19.08955 -19.08954 -10.24190
 Alpha  occ. eigenvalues --  -10.24189 -10.23663 -10.23607 -10.18487 -10.18440
 Alpha  occ. eigenvalues --  -10.17961 -10.17912 -10.17700 -10.17699  -9.46983
 Alpha  occ. eigenvalues --   -9.46982  -7.23426  -7.23426  -7.22513  -7.22513
 Alpha  occ. eigenvalues --   -7.22409  -7.22409  -1.02067  -1.01777  -0.89652
 Alpha  occ. eigenvalues --   -0.86509  -0.84883  -0.79482  -0.75855  -0.73272
 Alpha  occ. eigenvalues --   -0.68291  -0.62216  -0.61283  -0.57107  -0.53122
 Alpha  occ. eigenvalues --   -0.50667  -0.47903  -0.46584  -0.44166  -0.43370
 Alpha  occ. eigenvalues --   -0.43353  -0.42858  -0.42019  -0.40879  -0.39754
 Alpha  occ. eigenvalues --   -0.37870  -0.36605  -0.34863  -0.34769  -0.33600
 Alpha  occ. eigenvalues --   -0.32893  -0.30586  -0.27824  -0.26327  -0.26052
 Alpha  occ. eigenvalues --   -0.25340  -0.25169  -0.16588
 Alpha virt. eigenvalues --   -0.04066  -0.02718  -0.01246   0.00079   0.01629
 Alpha virt. eigenvalues --    0.02042   0.02760   0.03614   0.03796   0.04785
 Alpha virt. eigenvalues --    0.04957   0.05106   0.06587   0.06784   0.06877

  Beta  occ. eigenvalues -- -101.55523-101.55523 -19.08349 -19.08349 -10.24050
  Beta  occ. eigenvalues --  -10.24048 -10.23465 -10.23408 -10.18455 -10.18408
  Beta  occ. eigenvalues --  -10.17936 -10.17887 -10.17690 -10.17689  -9.46976
  Beta  occ. eigenvalues --   -9.46975  -7.23431  -7.23431  -7.22479  -7.22479
  Beta  occ. eigenvalues --   -7.22406  -7.22406  -1.01037  -1.00716  -0.89306
  Beta  occ. eigenvalues --   -0.86394  -0.84718  -0.79127  -0.75682  -0.73060
  Beta  occ. eigenvalues --   -0.67403  -0.62057  -0.60957  -0.56829  -0.52915
  Beta  occ. eigenvalues --   -0.50426  -0.47606  -0.46488  -0.43255  -0.43205
  Beta  occ. eigenvalues --   -0.42712  -0.42554  -0.41570  -0.40562  -0.37527
  Beta  occ. eigenvalues --   -0.37467  -0.36499  -0.34788  -0.33433  -0.33011
  Beta  occ. eigenvalues --   -0.32815  -0.30542  -0.25743  -0.25707  -0.25486
  Beta  occ. eigenvalues --   -0.24768  -0.24387
  Beta virt. eigenvalues --   -0.09981  -0.03269  -0.01548  -0.01118   0.00105
  Beta virt. eigenvalues --    0.01643   0.02093   0.02830   0.03626   0.04640
  Beta virt. eigenvalues --    0.04850   0.05151   0.06038   0.06714   0.06811

 Mulliken charges and spin densities:
               1          2
     1  C   -0.049549   0.031475
     2  C   -0.449867   0.018874
     3  C   -0.449920   0.018875
     4  C    0.546102   0.026703
     5  C    0.546166   0.026707
     6  C   -0.049453   0.031476
     7  C   -1.809109   0.087605
     8  C    0.938867   0.106845
     9  C    0.938651   0.106851
    10  C   -1.809235   0.087595
    11  O   -0.402707   0.223907
    12  O   -0.402693   0.223905
    13  H    0.177438  -0.002325
    14  H    0.189665  -0.001607
    15  H    0.177436  -0.002326
    16  Cl   0.359264   0.008524
    17  H    0.189668  -0.001607
    18  Cl   0.359275   0.008525
 Sum of Mulliken charges =  -1.00000   1.00000

 Dipole moment (field-independent basis, Debye):
    X=              4.1236    Y=             -0.0001    Z=              0.0014  Tot=              4.1236
 Quadrupole moment (field-independent basis, Debye-Ang):
   XX=            -98.2885   YY=           -132.7843   ZZ=            -98.4745
   XY=              0.0004   XZ=             -0.0001   YZ=             -0.0006

 Normal termination of Gaussian 16 at Sun Jan 21 08:13:34 2024.
