 Q-Chem 5.4, Q-Chem, Inc., Pleasanton, CA (2021)
 Q-Chem 5.4.0 for Intel X86 EM64T Linux

User input:
--------------------------------------------------------------
$molecule
-1 2
C                  1.3106250000      4.2147690000      5.1606500000
C                  1.8119020000      3.9656080000      3.8243480000
C                  1.6023260000      2.8028510000      3.1182650000
C                  0.8831450000      1.6767120000      3.7222570000
C                  0.3607210000      1.9364650000      5.0486870000
C                  0.5140460000      3.1232270000      5.7265440000
O                  1.5953500000      5.2753780000      5.7697180000
O                  0.7476710000      0.5555860000      3.1791200000
H                  2.3821710000      4.7751780000      3.3840120000
C                 -0.1290850000      3.2225670000      7.0619530000
O                 -0.2531220000      2.3063070000      7.8528310000
O                 -0.6371160000      4.4524420000      7.3141660000
C                 -1.2355220000      4.6253350000      8.5984650000
H                 -1.5519870000      5.6672370000      8.6340450000
H                 -0.5146600000      4.4214430000      9.3937110000
H                 -2.0940550000      3.9609280000      8.7264020000
C                  2.0818870000      2.7026120000      1.7189190000
O                  3.2755140000      3.3645050000      1.5419180000
O                  1.5294880000      2.1555950000      0.7934690000
C                  3.7658810000      3.3868800000      0.2012690000
H                 -0.1873290000      1.1218440000      5.5094480000
H                  4.7057090000      3.9375380000      0.2403890000
H                  3.0606750000      3.8880560000     -0.4669940000
H                  3.9345250000      2.3734770000     -0.1705710000
$end
$rem
MAX_SCF_CYCLES=200
BASIS  =  6-311++G(d,p)
GUI  =  2
JOB_TYPE  =  SP
METHOD  =  B3LYP
SOLVENT_METHOD = PCM
$end
$pcm
theory = CPCM
$end
$solvent
dielectric 37.219
opticaldielectric 1.43
$end

--------------------------------------------------------------

             Standard Nuclear Orientation (Angstroms)
    I     Atom           X                Y                Z
 ----------------------------------------------------------------
    1      C       1.3106250000     4.2147690000     5.1606500000
    2      C       1.8119020000     3.9656080000     3.8243480000
    3      C       1.6023260000     2.8028510000     3.1182650000
    4      C       0.8831450000     1.6767120000     3.7222570000
    5      C       0.3607210000     1.9364650000     5.0486870000
    6      C       0.5140460000     3.1232270000     5.7265440000
    7      O       1.5953500000     5.2753780000     5.7697180000
    8      O       0.7476710000     0.5555860000     3.1791200000
    9      H       2.3821710000     4.7751780000     3.3840120000
   10      C      -0.1290850000     3.2225670000     7.0619530000
   11      O      -0.2531220000     2.3063070000     7.8528310000
   12      O      -0.6371160000     4.4524420000     7.3141660000
   13      C      -1.2355220000     4.6253350000     8.5984650000
   14      H      -1.5519870000     5.6672370000     8.6340450000
   15      H      -0.5146600000     4.4214430000     9.3937110000
   16      H      -2.0940550000     3.9609280000     8.7264020000
   17      C       2.0818870000     2.7026120000     1.7189190000
   18      O       3.2755140000     3.3645050000     1.5419180000
   19      O       1.5294880000     2.1555950000     0.7934690000
   20      C       3.7658810000     3.3868800000     0.2012690000
   21      H      -0.1873290000     1.1218440000     5.5094480000
   22      H       4.7057090000     3.9375380000     0.2403890000
   23      H       3.0606750000     3.8880560000    -0.4669940000
   24      H       3.9345250000     2.3734770000    -0.1705710000
 ----------------------------------------------------------------

    9    -837.6222779120      6.56e-06  Convergence criterion met
 Total energy in the final basis set =     -837.6222779120

                    Orbital Energies (a.u.)
 --------------------------------------------------------------

 Alpha MOs
 -- Occupied --
-19.1710 -19.1685 -19.1221 -19.1199 -19.0937 -19.0928 -10.3108 -10.3107
-10.2424 -10.2421 -10.2173 -10.2164 -10.1948 -10.1944 -10.1855 -10.1851
 -1.1140  -1.1103  -1.0280  -1.0263  -1.0192  -1.0168  -0.8482  -0.7950
 -0.7390  -0.7218  -0.6987  -0.6496  -0.6031  -0.5792  -0.5595  -0.5244
 -0.5118  -0.5045  -0.4880  -0.4856  -0.4804  -0.4688  -0.4492  -0.4439
 -0.4301  -0.4211  -0.4198  -0.4072  -0.4018  -0.3941  -0.3896  -0.3806
 -0.3638  -0.3624  -0.3137  -0.3125  -0.3034  -0.3009  -0.2936  -0.2757
 -0.2584  -0.2495  -0.1811

 Beta MOs
 -- Occupied --
-19.1709 -19.1684 -19.1220 -19.1199 -19.0868 -19.0858 -10.3108 -10.3107
-10.2414 -10.2412 -10.2173 -10.2164 -10.1942 -10.1938 -10.1836 -10.1832
 -1.1138  -1.1102  -1.0271  -1.0260  -1.0079  -1.0049  -0.8424  -0.7928
 -0.7379  -0.7190  -0.6904  -0.6468  -0.5993  -0.5782  -0.5587  -0.5232
 -0.5091  -0.5021  -0.4873  -0.4850  -0.4797  -0.4679  -0.4465  -0.4413
 -0.4237  -0.4156  -0.4130  -0.4042  -0.3973  -0.3885  -0.3776  -0.3663
 -0.3633  -0.3589  -0.3131  -0.3119  -0.3003  -0.2967  -0.2681  -0.2657
 -0.2520  -0.2435

          Ground-State Mulliken Net Atomic Charges

     Atom                 Charge (a.u.)    Spin (a.u.)
  --------------------------------------------------------
      1 C                    -0.941724       0.066756
      2 C                    -0.010648       0.135529
      3 C                     0.967852       0.023581
      4 C                    -1.040724       0.075884
      5 C                    -0.129400       0.124757
      6 C                     1.119078       0.046774
      7 O                    -0.447907       0.255913
      8 O                    -0.462565       0.249389
      9 H                     0.222003      -0.010364
     10 C                    -0.176816       0.004762
     11 O                    -0.330826       0.001820
     12 O                    -0.091068       0.001758
     13 C                    -0.275905       0.000106
     14 H                     0.178732       0.000130
     15 H                     0.196736       0.000032
     16 H                     0.183339       0.000081
     17 C                    -0.014085       0.028622
     18 O                    -0.112177      -0.001007
     19 O                    -0.321889       0.006115
     20 C                    -0.276989      -0.000276
     21 H                     0.213113      -0.010480
     22 H                     0.177481       0.000079
     23 H                     0.191378      -0.000066
     24 H                     0.183011       0.000105
  --------------------------------------------------------
  Sum of atomic charges =    -1.000000

                    Cartesian Multipole Moments
 -----------------------------------------------------------------
    Charge (ESU x 10^10)
                -4.8032
    Dipole Moment (Debye)
         X      -4.3670      Y     -10.5380      Z     -21.1694
       Tot      24.0471
    Quadrupole Moments (Debye-Ang)
        XX     -91.7189     XY     -16.6408     YY    -142.8375
        XZ     -32.2621     YZ     -59.3553     ZZ    -201.3825

 Total job time:  34.77s(wall), 267.67s(cpu)
        *  Thank you very much for using Q-Chem.  Have a nice day.  *
