 Q-Chem 5.4, Q-Chem, Inc., Pleasanton, CA (2021)
 Q-Chem 5.4.0 for Intel X86 EM64T Linux

User input:
--------------------------------------------------------------
$molecule
-2 1
C                 -6.7950370000      5.9456690000      0.8308990000
C                 -7.9120020000      5.2119540000      0.4802550000
C                 -7.7966360000      4.1447430000     -0.4415090000
C                 -6.5585670000      3.8417120000     -0.9871500000
C                 -5.4027060000      4.5690000000     -0.6512590000
C                 -5.5214710000      5.6541010000      0.2847630000
C                 -4.3656910000      6.4242750000      0.6546030000
C                 -3.1269950000      6.0397020000      0.0390000000
C                 -2.9734960000      5.0049200000     -0.8718970000
C                 -4.1124320000      4.2077590000     -1.2587670000
O                 -4.3499220000      7.4165450000      1.4784510000
O                 -4.0122700000      3.2475270000     -2.0836560000
C                 -1.6305410000      4.6859180000     -1.4770680000
C                 -0.8680700000      3.5659100000     -0.7409040000
C                  0.4789220000      3.2291500000     -1.3917360000
C                  1.2647900000      2.1235530000     -0.6752810000
C                  2.6110350000      1.7977810000     -1.3346300000
C                  3.4096720000      0.6968300000     -0.6251860000
C                  4.7523550000      0.3832340000     -1.2968480000
C                  5.5628640000     -0.7136330000     -0.5941520000
C                  6.9019080000     -1.0106060000     -1.2850390000
C                  7.7111840000     -2.0991870000     -0.5808870000
S                  9.3045570000     -2.3887770000     -1.4864950000
C                 10.0719760000     -3.6756230000     -0.5010540000
C                  9.9199550000     -5.0254990000     -0.8479060000
C                 10.8857370000     -3.3528460000      0.5941760000
C                 11.4791330000     -4.3600020000      1.3526090000
C                 11.2948420000     -5.7126630000      1.0433350000
C                 10.5218650000     -6.0229020000     -0.0889930000
C                 11.9557460000     -6.8042630000      1.8463640000
H                 -6.8596240000      6.7681220000      1.5356480000
H                 -8.8800490000      5.4537180000      0.9128170000
H                 -8.6739390000      3.5659550000     -0.7184670000
H                 -6.4382390000      3.0283640000     -1.6952250000
O                 -2.0669120000      6.8157050000      0.4361920000
H                 -1.0090590000      5.5883260000     -1.4904250000
H                 -1.7933160000      4.3622110000     -2.5113320000
H                 -1.5028640000      2.6736260000     -0.7219440000
H                 -0.7063520000      3.8686850000      0.3009160000
H                  1.0971400000      4.1371070000     -1.4343330000
H                  0.3072270000      2.9292060000     -2.4344860000
H                  0.6514440000      1.2138740000     -0.6348990000
H                  1.4358290000      2.4202240000      0.3681690000
H                  3.2199600000      2.7108740000     -1.3788950000
H                  2.4376080000      1.5003630000     -2.3775310000
H                  2.8042720000     -0.2180390000     -0.5811030000
H                  3.5867240000      0.9929560000      0.4172090000
H                  5.3543600000      1.3002920000     -1.3436700000
H                  4.5730800000      0.0860920000     -2.3385090000
H                  4.9655990000     -1.6331310000     -0.5478460000
H                  5.7480840000     -0.4176580000      0.4462960000
H                  7.4972820000     -0.0910900000     -1.3322740000
H                  6.7151010000     -1.3126780000     -2.3224020000
H                  7.1596250000     -3.0417690000     -0.5532510000
H                  7.9499070000     -1.8078770000      0.4445720000
H                  9.3239180000     -5.2877330000     -1.7154090000
H                 11.0478780000     -2.3119450000      0.8518280000
H                 12.1008600000     -4.0891870000      2.2013860000
H                 10.3920010000     -7.0628070000     -0.3764500000
H                 12.5793960000     -6.3975500000      2.6475060000
H                 12.6006040000     -7.4303310000      1.2107130000
H                 11.2219000000     -7.4727610000      2.3040660000
H                 -2.5201580000      7.4348030000      1.0566500000
$end
$rem
MAX_SCF_CYCLES=200
BASIS  =  6-311++G(d,p)
GUI  =  2
JOB_TYPE  =  SP
THRESH = 14
SCF_CONVERGENCE  = 6
METHOD  =  B3LYP
SOLVENT_METHOD = COSMO
$end
$solvent
dielectric 37.219
opticaldielectric 1.43
$end

--------------------------------------------------------------

             Standard Nuclear Orientation (Angstroms)
    I     Atom           X                Y                Z
 ----------------------------------------------------------------
    1      C      10.0005458354     0.6792427968     1.3231797519
    2      C      10.5637116641     1.8932189426     0.9796598925
    3      C       9.9115236123     2.7380258426     0.0507629386
    4      C       8.7071356364     2.3399596637    -0.5090224286
    5      C       8.1077418682     1.1108521314    -0.1806826122
    6      C       8.7721193724     0.2526597251     0.7626067472
    7      C       8.1951054845    -1.0128062556     1.1251365379
    8      C       6.9478263533    -1.3419892051     0.4949265880
    9      C       6.2803314885    -0.5448876972    -0.4233047916
   10      C       6.8289666556     0.7345650285    -0.8031856218
   11      O       8.6975081357    -1.8634066848     1.9543798239
   12      O       6.2451908209     1.4966114686    -1.6344562038
   13      C       4.9791998379    -0.9848999107    -1.0437627087
   14      C       3.7309914596    -0.4387708674    -0.3216572502
   15      C       2.4175612767    -0.8658304958    -0.9879141574
   16      C       1.1573612032    -0.3443032359    -0.2856705395
   17      C      -0.1495202620    -0.7802847112    -0.9603742441
   18      C      -1.4180120373    -0.2694551952    -0.2652434846
   19      C      -2.7152841058    -0.7138740692    -0.9521546700
   20      C      -3.9916071927    -0.2127907780    -0.2638679302
   21      C      -5.2767706750    -0.6693752793    -0.9698722223
   22      C      -6.5476781869    -0.1746695946    -0.2800703244
   23      S      -8.0422058925    -0.7720457365    -1.2033007492
   24      C      -9.3858073192    -0.0871295970    -0.2329278302
   25      C      -9.9674366478     1.1387295933    -0.5858562639
   26      C      -9.9178924839    -0.7923598344     0.8558588337
   27      C     -10.9631887937    -0.2524735970     1.6025723745
   28      C     -11.5193509955     0.9928120834     1.2875286627
   29      C     -11.0147979987     1.6658340748     0.1613066368
   30      C     -12.6671320092     1.5685749725     2.0776780613
   31      H      10.4825921631     0.0153145187     2.0331812662
   32      H      11.5079087288     2.2003715801     1.4233082556
   33      H      10.3525465079     3.6936489056    -0.2206135591
   34      H       8.1826620419     2.9666557343    -1.2228595852
   35      O       6.4547633044    -2.5617524631     0.8858032080
   36      H       4.9298578274    -2.0794834870    -1.0582763081
   37      H       4.9578520047    -0.6235489209    -2.0781483604
   38      H       3.7969209239     0.6542682679    -0.3013497396
   39      H       3.7420678999    -0.7818082692     0.7201762193
   40      H       2.3742629639    -1.9633780255    -1.0316015703
   41      H       2.4164578074    -0.5199124491    -2.0305610899
   42      H       1.1956405212     0.7521271078    -0.2442567756
   43      H       1.1572804418    -0.6870976567     0.7576644512
   44      H      -0.1821971228    -1.8772688038    -1.0056069296
   45      H      -0.1478155152    -0.4355926327    -2.0031404460
   46      H      -1.3892635377     0.8271695434    -0.2202383243
   47      H      -1.4234700208    -0.6149700051     0.7769729426
   48      H      -2.7399621957    -1.8105570880    -0.9998520850
   49      H      -2.7084866441    -0.3663208415    -1.9936205029
   50      H      -3.9722358121     0.8834531548    -0.2167480069
   51      H      -4.0040516406    -0.5625006252     0.7763185186
   52      H      -5.2945176574    -1.7646328793    -1.0179019388
   53      H      -5.2662431519    -0.3136544141    -2.0069923598
   54      H      -6.5790843538     0.9169710771    -0.2522099195
   55      H      -6.6078063435    -0.5487385537     0.7445629593
   56      H      -9.5906258070     1.6772107540    -1.4487814408
   57      H      -9.5073828591    -1.7614040858     1.1177447546
   58      H     -11.3570341021    -0.8118250046     2.4465625985
   59      H     -11.4518174104     2.6169616977    -0.1307017076
   60      H     -12.9901180166     0.8929394226     2.8747852899
   61      H     -13.5382632195     1.7586606768     1.4320365090
   62      H     -12.4037702925     2.5239646765     2.5389608035
   63      H       7.1598338207    -2.8473573439     1.5142837716
 ----------------------------------------------------------------

   35   -1672.4288503600      5.36e-08  Convergence criterion met
 Total energy in the final basis set =    -1672.4288503600
    7   -1672.6732422660      9.42e-07  Convergence criterion met
 Total energy in the final basis set =    -1672.6732422660

                    Orbital Energies (a.u.)
 --------------------------------------------------------------

 Alpha MOs
 -- Occupied --
-88.8424 -19.1141 -19.0299 -19.0211 -10.2053 -10.1942 -10.1906 -10.1817
-10.1814 -10.1765 -10.1765 -10.1764 -10.1741 -10.1674 -10.1647 -10.1632
-10.1606 -10.1565 -10.1544 -10.1530 -10.1513 -10.1484 -10.1473 -10.1445
-10.1440 -10.1435 -10.1428 -10.1393 -10.1357 -10.1317 -10.1233  -7.9285
 -5.8923  -5.8890  -5.8823  -1.0294  -0.9469  -0.9400  -0.8698  -0.8250
 -0.8162  -0.8017  -0.7898  -0.7767  -0.7616  -0.7530  -0.7424  -0.7225
 -0.7215  -0.7025  -0.6810  -0.6583  -0.6360  -0.6206  -0.6138  -0.5982
 -0.5846  -0.5774  -0.5757  -0.5688  -0.5639  -0.5523  -0.5356  -0.5035
 -0.4961  -0.4829  -0.4735  -0.4718  -0.4667  -0.4552  -0.4518  -0.4425
 -0.4298  -0.4271  -0.4248  -0.4235  -0.4230  -0.4194  -0.4131  -0.4042
 -0.4005  -0.3996  -0.3880  -0.3872  -0.3854  -0.3806  -0.3750  -0.3721
 -0.3653  -0.3587  -0.3573  -0.3538  -0.3520  -0.3457  -0.3445  -0.3382
 -0.3366  -0.3304  -0.3244  -0.3214  -0.3189  -0.3181  -0.3156  -0.3130
 -0.3108  -0.3074  -0.3040  -0.3006  -0.2907  -0.2636  -0.2483  -0.2341
 -0.2309  -0.2273  -0.2185  -0.1991  -0.1932  -0.1076

          Ground-State Mulliken Net Atomic Charges

     Atom                 Charge (a.u.)
  ----------------------------------------
      1 C                    -0.046188
      2 C                    -0.421248
      3 C                    -0.502086
      4 C                     0.035328
      5 C                     0.011350
      6 C                     0.267019
      7 C                    -0.811621
      8 C                    -0.648120
      9 C                     1.803630
     10 C                    -0.759919
     11 O                    -0.766270
     12 O                    -0.669904
     13 C                    -0.239998
     14 C                    -0.641339
     15 C                    -0.152252
     16 C                    -0.209135
     17 C                    -0.277463
     18 C                    -0.385756
     19 C                    -0.207000
     20 C                    -0.364225
     21 C                    -0.030962
     22 C                    -0.906555
     23 S                    -0.196856
     24 C                     1.296132
     25 C                    -0.551481
     26 C                    -0.415594
     27 C                    -0.779479
     28 C                     0.440607
     29 C                    -0.124336
     30 C                    -0.722785
     31 H                     0.156224
     32 H                     0.175708
     33 H                     0.170122
     34 H                     0.151542
     35 O                    -0.353958
     36 H                     0.201509
     37 H                     0.171917
     38 H                     0.180905
     39 H                     0.159443
     40 H                     0.107612
     41 H                     0.113817
     42 H                     0.128505
     43 H                     0.128554
     44 H                     0.135691
     45 H                     0.136337
     46 H                     0.137132
     47 H                     0.136937
     48 H                     0.133953
     49 H                     0.134289
     50 H                     0.139377
     51 H                     0.140238
     52 H                     0.137399
     53 H                     0.136104
     54 H                     0.223155
     55 H                     0.215845
     56 H                     0.221358
     57 H                     0.226454
     58 H                     0.192961
     59 H                     0.224417
     60 H                     0.173198
     61 H                     0.169898
     62 H                     0.175933
     63 H                     0.293929
  ----------------------------------------
  Sum of atomic charges =    -2.000000

                    Cartesian Multipole Moments
 -----------------------------------------------------------------
    Charge (ESU x 10^10)
                -9.6064
    Dipole Moment (Debye)
         X     -72.6480      Y       2.5107      Z       0.8025
       Tot      72.6958
    Quadrupole Moments (Debye-Ang)
        XX    -765.8515     XY      -6.8935     YY    -231.0028
        XZ     -52.4056     YZ      14.6587     ZZ    -230.0772

 Total job time:  1246.89s(wall), 9670.46s(cpu)
        *  Thank you very much for using Q-Chem.  Have a nice day.  *
