 Q-Chem 5.4, Q-Chem, Inc., Pleasanton, CA (2021)
 Q-Chem 5.4.0 for Intel X86 EM64T Linux

User input:
--------------------------------------------------------------
$molecule
-1 2
C                  1.0828610000      1.4257770000     -1.3132490000
C                 -0.1643360000      0.7087160000     -1.4049620000
C                 -0.4619750000     -0.4028650000     -0.6538060000
C                  0.4977100000     -0.9227440000      0.3102240000
C                  1.7653230000     -0.1986610000      0.4217950000
C                  2.0469630000      0.9109920000     -0.3450990000
C                  3.3592020000      1.6445210000     -0.2214870000
C                  2.7627600000     -0.7279750000      1.4232860000
O                  1.3167850000      2.4422410000     -2.0318010000
O                  0.2581230000     -1.9440540000      1.0172140000
H                 -0.8838930000      1.0988230000     -2.1208380000
H                  4.2120190000      0.9909510000     -0.4442190000
H                  3.5147430000      2.0288340000      0.7944970000
H                  3.3694880000      2.4834220000     -0.9182360000
H                  2.3461490000     -1.6044080000      1.9200620000
H                  3.0099660000      0.0236940000      2.1835270000
H                  3.7077690000     -1.0111600000      0.9426530000
C                 -1.7945760000     -1.0763350000     -0.8596210000
C                 -1.7469220000     -2.5720620000     -1.1600990000
O                 -2.6028500000     -0.8680230000      0.3683180000
C                 -3.9223850000     -0.7515750000      0.2540340000
C                 -4.5512770000     -0.4708590000      1.6039800000
O                 -4.5544830000     -0.8350580000     -0.7805710000
H                 -2.3296370000     -0.5617670000     -1.6588690000
H                 -2.7559800000     -2.9569730000     -1.3314110000
H                 -1.2683990000     -3.0982640000     -0.3355050000
H                 -1.1588280000     -2.7328050000     -2.0686590000
H                 -4.1050350000     -1.1026580000      2.3734150000
H                 -5.6273170000     -0.6306660000      1.5478120000
H                 -4.3549160000      0.5698410000      1.8770640000
$end

$rem
BASIS  =  6-311++G(d,p)
GUI  =  2
JOB_TYPE  =  SP
METHOD  =  B3LYP
SCF_CONVERGENCE  = 8
SOLVENT_METHOD = sm12
$end

$smx
solvent dimethylformamide
charges CM5
$end

--------------------------------------------------------------

             Standard Nuclear Orientation (Angstroms)
    I     Atom           X                Y                Z
 ----------------------------------------------------------------
    1      C       1.0828610000     1.4257770000    -1.3132490000
    2      C      -0.1643360000     0.7087160000    -1.4049620000
    3      C      -0.4619750000    -0.4028650000    -0.6538060000
    4      C       0.4977100000    -0.9227440000     0.3102240000
    5      C       1.7653230000    -0.1986610000     0.4217950000
    6      C       2.0469630000     0.9109920000    -0.3450990000
    7      C       3.3592020000     1.6445210000    -0.2214870000
    8      C       2.7627600000    -0.7279750000     1.4232860000
    9      O       1.3167850000     2.4422410000    -2.0318010000
   10      O       0.2581230000    -1.9440540000     1.0172140000
   11      H      -0.8838930000     1.0988230000    -2.1208380000
   12      H       4.2120190000     0.9909510000    -0.4442190000
   13      H       3.5147430000     2.0288340000     0.7944970000
   14      H       3.3694880000     2.4834220000    -0.9182360000
   15      H       2.3461490000    -1.6044080000     1.9200620000
   16      H       3.0099660000     0.0236940000     2.1835270000
   17      H       3.7077690000    -1.0111600000     0.9426530000
   18      C      -1.7945760000    -1.0763350000    -0.8596210000
   19      C      -1.7469220000    -2.5720620000    -1.1600990000
   20      O      -2.6028500000    -0.8680230000     0.3683180000
   21      C      -3.9223850000    -0.7515750000     0.2540340000
   22      C      -4.5512770000    -0.4708590000     1.6039800000
   23      O      -4.5544830000    -0.8350580000    -0.7805710000
   24      H      -2.3296370000    -0.5617670000    -1.6588690000
   25      H      -2.7559800000    -2.9569730000    -1.3314110000
   26      H      -1.2683990000    -3.0982640000    -0.3355050000
   27      H      -1.1588280000    -2.7328050000    -2.0686590000
   28      H      -4.1050350000    -1.1026580000     2.3734150000
   29      H      -5.6273170000    -0.6306660000     1.5478120000
   30      H      -4.3549160000     0.5698410000     1.8770640000
 ----------------------------------------------------------------

   17    -766.8977436179      4.48e-09  Convergence criterion met
 Total energy in the final basis set =     -766.9793435841

                    Orbital Energies (a.u.)
 --------------------------------------------------------------

 Alpha MOs
 -- Occupied --
-19.1611 -19.1078 -19.0728 -19.0721 -10.3006 -10.2362 -10.2188 -10.2161
-10.1732 -10.1729 -10.1718 -10.1712 -10.1656 -10.1639 -10.1626 -10.1604
 -1.1028  -1.0168  -0.9956  -0.9926  -0.8353  -0.8064  -0.7612  -0.7324
 -0.7297  -0.6767  -0.6665  -0.6340  -0.5735  -0.5712  -0.5369  -0.4977
 -0.4873  -0.4787  -0.4723  -0.4516  -0.4412  -0.4362  -0.4217  -0.4133
 -0.4073  -0.4015  -0.4001  -0.3935  -0.3932  -0.3888  -0.3857  -0.3777
 -0.3644  -0.3618  -0.3511  -0.3481  -0.3400  -0.3053  -0.2808  -0.2749
 -0.2470  -0.2399  -0.2312  -0.1595

 Beta MOs
 -- Occupied --
-19.1610 -19.1078 -19.0654 -19.0649 -10.3006 -10.2363 -10.2176 -10.2150
-10.1729 -10.1718 -10.1710 -10.1704 -10.1642 -10.1640 -10.1627 -10.1604
 -1.1026  -1.0166  -0.9834  -0.9796  -0.8302  -0.8050  -0.7594  -0.7318
 -0.7272  -0.6749  -0.6599  -0.6313  -0.5717  -0.5677  -0.5346  -0.4967
 -0.4862  -0.4774  -0.4720  -0.4488  -0.4371  -0.4338  -0.4204  -0.4110
 -0.4065  -0.3987  -0.3976  -0.3914  -0.3910  -0.3867  -0.3793  -0.3674
 -0.3628  -0.3489  -0.3462  -0.3393  -0.3355  -0.3050  -0.2788  -0.2472
 -0.2349  -0.2331  -0.2247

          Ground-State Mulliken Net Atomic Charges

     Atom                 Charge (a.u.)    Spin (a.u.)
  --------------------------------------------------------
      1 C                    -1.701713       0.076551
      2 C                    -0.943797       0.073765
      3 C                     0.179469       0.099150
      4 C                    -1.432591       0.060498
      5 C                    -0.363222       0.059336
      6 C                    -0.000140       0.090990
      7 C                     0.287083       0.009342
      8 C                     0.171807      -0.007766
      9 O                    -0.387069       0.265992
     10 O                    -0.295438       0.263922
     11 H                     0.127130      -0.010726
     12 H                     0.211202       0.002613
     13 H                     0.208018       0.002610
     14 H                     0.165809      -0.002290
     15 H                     0.177473      -0.001603
     16 H                     0.194340       0.002890
     17 H                     0.197199       0.003038
     18 C                     1.089615      -0.001839
     19 C                    -0.099613       0.010793
     20 O                     0.179612       0.001380
     21 C                    -0.095297       0.001562
     22 C                     0.091699       0.000927
     23 O                    -0.314718       0.000381
     24 H                     0.211973      -0.000740
     25 H                     0.224148       0.000910
     26 H                     0.143122      -0.002119
     27 H                     0.119066       0.000411
     28 H                     0.207765      -0.000041
     29 H                     0.232643       0.000107
     30 H                     0.214424      -0.000044
  --------------------------------------------------------
  Sum of atomic charges =    -1.000000

                    Cartesian Multipole Moments
 -----------------------------------------------------------------
    Charge (ESU x 10^10)
                -4.8032
    Dipole Moment (Debye)
         X      -0.7757      Y      -1.1740      Z       4.2673
       Tot       4.4933
    Quadrupole Moments (Debye-Ang)
        XX    -120.3099     XY     -10.3933     YY    -122.5131
        XZ      -5.0267     YZ      16.1301     ZZ    -111.9436

 Total job time:  742.18s(wall), 5694.33s(cpu)
        *  Thank you very much for using Q-Chem.  Have a nice day.  *
