 Q-Chem 5.4, Q-Chem, Inc., Pleasanton, CA (2021)
 Q-Chem 5.4.0 for Intel X86 EM64T Linux

User input:
--------------------------------------------------------------
$molecule
-2 2
O                 -2.4962970000     -2.7906020000     -1.6617900000
S                 -2.9989010000     -2.3505740000     -0.3379530000
O                 -2.5734290000     -3.1546030000      0.8331650000
O                 -4.4844240000     -2.1363620000     -0.3524470000
C                 -2.3325420000     -0.6120180000     -0.0648510000
C                 -3.3466740000      0.3267470000      0.0545170000
C                 -3.0722040000      1.6888030000      0.2583800000
C                 -1.7691250000      2.1202670000      0.3411090000
C                 -0.6991810000      1.2076130000      0.2256850000
C                  0.6508790000      1.7816480000      0.3266600000
O                  0.8356240000      3.0226000000      0.5069970000
C                  1.7604350000      0.8570160000      0.2074830000
C                  3.0931020000      1.3312350000      0.2889570000
C                  4.1666090000      0.4717030000      0.1791260000
C                  3.9430880000     -0.9123920000     -0.0185340000
C                  2.6482650000     -1.3919840000     -0.0995950000
C                  1.5344790000     -0.5340840000      0.0090370000
C                  0.1813440000     -1.1234800000     -0.0867080000
O                  0.0549020000     -2.3458640000     -0.2475250000
C                 -0.9632460000     -0.1927470000      0.0212670000
H                 -4.3652320000     -0.0311790000     -0.0174780000
H                 -3.8949980000      2.3950900000      0.3478650000
H                 -1.5123330000      3.1617550000      0.4952880000
H                  3.2305820000      2.3963150000      0.4410640000
H                  5.1826370000      0.8548050000      0.2439750000
H                  4.7856280000     -1.5938550000     -0.1059810000
H                  2.4410150000     -2.4458560000     -0.2498510000
$end
$rem
MAX_SCF_CYCLES=200
BASIS  =  6-311++G(d,p)
GUI  =  2
JOB_TYPE  =  SP
METHOD  =  B3LYP
SOLVENT_METHOD = COSMO
$end
$solvent
dielectric 37.219
opticaldielectric 1.43
$end

--------------------------------------------------------------

             Standard Nuclear Orientation (Angstroms)
    I     Atom           X                Y                Z
 ----------------------------------------------------------------
    1      O      -2.8229801277     1.6343289925     1.2620627559
    2      S      -3.0335364188     0.8728515418     0.0072329011
    3      O      -2.8587645402     1.6225621165    -1.2602035944
    4      O      -4.3297226268     0.1163437467     0.0289748140
    5      C      -1.7507406009    -0.5039264278    -0.0034111748
    6      C      -2.3316740901    -1.7634930919    -0.0029032549
    7      C      -1.5565259225    -2.9344887323    -0.0051346237
    8      C      -0.1841229951    -2.8477120626    -0.0047280203
    9      C       0.4584603862    -1.5914769166    -0.0045213785
   10      C       1.9286812982    -1.6199763047    -0.0010013624
   11      O       2.5740796300    -2.7108795001     0.0012847336
   12      C       2.6032110507    -0.3372979968     0.0018237894
   13      C       4.0188321942    -0.2783752586     0.0100635972
   14      C       4.6848755500     0.9297870464     0.0124044962
   15      C       3.9491038357     2.1394774207     0.0061383464
   16      C       2.5665376109     2.0997442109    -0.0026865947
   17      C       1.8625235485     0.8779943615    -0.0047066537
   18      C       0.3840959996     0.9187530114    -0.0156516581
   19      O      -0.1990869133     2.0122085693    -0.0336783993
   20      C      -0.3213568146    -0.3813513753    -0.0070669810
   21      H      -3.4126181623    -1.8114392097     0.0010695897
   22      H      -2.0489703247    -3.9047141250    -0.0053714207
   23      H       0.4519002271    -3.7251426857    -0.0040124785
   24      H       4.5530661292    -1.2223077343     0.0143391414
   25      H       5.7723613987     0.9545966112     0.0190713071
   26      H       4.4692067863     3.0941506704     0.0082256801
   27      H       1.9720269647     3.0067730995    -0.0082818772
 ----------------------------------------------------------------

   11   -1312.2834664821      7.12e-06  Convergence criterion met
 Total energy in the final basis set =    -1312.2834664821
    5   -1312.5532012519      6.28e-06  Convergence criterion met
 Total energy in the final basis set =    -1312.5532012519

                    Orbital Energies (a.u.)
 --------------------------------------------------------------

 Alpha MOs
 -- Occupied --
-89.0425 -19.0869 -19.0869 -19.0837 -19.0755 -19.0746 -10.2275 -10.2232
-10.1988 -10.1869 -10.1764 -10.1716 -10.1709 -10.1707 -10.1706 -10.1704
-10.1701 -10.1688 -10.1680 -10.1670  -8.1009  -6.0636  -6.0636  -6.0626
 -1.1036  -1.0108  -0.9981  -0.9724  -0.9634  -0.8610  -0.8502  -0.7833
 -0.7576  -0.7478  -0.7374  -0.6678  -0.6421  -0.6178  -0.6105  -0.5709
 -0.5434  -0.5318  -0.5225  -0.4831  -0.4647  -0.4638  -0.4551  -0.4509
 -0.4496  -0.4425  -0.4226  -0.4207  -0.4148  -0.4073  -0.4031  -0.3827
 -0.3718  -0.3682  -0.3654  -0.3449  -0.3417  -0.3350  -0.3330  -0.3275
 -0.3039  -0.2898  -0.2837  -0.2686  -0.2562  -0.2543  -0.2510  -0.2481
 -0.2449  -0.2343  -0.1414

 Beta MOs
 -- Occupied --
-89.0425 -19.0869 -19.0868 -19.0837 -19.0700 -19.0690 -10.2264 -10.2210
-10.1988 -10.1857 -10.1758 -10.1707 -10.1706 -10.1703 -10.1700 -10.1698
-10.1696 -10.1687 -10.1678 -10.1673  -8.1009  -6.0636  -6.0636  -6.0626
 -1.1035  -1.0013  -0.9882  -0.9723  -0.9633  -0.8584  -0.8490  -0.7793
 -0.7556  -0.7459  -0.7355  -0.6605  -0.6405  -0.6157  -0.6089  -0.5698
 -0.5416  -0.5297  -0.5210  -0.4810  -0.4633  -0.4628  -0.4535  -0.4505
 -0.4495  -0.4420  -0.4204  -0.4095  -0.4093  -0.4055  -0.4006  -0.3706
 -0.3651  -0.3646  -0.3595  -0.3436  -0.3346  -0.3340  -0.3279  -0.3273
 -0.3021  -0.2896  -0.2832  -0.2545  -0.2523  -0.2458  -0.2443  -0.2426
 -0.2400  -0.2293

          Ground-State Mulliken Net Atomic Charges

     Atom                 Charge (a.u.)    Spin (a.u.)
  --------------------------------------------------------
      1 O                    -0.437320      -0.000566
      2 S                     0.676359       0.006572
      3 O                    -0.435904      -0.000491
      4 O                    -0.457888       0.000354
      5 C                    -0.870496       0.011331
      6 C                     0.625392       0.037982
      7 C                    -0.328875       0.033331
      8 C                    -0.454641       0.029857
      9 C                     0.704004       0.028731
     10 C                    -0.409774       0.132824
     11 O                    -0.501924       0.203327
     12 C                    -0.000347      -0.006695
     13 C                     0.046382       0.048500
     14 C                    -0.515225       0.012753
     15 C                    -0.506977       0.057593
     16 C                     0.144626       0.007235
     17 C                     0.313545       0.050912
     18 C                    -0.865008       0.060857
     19 O                    -0.376263       0.207070
     20 C                     0.256704       0.094692
     21 H                     0.250295      -0.003228
     22 H                     0.220010      -0.002238
     23 H                     0.165754      -0.001942
     24 H                     0.177520      -0.002628
     25 H                     0.202006      -0.001482
     26 H                     0.203945      -0.004567
     27 H                     0.174097      -0.000085
  --------------------------------------------------------
  Sum of atomic charges =    -2.000000

                    Cartesian Multipole Moments
 -----------------------------------------------------------------
    Charge (ESU x 10^10)
                -9.6064
    Dipole Moment (Debye)
         X      12.4590      Y      -4.9355      Z       0.0092
       Tot      13.4010
    Quadrupole Moments (Debye-Ang)
        XX    -206.6733     XY      41.3329     YY    -159.9222
        XZ       0.1786     YZ       0.1445     ZZ    -139.6881

 Total job time:  112.30s(wall), 859.41s(cpu)
        *  Thank you very much for using Q-Chem.  Have a nice day.  *
