 Q-Chem 5.4, Q-Chem, Inc., Pleasanton, CA (2021)
 Q-Chem 5.4.0 for Intel X86 EM64T Linux

User input:
--------------------------------------------------------------
$molecule
-2 1
O                 -2.6943580000      2.5240530000     -0.4545760000
C                 -2.6507730000      1.1853820000     -0.2205190000
C                 -3.8268080000      0.4686130000     -0.1002860000
C                 -3.7844330000     -0.9308320000      0.1443300000
C                 -2.5760120000     -1.5822220000      0.2632580000
C                 -1.3459420000     -0.8842470000      0.1466570000
C                 -0.0976280000     -1.6343320000      0.2824320000
O                 -0.1228510000     -2.8866630000      0.4990510000
C                  1.1237450000     -0.8495620000      0.1521430000
C                  2.4275570000     -1.4341140000      0.2616760000
O                  2.5609890000     -2.7998940000      0.5022130000
C                  3.5759230000     -0.6807570000      0.1358170000
C                  3.5175480000      0.7205260000     -0.1082030000
C                  2.3000520000      1.3440520000     -0.2241680000
O                  2.2527400000      2.6878410000     -0.4588220000
C                  1.0680900000      0.5914800000     -0.0997490000
C                 -0.1672000000      1.2728700000     -0.2249770000
O                 -0.2173620000      2.6091210000     -0.4588330000
C                 -1.3703530000      0.5303060000     -0.1005970000
H                 -1.7043040000      2.7981230000     -0.4985130000
H                 -4.7706820000      0.9988020000     -0.1969550000
H                 -4.7178210000     -1.4841680000      0.2369480000
H                 -2.5140910000     -2.6485720000      0.4494760000
H                  3.5109140000     -2.9527780000      0.5548540000
H                  4.5463460000     -1.1717110000      0.2247580000
H                  4.4248000000      1.3095090000     -0.2062240000
H                  1.2519140000      2.8991730000     -0.5011930000
$end

$rem
BASIS  =  6-311++G(d,p)
GUI  =  2
JOB_TYPE  =  SP
METHOD  =  B3LYP
SCF_CONVERGENCE  = 8
SOLVENT_METHOD = sm12
$end

$smx
solvent dimethylformamide
charges CM5
$end

--------------------------------------------------------------

             Standard Nuclear Orientation (Angstroms)
    I     Atom           X                Y                Z
 ----------------------------------------------------------------
    1      O      -2.6943580000     2.5240530000    -0.4545760000
    2      C      -2.6507730000     1.1853820000    -0.2205190000
    3      C      -3.8268080000     0.4686130000    -0.1002860000
    4      C      -3.7844330000    -0.9308320000     0.1443300000
    5      C      -2.5760120000    -1.5822220000     0.2632580000
    6      C      -1.3459420000    -0.8842470000     0.1466570000
    7      C      -0.0976280000    -1.6343320000     0.2824320000
    8      O      -0.1228510000    -2.8866630000     0.4990510000
    9      C       1.1237450000    -0.8495620000     0.1521430000
   10      C       2.4275570000    -1.4341140000     0.2616760000
   11      O       2.5609890000    -2.7998940000     0.5022130000
   12      C       3.5759230000    -0.6807570000     0.1358170000
   13      C       3.5175480000     0.7205260000    -0.1082030000
   14      C       2.3000520000     1.3440520000    -0.2241680000
   15      O       2.2527400000     2.6878410000    -0.4588220000
   16      C       1.0680900000     0.5914800000    -0.0997490000
   17      C      -0.1672000000     1.2728700000    -0.2249770000
   18      O      -0.2173620000     2.6091210000    -0.4588330000
   19      C      -1.3703530000     0.5303060000    -0.1005970000
   20      H      -1.7043040000     2.7981230000    -0.4985130000
   21      H      -4.7706820000     0.9988020000    -0.1969550000
   22      H      -4.7178210000    -1.4841680000     0.2369480000
   23      H      -2.5140910000    -2.6485720000     0.4494760000
   24      H       3.5109140000    -2.9527780000     0.5548540000
   25      H       4.5463460000    -1.1717110000     0.2247580000
   26      H       4.4248000000     1.3095090000    -0.2062240000
   27      H       1.2519140000     2.8991730000    -0.5011930000
 ----------------------------------------------------------------

   18    -914.6996366491      7.28e-09  Convergence criterion met
 Total energy in the final basis set =     -914.9767597590

                    Orbital Energies (a.u.)
 --------------------------------------------------------------

 Alpha MOs
 -- Occupied --
-19.1354 -19.1152 -19.1062 -19.0629 -19.0278 -10.2258 -10.2203 -10.2147
-10.1981 -10.1968 -10.1711 -10.1643 -10.1624 -10.1613 -10.1606 -10.1600
-10.1575 -10.1560 -10.1540  -1.0418  -1.0342  -1.0227  -0.9557  -0.9518
 -0.8408  -0.8271  -0.7738  -0.7302  -0.7291  -0.7172  -0.6592  -0.6297
 -0.6232  -0.5740  -0.5668  -0.5387  -0.5208  -0.5099  -0.4902  -0.4654
 -0.4613  -0.4553  -0.4350  -0.4266  -0.4176  -0.4040  -0.4015  -0.3962
 -0.3860  -0.3773  -0.3754  -0.3650  -0.3555  -0.3524  -0.3490  -0.3403
 -0.3322  -0.3221  -0.3088  -0.2870  -0.2470  -0.2396  -0.2373  -0.2160
 -0.1988  -0.1985  -0.1231

          Ground-State Mulliken Net Atomic Charges

     Atom                 Charge (a.u.)
  ----------------------------------------
      1 O                    -0.292750
      2 C                     0.176017
      3 C                     1.309958
      4 C                     1.059457
      5 C                    -0.582370
      6 C                    -1.143013
      7 C                    -1.711052
      8 O                    -0.325252
      9 C                    -1.190220
     10 C                     0.547921
     11 O                    -0.074183
     12 C                     2.029050
     13 C                     1.365905
     14 C                     0.022219
     15 O                    -0.337346
     16 C                    -1.718357
     17 C                    -1.769466
     18 O                    -0.488588
     19 C                    -1.525576
     20 H                     0.461318
     21 H                     0.297866
     22 H                     0.363963
     23 H                     0.080259
     24 H                     0.379966
     25 H                     0.345338
     26 H                     0.269870
     27 H                     0.449067
  ----------------------------------------
  Sum of atomic charges =    -2.000000

                    Cartesian Multipole Moments
 -----------------------------------------------------------------
    Charge (ESU x 10^10)
                -9.6064
    Dipole Moment (Debye)
         X       2.9462      Y      -0.3587      Z       0.1215
       Tot       2.9704
    Quadrupole Moments (Debye-Ang)
        XX    -158.0357     XY      -4.7445     YY    -174.0528
        XZ       0.7656     YZ       8.8349     ZZ    -124.0865

 Total job time:  725.25s(wall), 5671.98s(cpu)
        *  Thank you very much for using Q-Chem.  Have a nice day.  *
