 Q-Chem 5.4, Q-Chem, Inc., Pleasanton, CA (2021)
 Q-Chem 5.4.0 for Intel X86 EM64T Linux

User input:
--------------------------------------------------------------
$molecule
0 1
C                 -3.2062390000      3.0237620000     -0.2419030000
O                 -1.9031900000      2.5020270000     -0.0211410000
C                 -1.7247970000      1.1622720000      0.0274260000
C                 -2.7838970000      0.2615630000     -0.1103800000
C                 -2.5687440000     -1.1072990000     -0.0826550000
C                 -1.2853240000     -1.6337290000      0.0837750000
O                 -1.0441340000     -2.9644590000      0.0893280000
C                 -2.1231350000     -3.8689170000     -0.1019380000
C                 -0.1911470000     -0.7447730000      0.2271110000
C                  1.1967490000     -1.2836570000      0.4017490000
O                  1.4264070000     -2.4425510000      0.6995510000
C                  2.3299190000     -0.3374850000      0.1834030000
C                  3.6283510000     -0.8422040000      0.0518220000
C                  4.6952710000      0.0279300000     -0.1310180000
C                  4.4778410000      1.4098630000     -0.1577220000
C                  3.1942560000      1.9166870000     -0.0015000000
C                  2.1127310000      1.0430500000      0.1566540000
C                  0.7425570000      1.6030770000      0.3458900000
O                  0.6034420000      2.7866450000      0.5994220000
C                 -0.4117480000      0.6580120000      0.1992050000
H                 -3.0846460000      4.1052620000     -0.2545880000
H                 -3.8925510000      2.7476610000      0.5659770000
H                 -3.6165220000      2.6931460000     -1.2025840000
H                 -3.7939700000      0.6226200000     -0.2431000000
H                 -3.4186170000     -1.7656130000     -0.1946950000
H                 -2.8659450000     -3.7844430000      0.6987050000
H                 -1.6757480000     -4.8606580000     -0.0722210000
H                 -2.6091750000     -3.7187530000     -1.0723870000
H                  3.7748030000     -1.9141450000      0.0971310000
H                  5.6993230000     -0.3644530000     -0.2471780000
H                  5.3136370000      2.0868370000     -0.2945800000
H                  3.0042420000      2.9827250000      0.0024420000
$end
$rem
MAX_SCF_CYCLES=200
BASIS  =  6-311++G(d,p)
GUI  =  2
JOB_TYPE  =  SP
METHOD  =  B3LYP
SOLVENT_METHOD = PCM
$end
$pcm
theory = CPCM
$end
$solvent
dielectric 37.219
opticaldielectric 1.43
$end

--------------------------------------------------------------

             Standard Nuclear Orientation (Angstroms)
    I     Atom           X                Y                Z
 ----------------------------------------------------------------
    1      C      -3.2062390000     3.0237620000    -0.2419030000
    2      O      -1.9031900000     2.5020270000    -0.0211410000
    3      C      -1.7247970000     1.1622720000     0.0274260000
    4      C      -2.7838970000     0.2615630000    -0.1103800000
    5      C      -2.5687440000    -1.1072990000    -0.0826550000
    6      C      -1.2853240000    -1.6337290000     0.0837750000
    7      O      -1.0441340000    -2.9644590000     0.0893280000
    8      C      -2.1231350000    -3.8689170000    -0.1019380000
    9      C      -0.1911470000    -0.7447730000     0.2271110000
   10      C       1.1967490000    -1.2836570000     0.4017490000
   11      O       1.4264070000    -2.4425510000     0.6995510000
   12      C       2.3299190000    -0.3374850000     0.1834030000
   13      C       3.6283510000    -0.8422040000     0.0518220000
   14      C       4.6952710000     0.0279300000    -0.1310180000
   15      C       4.4778410000     1.4098630000    -0.1577220000
   16      C       3.1942560000     1.9166870000    -0.0015000000
   17      C       2.1127310000     1.0430500000     0.1566540000
   18      C       0.7425570000     1.6030770000     0.3458900000
   19      O       0.6034420000     2.7866450000     0.5994220000
   20      C      -0.4117480000     0.6580120000     0.1992050000
   21      H      -3.0846460000     4.1052620000    -0.2545880000
   22      H      -3.8925510000     2.7476610000     0.5659770000
   23      H      -3.6165220000     2.6931460000    -1.2025840000
   24      H      -3.7939700000     0.6226200000    -0.2431000000
   25      H      -3.4186170000    -1.7656130000    -0.1946950000
   26      H      -2.8659450000    -3.7844430000     0.6987050000
   27      H      -1.6757480000    -4.8606580000    -0.0722210000
   28      H      -2.6091750000    -3.7187530000    -1.0723870000
   29      H       3.7748030000    -1.9141450000     0.0971310000
   30      H       5.6993230000    -0.3644530000    -0.2471780000
   31      H       5.3136370000     2.0868370000    -0.2945800000
   32      H       3.0042420000     2.9827250000     0.0024420000
 ----------------------------------------------------------------

    8    -918.0663459145      5.66e-06  Convergence criterion met
 Total energy in the final basis set =     -918.0663459145

                    Orbital Energies (a.u.)
 --------------------------------------------------------------

 Alpha MOs
 -- Occupied --
-19.1661 -19.1661 -19.1233 -19.1233 -10.2793 -10.2793 -10.2587 -10.2586
-10.2220 -10.2220 -10.2105 -10.2100 -10.2024 -10.2019 -10.1962 -10.1956
-10.1933 -10.1929 -10.1924 -10.1923  -1.0877  -1.0865  -1.0600  -1.0584
 -0.8893  -0.8764  -0.8104  -0.7840  -0.7732  -0.7717  -0.7280  -0.6952
 -0.6877  -0.6582  -0.6435  -0.6044  -0.5806  -0.5618  -0.5598  -0.5279
 -0.5231  -0.5068  -0.4888  -0.4856  -0.4832  -0.4758  -0.4569  -0.4565
 -0.4500  -0.4488  -0.4449  -0.4392  -0.4233  -0.4147  -0.4142  -0.4052
 -0.3967  -0.3777  -0.3712  -0.3652  -0.3605  -0.3534  -0.3463  -0.3125
 -0.2881  -0.2771  -0.2754  -0.2715  -0.2611  -0.2274

          Ground-State Mulliken Net Atomic Charges

     Atom                 Charge (a.u.)
  ----------------------------------------
      1 C                    -0.343331
      2 O                    -0.149653
      3 C                    -0.423197
      4 C                     0.034396
      5 C                     0.035314
      6 C                    -0.420891
      7 O                    -0.149526
      8 C                    -0.344137
      9 C                     0.077849
     10 C                    -0.327439
     11 O                    -0.309791
     12 C                     0.440918
     13 C                     0.167581
     14 C                    -0.395040
     15 C                    -0.394530
     16 C                     0.162920
     17 C                     0.434099
     18 C                    -0.337165
     19 O                    -0.310060
     20 C                     0.081302
     21 H                     0.213216
     22 H                     0.177548
     23 H                     0.173709
     24 H                     0.250933
     25 H                     0.250391
     26 H                     0.177590
     27 H                     0.213283
     28 H                     0.173973
     29 H                     0.197997
     30 H                     0.221870
     31 H                     0.221842
     32 H                     0.198029
  ----------------------------------------
  Sum of atomic charges =     0.000000

                    Cartesian Multipole Moments
 -----------------------------------------------------------------
    Charge (ESU x 10^10)
                -0.0000
    Dipole Moment (Debye)
         X      -5.1748      Y      -0.8681      Z      -2.7865
       Tot       5.9411
    Quadrupole Moments (Debye-Ang)
        XX     -71.6091     XY       7.5906     YY    -118.7723
        XZ      -1.0501     YZ      -0.1709     ZZ    -119.0264

 Total job time:  73.73s(wall), 443.12s(cpu)
        *  Thank you very much for using Q-Chem.  Have a nice day.  *
