 Gaussian 16, Revision A.03,
 Gaussian 16:  ES64L-G16RevA.03 25-Dec-2016

 ----------------------------------------------------------------
 #P UB3LYP/6-311++G(d,p) SCRF=(PCM,Solvent=n,n-DiMethylFormamide)
 ----------------------------------------------------------------

 -------
 Reduced
 -------
 Symbolic Z-matrix:
 Charge = -2 Multiplicity = 1

                         Standard orientation:
 ---------------------------------------------------------------------
 Center     Atomic      Atomic             Coordinates (Angstroms)
 Number     Number       Type             X           Y           Z
 ---------------------------------------------------------------------
      1         17           0        1.603332   -1.734626    0.000053
      2          6           0        0.706902   -0.177503   -0.000094
      3          6           0       -0.706462   -0.176724   -0.000087
      4         17           0       -1.604774   -1.733718    0.000004
      5          6           0       -1.513805    1.007939   -0.000161
      6          8           0       -2.805399    1.032804    0.000112
      7          6           0       -0.695090    2.185358    0.000036
      8          6           0        0.696498    2.184921    0.000028
      9          6           0        1.514590    1.006983   -0.000193
     10          8           0        2.806170    1.031032    0.000069
     11          1           0       -1.234064    3.133184    0.000214
     12          1           0        1.236617    3.132140    0.000199
 ---------------------------------------------------------------------

 SCF Done:  E(UB3LYP) =  -1301.08703699     A.U. after   16 cycles

 The electronic state is 1-A.
 Alpha  occ. eigenvalues -- -101.52983-101.52976 -19.02309 -19.02308 -10.19488
 Alpha  occ. eigenvalues --  -10.19442 -10.18599 -10.18597 -10.13479 -10.13424
 Alpha  occ. eigenvalues --   -9.44410  -9.44403  -7.20817  -7.20809  -7.19947
 Alpha  occ. eigenvalues --   -7.19940  -7.19878  -7.19871  -0.94117  -0.93679
 Alpha  occ. eigenvalues --   -0.85276  -0.81424  -0.77650  -0.68592  -0.65726
 Alpha  occ. eigenvalues --   -0.56059  -0.53937  -0.45427  -0.43848  -0.41896
 Alpha  occ. eigenvalues --   -0.38773  -0.38644  -0.36826  -0.34838  -0.34002
 Alpha  occ. eigenvalues --   -0.33584  -0.32016  -0.30380  -0.30003  -0.28115
 Alpha  occ. eigenvalues --   -0.23281  -0.21503  -0.20511  -0.20503  -0.12944
 Alpha virt. eigenvalues --   -0.00149   0.00952   0.01149   0.02371   0.03689
 Alpha virt. eigenvalues --    0.04109   0.05476   0.05621   0.06648   0.06759
 Alpha virt. eigenvalues --    0.07380   0.08311   0.08985   0.09030   0.09606

  Beta  occ. eigenvalues -- -101.52983-101.52976 -19.02309 -19.02308 -10.19488
  Beta  occ. eigenvalues --  -10.19442 -10.18599 -10.18597 -10.13479 -10.13424
  Beta  occ. eigenvalues --   -9.44410  -9.44403  -7.20817  -7.20809  -7.19947
  Beta  occ. eigenvalues --   -7.19940  -7.19878  -7.19871  -0.94117  -0.93679
  Beta  occ. eigenvalues --   -0.85276  -0.81424  -0.77650  -0.68592  -0.65726
  Beta  occ. eigenvalues --   -0.56059  -0.53937  -0.45427  -0.43848  -0.41896
  Beta  occ. eigenvalues --   -0.38773  -0.38644  -0.36826  -0.34838  -0.34002
  Beta  occ. eigenvalues --   -0.33584  -0.32016  -0.30380  -0.30003  -0.28115
  Beta  occ. eigenvalues --   -0.23281  -0.21503  -0.20511  -0.20503  -0.12944
  Beta virt. eigenvalues --   -0.00149   0.00952   0.01149   0.02371   0.03689
  Beta virt. eigenvalues --    0.04109   0.05476   0.05621   0.06648   0.06759
  Beta virt. eigenvalues --    0.07380   0.08311   0.08985   0.09030   0.09606

 Mulliken charges and spin densities:
               1          2
     1  Cl   0.170225   0.000000
     2  C    0.505359  -0.000000
     3  C    0.505817   0.000000
     4  Cl   0.169762  -0.000000
     5  C   -1.019217  -0.000000
     6  O   -0.668197   0.000000
     7  C   -0.139458   0.000000
     8  C   -0.139228  -0.000000
     9  C   -1.017743   0.000000
    10  O   -0.668204  -0.000000
    11  H    0.150448   0.000000
    12  H    0.150435   0.000000
 Sum of Mulliken charges =  -2.00000   0.00000

 Dipole moment (field-independent basis, Debye):
    X=              0.0022    Y=             -4.3594    Z=             -0.0003  Tot=              4.3594
 Quadrupole moment (field-independent basis, Debye-Ang):
   XX=           -143.5601   YY=            -92.7255   ZZ=            -79.5247
   XY=              0.0084   XZ=              0.0004   YZ=              0.0002

 Normal termination of Gaussian 16 at Sun Jan 21 07:31:57 2024.
