 Q-Chem 5.4, Q-Chem, Inc., Pleasanton, CA (2021)
 Q-Chem 5.4.0 for Intel X86 EM64T Linux

User input:
--------------------------------------------------------------
$molecule
-2 1
C                 -1.0931450000     -1.9159570000      3.4881830000
C                  0.0282040000     -2.5045100000      2.8076590000
C                  0.0496330000     -2.5718360000      1.4082770000
C                 -1.0088340000     -2.1053300000      0.5569530000
C                 -2.1226470000     -1.5351560000      1.2596170000
C                 -2.1578290000     -1.4267760000      2.6458080000
O                 -1.1988960000     -1.8089510000      4.7909750000
O                 -0.9679670000     -2.2151300000     -0.7294770000
N                 -3.2760620000     -0.8865530000      3.3671340000
C                 -3.5612530000      0.5755350000      3.3032150000
C                 -4.4957320000      0.8821790000      4.4872420000
C                 -4.2884570000      0.9336140000      1.9960240000
C                 -2.2824110000      1.4333650000      3.4317700000
H                 -2.9771860000     -1.2305970000      0.6624300000
H                 -3.0211000000     -1.0944680000      4.3381360000
H                 -4.0013760000      0.6557830000      5.4381400000
H                 -5.4038880000      0.2737150000      4.4210050000
H                 -4.7874280000      1.9390070000      4.5024960000
H                 -5.1782950000      0.3070230000      1.8767820000
H                 -3.6398980000      0.7718570000      1.1333830000
H                 -4.5971340000      1.9870240000      2.0028250000
H                 -1.7532340000      1.1816490000      4.3553580000
H                 -2.5232040000      2.5052090000      3.4384420000
H                 -1.6073240000      1.2300610000      2.5965070000
C                  1.2034400000     -3.0365010000      3.6556470000
C                  0.6926770000     -4.1425300000      4.6121570000
C                  2.3419040000     -3.6385670000      2.8090650000
C                  1.8010470000     -1.8809620000      4.4952550000
H                  0.8923480000     -3.0147380000      0.8861960000
H                 -0.1212060000     -3.7418680000      5.2195820000
H                  1.5030380000     -4.5002630000      5.2673390000
H                  0.3178410000     -4.9956820000      4.0349460000
H                  1.9950110000     -4.4857600000      2.2092920000
H                  3.1416930000     -3.9950640000      3.4726750000
H                  2.7716440000     -2.8998510000      2.1256420000
H                  1.0109130000     -1.4298550000      5.0988930000
H                  2.2234920000     -1.1150820000      3.8346320000
H                  2.6044490000     -2.2476570000      5.1535450000
$end
$rem
MAX_SCF_CYCLES=200
BASIS  =  6-311++G(d,p)
GUI  =  2
JOB_TYPE  =  SP
METHOD  =  B3LYP
SOLVENT_METHOD = PCM
$end
$pcm
theory = CPCM
$end
$solvent
dielectric 37.219
opticaldielectric 1.43
$end

--------------------------------------------------------------

             Standard Nuclear Orientation (Angstroms)
    I     Atom           X                Y                Z
 ----------------------------------------------------------------
    1      C      -1.0931450000    -1.9159570000     3.4881830000
    2      C       0.0282040000    -2.5045100000     2.8076590000
    3      C       0.0496330000    -2.5718360000     1.4082770000
    4      C      -1.0088340000    -2.1053300000     0.5569530000
    5      C      -2.1226470000    -1.5351560000     1.2596170000
    6      C      -2.1578290000    -1.4267760000     2.6458080000
    7      O      -1.1988960000    -1.8089510000     4.7909750000
    8      O      -0.9679670000    -2.2151300000    -0.7294770000
    9      N      -3.2760620000    -0.8865530000     3.3671340000
   10      C      -3.5612530000     0.5755350000     3.3032150000
   11      C      -4.4957320000     0.8821790000     4.4872420000
   12      C      -4.2884570000     0.9336140000     1.9960240000
   13      C      -2.2824110000     1.4333650000     3.4317700000
   14      H      -2.9771860000    -1.2305970000     0.6624300000
   15      H      -3.0211000000    -1.0944680000     4.3381360000
   16      H      -4.0013760000     0.6557830000     5.4381400000
   17      H      -5.4038880000     0.2737150000     4.4210050000
   18      H      -4.7874280000     1.9390070000     4.5024960000
   19      H      -5.1782950000     0.3070230000     1.8767820000
   20      H      -3.6398980000     0.7718570000     1.1333830000
   21      H      -4.5971340000     1.9870240000     2.0028250000
   22      H      -1.7532340000     1.1816490000     4.3553580000
   23      H      -2.5232040000     2.5052090000     3.4384420000
   24      H      -1.6073240000     1.2300610000     2.5965070000
   25      C       1.2034400000    -3.0365010000     3.6556470000
   26      C       0.6926770000    -4.1425300000     4.6121570000
   27      C       2.3419040000    -3.6385670000     2.8090650000
   28      C       1.8010470000    -1.8809620000     4.4952550000
   29      H       0.8923480000    -3.0147380000     0.8861960000
   30      H      -0.1212060000    -3.7418680000     5.2195820000
   31      H       1.5030380000    -4.5002630000     5.2673390000
   32      H       0.3178410000    -4.9956820000     4.0349460000
   33      H       1.9950110000    -4.4857600000     2.2092920000
   34      H       3.1416930000    -3.9950640000     3.4726750000
   35      H       2.7716440000    -2.8998510000     2.1256420000
   36      H       1.0109130000    -1.4298550000     5.0988930000
   37      H       2.2234920000    -1.1150820000     3.8346320000
   38      H       2.6044490000    -2.2476570000     5.1535450000
 ----------------------------------------------------------------

    9    -751.7860517873      5.76e-06  Convergence criterion met
 Total energy in the final basis set =     -751.7860517873

                    Orbital Energies (a.u.)
 --------------------------------------------------------------

 Alpha MOs
 -- Occupied --
-19.0120 -19.0086 -14.2711 -10.1927 -10.1623 -10.1592 -10.1550 -10.1467
-10.1443 -10.1402 -10.1395 -10.1366 -10.1301 -10.1298 -10.1245 -10.1088
-10.1073  -0.9286  -0.9243  -0.8784  -0.7972  -0.7733  -0.7417  -0.6813
 -0.6712  -0.6686  -0.6628  -0.6586  -0.6280  -0.5704  -0.5418  -0.5144
 -0.4929  -0.4579  -0.4465  -0.4302  -0.4285  -0.4247  -0.4153  -0.4139
 -0.4022  -0.3951  -0.3797  -0.3735  -0.3661  -0.3645  -0.3542  -0.3520
 -0.3483  -0.3439  -0.3370  -0.3297  -0.3237  -0.3217  -0.3085  -0.3069
 -0.3047  -0.2980  -0.2912  -0.2463  -0.2144  -0.1940  -0.1877  -0.1814
 -0.1093

          Ground-State Mulliken Net Atomic Charges

     Atom                 Charge (a.u.)
  ----------------------------------------
      1 C                    -1.031795
      2 C                     0.796456
      3 C                    -0.562818
      4 C                    -0.474994
      5 C                     0.065890
      6 C                     0.372211
      7 O                    -0.690084
      8 O                    -0.769717
      9 N                    -0.002402
     10 C                     0.044228
     11 C                    -0.521788
     12 C                    -0.575767
     13 C                    -0.513292
     14 H                     0.133967
     15 H                     0.263452
     16 H                     0.149468
     17 H                     0.147077
     18 H                     0.144636
     19 H                     0.151327
     20 H                     0.144798
     21 H                     0.139701
     22 H                     0.149460
     23 H                     0.164129
     24 H                     0.143263
     25 C                     0.632912
     26 C                    -0.706627
     27 C                    -0.502663
     28 C                    -0.719322
     29 H                     0.138293
     30 H                     0.171999
     31 H                     0.135520
     32 H                     0.128006
     33 H                     0.129178
     34 H                     0.161801
     35 H                     0.131257
     36 H                     0.172818
     37 H                     0.125172
     38 H                     0.134248
  ----------------------------------------
  Sum of atomic charges =    -2.000000

                    Cartesian Multipole Moments
 -----------------------------------------------------------------
    Charge (ESU x 10^10)
                -9.6064
    Dipole Moment (Debye)
         X      11.1661      Y      20.3135      Z     -18.2778
       Tot      29.5194
    Quadrupole Moments (Debye-Ang)
        XX    -140.8090     XY     -23.0090     YY    -160.3097
        XZ      23.2342     YZ      36.3427     ZZ    -211.6365

 Total job time:  91.74s(wall), 581.16s(cpu)
        *  Thank you very much for using Q-Chem.  Have a nice day.  *
