 Q-Chem 5.4, Q-Chem, Inc., Pleasanton, CA (2021)
 Q-Chem 5.4.0 for Intel X86 EM64T Linux

User input:
--------------------------------------------------------------
$molecule
-2 1
C                 -3.4363880000      1.7603730000      0.5269850000
C                 -4.0063980000      1.4909060000     -0.7642990000
C                 -3.5934690000      0.4452350000     -1.5674620000
C                 -2.5527780000     -0.4643710000     -1.1825750000
C                 -1.9638120000     -0.2076600000      0.1173650000
C                 -2.3764700000      0.8529860000      0.9299780000
O                 -3.8446960000      2.7313650000      1.2657160000
O                 -2.1727790000     -1.4399990000     -1.9338780000
C                 -1.7493180000      1.1086070000      2.2813050000
C                 -0.9148990000     -1.2066250000      0.5813220000
C                  0.5277160000     -0.8895080000      0.2208080000
C                  0.9127070000     -0.7206260000     -1.1170170000
C                  1.5282130000     -0.7973950000      1.1950520000
C                  2.8608340000     -0.5522130000      0.8580500000
C                  2.2447990000     -0.4797020000     -1.4494570000
C                  3.2489570000     -0.3908770000     -0.4753490000
C                  4.6985660000     -0.1289570000     -0.8666370000
C                  5.2133150000      1.2217090000     -0.3334150000
C                  5.6371070000     -1.2753110000     -0.4450370000
H                 -4.7986460000      2.1621580000     -1.0927670000
H                 -4.0548310000      0.2744130000     -2.5389860000
H                 -0.6577060000      1.2028050000      2.2235360000
H                 -1.9614120000      0.3029220000      3.0012500000
H                 -2.1666020000      2.0351150000      2.6818010000
H                 -1.1657570000     -2.1594720000      0.0987360000
H                 -0.9735960000     -1.3484020000      1.6660980000
H                  0.1458060000     -0.8030660000     -1.8813300000
H                  1.2589780000     -0.9181530000      2.2412540000
H                  3.6027560000     -0.4877690000      1.6501860000
H                  2.5158110000     -0.3590110000     -2.4961370000
H                  4.7238990000     -0.0754320000     -1.9620520000
H                  4.5682000000      2.0433100000     -0.6597750000
H                  6.2324710000      1.4219670000     -0.6852510000
H                  5.2353430000      1.2319560000      0.7613050000
H                  5.2928020000     -2.2328010000     -0.8494550000
H                  5.6825150000     -1.3725250000      0.6450350000
H                  6.6590110000     -1.1022820000     -0.8004420000
$end
$rem
MAX_SCF_CYCLES=200
BASIS  =  6-311++G(d,p)
GUI  =  2
JOB_TYPE  =  SP
METHOD  =  B3LYP
SOLVENT_METHOD = COSMO
$end
$solvent
dielectric 37.219
opticaldielectric 1.43
$end

--------------------------------------------------------------

             Standard Nuclear Orientation (Angstroms)
    I     Atom           X                Y                Z
 ----------------------------------------------------------------
    1      C       3.8428680585    -0.9593999080    -0.6272165496
    2      C       4.2876689786     0.3183767972    -1.1113416017
    3      C       3.6619305057     1.5068846138    -0.7874441841
    4      C       2.5065267304     1.5691381814     0.0609221548
    5      C       2.0414090187     0.2889828472     0.5584091644
    6      C       2.6699077308    -0.9157716381     0.2280268872
    7      O       4.4480082454    -2.0537734135    -0.9295679375
    8      O       1.9277836829     2.6803516279     0.3625288417
    9      C       2.1698523713    -2.2422173317     0.7526532754
   10      C       0.8673181005     0.3374658847     1.5241035061
   11      C      -0.5195393836     0.2409017712     0.9084954613
   12      C      -0.9440112468     1.1688134536    -0.0534392962
   13      C      -1.4352523851    -0.7407882069     1.3039507798
   14      C      -2.7245779799    -0.7994128112     0.7712539080
   15      C      -2.2332771210     1.1090230368    -0.5799831554
   16      C      -3.1531515687     0.1288049595    -0.1823487925
   17      C      -4.5578272282     0.0877102473    -0.7724946680
   18      C      -4.8090995069    -1.1900611892    -1.5957523893
   19      C      -5.6502726712     0.2705838878     0.2979507757
   20      H       5.1617406069     0.3117566457    -1.7610202378
   21      H       4.0339214605     2.4545907524    -1.1739279970
   22      H       1.1078957303    -2.4052772909     0.5301969396
   23      H       2.2834995779    -2.3312240458     1.8442553569
   24      H       2.7577345471    -3.0368662910     0.2880376971
   25      H       0.9281915309     1.3087510349     2.0306960162
   26      H       0.9611837846    -0.4483110680     2.2817504158
   27      H      -0.2450459962     1.9422310262    -0.3573812249
   28      H      -1.1327519114    -1.4774534795     2.0438334355
   29      H      -3.4004323929    -1.5814071564     1.1085762793
   30      H      -2.5375643628     1.8458589949    -1.3202769412
   31      H      -4.6342057449     0.9374075583    -1.4621478494
   32      H      -4.0545831699    -1.3055310541    -2.3800254435
   33      H      -5.7981995806    -1.1662604969    -2.0687062572
   34      H      -4.7687076522    -2.0824996487    -0.9625666297
   35      H      -5.4938810935     1.1947775770     0.8638965781
   36      H      -5.6511340804    -0.5598537326     1.0121930526
   37      H      -6.6468310982     0.3124773877    -0.1555420801
 ----------------------------------------------------------------

   58    -809.2934293204      9.41e-06  Convergence criterion met
 Total energy in the final basis set =     -809.2934293204
    6    -809.5682020259      3.72e-06  Convergence criterion met
 Total energy in the final basis set =     -809.5682020259

                    Orbital Energies (a.u.)
 --------------------------------------------------------------

 Alpha MOs
 -- Occupied --
-19.0141 -19.0135 -10.1720 -10.1682 -10.1663 -10.1627 -10.1623 -10.1617
-10.1607 -10.1600 -10.1539 -10.1514 -10.1513 -10.1449 -10.1320 -10.1250
-10.1243 -10.1157 -10.1151  -0.9335  -0.9302  -0.8517  -0.7997  -0.7806
 -0.7449  -0.7335  -0.7208  -0.6849  -0.6770  -0.6353  -0.6207  -0.6005
 -0.5880  -0.5529  -0.5298  -0.5108  -0.4834  -0.4636  -0.4449  -0.4378
 -0.4244  -0.4214  -0.4167  -0.4083  -0.4045  -0.3953  -0.3886  -0.3800
 -0.3764  -0.3641  -0.3597  -0.3543  -0.3523  -0.3472  -0.3387  -0.3329
 -0.3304  -0.3182  -0.3168  -0.3107  -0.3073  -0.2986  -0.2465  -0.2298
 -0.2240  -0.2013  -0.1973  -0.1907  -0.1121

          Ground-State Mulliken Net Atomic Charges

     Atom                 Charge (a.u.)
  ----------------------------------------
      1 C                    -0.590047
      2 C                    -0.161304
      3 C                    -0.302450
      4 C                    -0.465389
      5 C                     0.675819
      6 C                     0.281583
      7 O                    -0.781883
      8 O                    -0.743287
      9 C                    -0.672540
     10 C                    -0.074226
     11 C                     0.929053
     12 C                    -0.784791
     13 C                    -0.295154
     14 C                    -0.569680
     15 C                    -0.698926
     16 C                     0.572852
     17 C                     0.125456
     18 C                    -0.716253
     19 C                    -0.705949
     20 H                     0.136895
     21 H                     0.139770
     22 H                     0.146396
     23 H                     0.147197
     24 H                     0.164024
     25 H                     0.182170
     26 H                     0.188082
     27 H                     0.184716
     28 H                     0.169554
     29 H                     0.194437
     30 H                     0.199619
     31 H                     0.188672
     32 H                     0.147761
     33 H                     0.160248
     34 H                     0.161444
     35 H                     0.146243
     36 H                     0.159683
     37 H                     0.160206
  ----------------------------------------
  Sum of atomic charges =    -2.000000

                    Cartesian Multipole Moments
 -----------------------------------------------------------------
    Charge (ESU x 10^10)
                -9.6064
    Dipole Moment (Debye)
         X     -29.8692      Y      -2.7858      Z       2.8744
       Tot      30.1363
    Quadrupole Moments (Debye-Ang)
        XX    -233.2243     XY      15.6814     YY    -170.1465
        XZ      19.3788     YZ     -14.8179     ZZ    -128.7459

 Total job time:  360.42s(wall), 2821.93s(cpu)
        *  Thank you very much for using Q-Chem.  Have a nice day.  *
