 Gaussian 16, Revision A.03,
 Gaussian 16:  ES64L-G16RevA.03 25-Dec-2016

 ----------------------------------------------------------------------
 #P UB3LYP/6-311++G(d,p) nosym opt freq SCRF=(PCM,Solvent=n,n-DiMethylF
 ormamide)
 ----------------------------------------------------------------------

 -------
 Radical
 -------
 Symbolic Z-matrix:
 Charge = -1 Multiplicity = 2

 SCF Done:  E(UB3LYP) =  -1379.62812819     A.U. after   19 cycles
 SCF Done:  E(UB3LYP) =  -1379.62832175     A.U. after   14 cycles
 SCF Done:  E(UB3LYP) =  -1379.62834816     A.U. after   15 cycles
 SCF Done:  E(UB3LYP) =  -1379.62834952     A.U. after   11 cycles
 SCF Done:  E(UB3LYP) =  -1379.62835001     A.U. after   10 cycles
 Optimization completed.
    -- Stationary point found.
 Normal termination of Gaussian 16 at Sat Feb 10 10:16:31 2024.

 ----------------------------------------------------------------------
 #P Geom=AllCheck Guess=TCheck SCRF=Check GenChk UB3LYP/6-311++G(d,p) F
 req
 ----------------------------------------------------------------------

 Structure from the checkpoint file:  "017-rad.chk"
 -------
 Radical
 -------
 Charge = -1 Multiplicity = 2

                          Input orientation:
 ---------------------------------------------------------------------
 Center     Atomic      Atomic             Coordinates (Angstroms)
 Number     Number       Type             X           Y           Z
 ---------------------------------------------------------------------
      1          6           0        2.556255   -0.890176   -0.134247
      2          6           0        1.255967   -0.146802    0.003439
      3          6           0        1.195631    1.185502    0.318508
      4         17           0        2.698013    2.087155    0.580100
      5          6           0       -0.023585    1.959791    0.464163
      6          8           0       -0.038160    3.183174    0.750026
      7          6           0       -1.224171    1.174170    0.243569
      8          6           0       -1.252378   -0.158385   -0.075091
      9          6           0       -2.534564   -0.913491   -0.294579
     10          6           0        0.010609   -0.880792   -0.208922
     11          8           0        0.025592   -2.111749   -0.501130
     12         17           0       -2.748132    2.061744    0.412858
     13          1           0        3.132526   -0.857078    0.795384
     14          1           0        2.358978   -1.929716   -0.388730
     15          1           0        3.184773   -0.448665   -0.913627
     16          1           0       -3.168731   -0.886430    0.596742
     17          1           0       -3.116509   -0.477257   -1.112169
     18          1           0       -2.312115   -1.950994   -0.536295
 ---------------------------------------------------------------------

 SCF Done:  E(UB3LYP) =  -1379.62835001     A.U. after    1 cycles

 Alpha  occ. eigenvalues -- -101.54861-101.54861 -19.08625 -19.08518 -10.24020
 Alpha  occ. eigenvalues --  -10.23132 -10.22450 -10.22448 -10.18679 -10.18677
 Alpha  occ. eigenvalues --  -10.16030 -10.16030  -9.46322  -9.46321  -7.22742
 Alpha  occ. eigenvalues --   -7.22742  -7.21855  -7.21854  -7.21767  -7.21767
 Alpha  occ. eigenvalues --   -1.01443  -1.00770  -0.87883  -0.86702  -0.80575
 Alpha  occ. eigenvalues --   -0.77070  -0.72785  -0.66903  -0.66114  -0.56962
 Alpha  occ. eigenvalues --   -0.56717  -0.51499  -0.46783  -0.44639  -0.43529
 Alpha  occ. eigenvalues --   -0.41835  -0.41726  -0.41661  -0.40938  -0.40251
 Alpha  occ. eigenvalues --   -0.39146  -0.37507  -0.36750  -0.35972  -0.35134
 Alpha  occ. eigenvalues --   -0.33318  -0.31639  -0.30823  -0.27698  -0.25797
 Alpha  occ. eigenvalues --   -0.24804  -0.24270  -0.16949
 Alpha virt. eigenvalues --   -0.01497  -0.01131   0.00793   0.01203   0.02190
 Alpha virt. eigenvalues --    0.02622   0.03052   0.03461   0.04020   0.04629
 Alpha virt. eigenvalues --    0.05094   0.05476   0.06751   0.06765   0.07871

  Beta  occ. eigenvalues -- -101.54858-101.54858 -19.07985 -19.07779 -10.23868
  Beta  occ. eigenvalues --  -10.22992 -10.22371 -10.22369 -10.18543 -10.18540
  Beta  occ. eigenvalues --  -10.16040 -10.16040  -9.46319  -9.46319  -7.22746
  Beta  occ. eigenvalues --   -7.22746  -7.21840  -7.21840  -7.21766  -7.21766
  Beta  occ. eigenvalues --   -1.00348  -0.99479  -0.87539  -0.86615  -0.80205
  Beta  occ. eigenvalues --   -0.76880  -0.72367  -0.66779  -0.65332  -0.56603
  Beta  occ. eigenvalues --   -0.56299  -0.51292  -0.46431  -0.43635  -0.43078
  Beta  occ. eigenvalues --   -0.41762  -0.41481  -0.41438  -0.40474  -0.39065
  Beta  occ. eigenvalues --   -0.38931  -0.36505  -0.35824  -0.35127  -0.34963
  Beta  occ. eigenvalues --   -0.32180  -0.31596  -0.30779  -0.25175  -0.24958
  Beta  occ. eigenvalues --   -0.24152  -0.23617
  Beta virt. eigenvalues --   -0.09804  -0.01066  -0.00069   0.00806   0.01270
  Beta virt. eigenvalues --    0.02673   0.03074   0.03312   0.04055   0.04649
  Beta virt. eigenvalues --    0.04889   0.05159   0.05498   0.06755   0.06868

 Mulliken charges and spin densities:
               1          2
     1  C   -0.632464   0.001785
     2  C    0.623308   0.097222
     3  C    0.213872   0.040014
     4  Cl   0.364691   0.003840
     5  C   -1.102016   0.104484
     6  O   -0.396970   0.232243
     7  C    0.214533   0.040012
     8  C    0.622925   0.097251
     9  C   -0.632379   0.001785
    10  C   -1.206763   0.096277
    11  O   -0.443256   0.267512
    12  Cl   0.364622   0.003838
    13  H    0.164397   0.004440
    14  H    0.176087  -0.002011
    15  H    0.164441   0.004438
    16  H    0.164294   0.004439
    17  H    0.164548   0.004441
    18  H    0.176129  -0.002010
 Sum of Mulliken charges =  -1.00000   1.00000

 Dipole moment (field-independent basis, Debye):
    X=              0.0729    Y=             -6.0769    Z=             -1.4370  Tot=              6.2449
 Quadrupole moment (field-independent basis, Debye-Ang):
   XX=            -93.1809   YY=           -130.2449   ZZ=            -89.0434
   XY=              0.4945   XZ=             -0.0747   YZ=            -10.3234

  Exact polarizability: 224.605  -1.404 267.743   3.226  38.544 114.613
 Approx polarizability: 224.654  -1.843 313.259   2.686  45.835 130.971

                      1                      2                      3
                      A                      A                      A
 Frequencies --     79.7532                81.9428                92.3052
 Red. masses --      7.0244                 1.7396                 1.4305
 Frc consts  --      0.0263                 0.0069                 0.0072
 IR Inten    --     12.2972                 0.0040                 2.2168

                      4                      5                      6
                      A                      A                      A
 Frequencies --    106.5592               130.7102               191.1124
 Red. masses --      1.3483                 3.5959                 5.4642
 Frc consts  --      0.0090                 0.0362                 0.1176
 IR Inten    --      0.0470                 4.3584                 2.0952

                      7                      8                      9
                      A                      A                      A
 Frequencies --    206.9232               255.1659               297.7871
 Red. masses --     22.9649                 7.0132                 3.0467
 Frc consts  --      0.5793                 0.2690                 0.1592
 IR Inten    --      1.1439                 1.5418                 8.2526

                     10                     11                     12
                      A                      A                      A
 Frequencies --    307.2437               309.0801               367.9328
 Red. masses --      9.2737                 5.4669                 9.1229
 Frc consts  --      0.5158                 0.3077                 0.7276
 IR Inten    --      0.8809                 0.0052                 0.1394

                     13                     14                     15
                      A                      A                      A
 Frequencies --    377.5718               399.2275               411.4951
 Red. masses --      5.1205                 7.1769                 7.8765
 Frc consts  --      0.4301                 0.6740                 0.7858
 IR Inten    --      1.0122                 0.0953                29.4545

                     16                     17                     18
                      A                      A                      A
 Frequencies --    492.7323               541.0559               585.4822
 Red. masses --     12.4848                 5.6533                 5.3094
 Frc consts  --      1.7859                 0.9751                 1.0723
 IR Inten    --      0.0014                 0.0018                19.7661

                     19                     20                     21
                      A                      A                      A
 Frequencies --    697.1396               703.5712               715.2296
 Red. masses --      4.3232                 7.8220                11.6596
 Frc consts  --      1.2379                 2.2813                 3.5142
 IR Inten    --      7.3847                17.2842               177.9700

                     22                     23                     24
                      A                      A                      A
 Frequencies --    740.8761               863.8075               979.5638
 Red. masses --      7.9969                 3.4017                 6.0698
 Frc consts  --      2.5862                 1.4955                 3.4315
 IR Inten    --      0.3521               116.6950                 5.9743

                     25                     26                     27
                      A                      A                      A
 Frequencies --   1005.2115              1042.7440              1043.4415
 Red. masses --      2.7852                 1.6190                 1.4542
 Frc consts  --      1.6582                 1.0372                 0.9329
 IR Inten    --    199.7101                46.1113                 4.5606

                     28                     29                     30
                      A                      A                      A
 Frequencies --   1043.8375              1094.0180              1180.1801
 Red. masses --      1.4870                 4.2159                 9.3013
 Frc consts  --      0.9546                 2.9730                 7.6329
 IR Inten    --      4.2885                 5.8813                70.0176

                     31                     32                     33
                      A                      A                      A
 Frequencies --   1248.9340              1357.1969              1388.1501
 Red. masses --      4.6468                 3.9728                 1.3284
 Frc consts  --      4.2705                 4.3115                 1.5082
 IR Inten    --    139.3741                22.0540                74.7040

                     34                     35                     36
                      A                      A                      A
 Frequencies --   1394.5062              1466.6111              1473.3349
 Red. masses --      1.3478                 1.1025                 1.1505
 Frc consts  --      1.5443                 1.3972                 1.4714
 IR Inten    --      0.7918               116.3433                 4.3347

                     37                     38                     39
                      A                      A                      A
 Frequencies --   1483.2505              1484.0248              1491.4039
 Red. masses --      1.0452                 1.0447                 6.8978
 Frc consts  --      1.3548                 1.3556                 9.0397
 IR Inten    --     20.3453                 6.1288               757.4003

                     40                     41                     42
                      A                      A                      A
 Frequencies --   1510.8076              1526.3573              1613.2898
 Red. masses --      8.6392                11.4772                10.0958
 Frc consts  --     11.6182                15.7542                15.4817
 IR Inten    --      7.0824               452.3441                 6.9937

                     43                     44                     45
                      A                      A                      A
 Frequencies --   3025.0766              3025.6235              3068.8198
 Red. masses --      1.0397                 1.0397                 1.1000
 Frc consts  --      5.6057                 5.6080                 6.1036
 IR Inten    --     84.0665                 8.4943                 9.5021

                     46                     47                     48
                      A                      A                      A
 Frequencies --   3068.8964              3135.9667              3136.8095
 Red. masses --      1.1000                 1.0971                 1.0969
 Frc consts  --      6.1039                 6.3566                 6.3591
 IR Inten    --     46.3892                 5.0615                16.6061

 - Thermochemistry -
 -------------------
 Temperature   298.150 Kelvin.  Pressure   1.00000 Atm.
 Atom     1 has atomic number  6 and mass  12.00000

 Molecular mass:   203.97448 amu.
 Principal axes and moments of inertia in atomic units:
                           1         2         3
     Eigenvalues --  1929.122052863.594964770.46188
           X            0.99951  -0.01156  -0.02902
           Y            0.00453   0.97284  -0.23144
           Z            0.03091   0.23119   0.97242
 This molecule is an asymmetric top.
 Rotational symmetry number  1.
 Warning -- assumption of classical behavior for rotation
           may cause significant error
 Rotational temperatures (Kelvin)      0.04490     0.03025     0.01816
 Rotational constants (GHZ):           0.93552     0.63024     0.37832
 Zero-point vibrational energy     312481.1 (Joules/Mol)
                                   74.68478 (Kcal/Mol)
 Warning -- explicit consideration of  18 degrees of freedom as
           vibrations may cause significant error
 Vibrational temperatures:    114.75   117.90   132.81   153.31   188.06
          (Kelvin)            274.97   297.72   367.13   428.45   442.06
                              444.70   529.37   543.24   574.40   592.05
                              708.93   778.46   842.38  1003.03  1012.28
                             1029.06  1065.96  1242.83  1409.37  1446.28
                             1500.28  1501.28  1501.85  1574.05  1698.02
                             1796.94  1952.70  1997.24  2006.38  2110.13
                             2119.80  2134.07  2135.18  2145.80  2173.72
                             2196.09  2321.16  4352.41  4353.20  4415.35
                             4415.46  4511.96  4513.17

 Zero-point correction=                           0.119018 (Hartree/Particle)
 Thermal correction to Energy=                    0.131047
 Thermal correction to Enthalpy=                  0.131991
 Thermal correction to Gibbs Free Energy=         0.079525
 Sum of electronic and zero-point Energies=          -1379.509332
 Sum of electronic and thermal Energies=             -1379.497303
 Sum of electronic and thermal Enthalpies=           -1379.496359
 Sum of electronic and thermal Free Energies=        -1379.548825

                     E (Thermal)             CV                S
                      KCal/Mol        Cal/Mol-Kelvin    Cal/Mol-Kelvin
 Total                   82.233             42.741            110.422
 Electronic               0.000              0.000              1.377
 Translational            0.889              2.981             41.843
 Rotational               0.889              2.981             31.644
 Vibrational             80.455             36.780             35.558
 Vibration     1          0.600              1.963              3.897
 Vibration     2          0.600              1.962              3.844
 Vibration     3          0.602              1.955              3.611
 Vibration     4          0.605              1.944              3.331
 Vibration     5          0.612              1.923              2.936
 Vibration     6          0.634              1.852              2.217
 Vibration     7          0.641              1.830              2.071
 Vibration     8          0.666              1.754              1.695
 Vibration     9          0.691              1.678              1.429
 Vibration    10          0.697              1.660              1.377
 Vibration    11          0.698              1.656              1.367
 Vibration    12          0.741              1.538              1.088
 Vibration    13          0.748              1.518              1.049
 Vibration    14          0.765              1.472              0.965
 Vibration    15          0.775              1.445              0.921
 Vibration    16          0.848              1.266              0.677
 Vibration    17          0.896              1.159              0.563
 Vibration    18          0.942              1.063              0.475

                           ! Non-Optimized Parameters !
 Normal termination of Gaussian 16 at Sat Feb 10 10:40:21 2024.
