 Q-Chem 5.4, Q-Chem, Inc., Pleasanton, CA (2021)
 Q-Chem 5.4.0 for Intel X86 EM64T Linux

User input:
--------------------------------------------------------------
$molecule
0 1
C                  1.8874550000      3.9282120000      5.5222090000
C                  2.8070090000      3.4602070000      4.4537720000
C                  2.4873110000      2.4500550000      3.6350300000
C                  1.1951290000      1.7366200000      3.7697320000
C                  0.2910980000      2.1630160000      4.8679470000
C                  0.6174600000      3.1543140000      5.7125720000
O                  2.1390800000      4.9227290000      6.1740530000
O                  0.8817270000      0.8320150000      3.0143330000
H                  3.7355180000      4.0135010000      4.3662880000
H                  3.1393230000      2.1128540000      2.8369290000
H                 -0.6390000000      1.6129280000      4.9562230000
C                 -0.2354470000      3.4897270000      6.9013540000
O                  0.1819060000      3.5255170000      8.0291340000
O                 -1.5148510000      3.6986690000      6.5478940000
C                 -2.4249470000      3.9907410000      7.6312910000
H                 -3.3915050000      4.1481120000      7.1593080000
H                 -2.1014210000      4.8866110000      8.1616210000
H                 -2.4648230000      3.1520210000      8.3271480000
$end

$rem
BASIS  =  6-311++G(d,p)
GUI  =  2
JOB_TYPE  =  SP
METHOD  =  B3LYP
SCF_CONVERGENCE  = 8
SOLVENT_METHOD = sm12
$end

$smx
solvent dimethylformamide
charges CM5
$end

--------------------------------------------------------------

             Standard Nuclear Orientation (Angstroms)
    I     Atom           X                Y                Z
 ----------------------------------------------------------------
    1      C       1.8874550000     3.9282120000     5.5222090000
    2      C       2.8070090000     3.4602070000     4.4537720000
    3      C       2.4873110000     2.4500550000     3.6350300000
    4      C       1.1951290000     1.7366200000     3.7697320000
    5      C       0.2910980000     2.1630160000     4.8679470000
    6      C       0.6174600000     3.1543140000     5.7125720000
    7      O       2.1390800000     4.9227290000     6.1740530000
    8      O       0.8817270000     0.8320150000     3.0143330000
    9      H       3.7355180000     4.0135010000     4.3662880000
   10      H       3.1393230000     2.1128540000     2.8369290000
   11      H      -0.6390000000     1.6129280000     4.9562230000
   12      C      -0.2354470000     3.4897270000     6.9013540000
   13      O       0.1819060000     3.5255170000     8.0291340000
   14      O      -1.5148510000     3.6986690000     6.5478940000
   15      C      -2.4249470000     3.9907410000     7.6312910000
   16      H      -3.3915050000     4.1481120000     7.1593080000
   17      H      -2.1014210000     4.8866110000     8.1616210000
   18      H      -2.4648230000     3.1520210000     8.3271480000
 ----------------------------------------------------------------

   16    -609.4955075881      2.97e-09  Convergence criterion met
 Total energy in the final basis set =     -609.5151476583

                    Orbital Energies (a.u.)
 --------------------------------------------------------------

 Alpha MOs
 -- Occupied --
-19.1852 -19.1472 -19.1465 -19.1322 -10.3251 -10.2958 -10.2918 -10.2348
-10.2251 -10.2240 -10.2163 -10.2150  -1.1277  -1.0796  -1.0759  -1.0428
 -0.8767  -0.8144  -0.7450  -0.7169  -0.6609  -0.6263  -0.5775  -0.5446
 -0.5319  -0.5080  -0.4956  -0.4899  -0.4797  -0.4569  -0.4564  -0.4408
 -0.4328  -0.4266  -0.4174  -0.4036  -0.3734  -0.3251  -0.3240  -0.3148
 -0.3039  -0.2963  -0.2808

          Ground-State Mulliken Net Atomic Charges

     Atom                 Charge (a.u.)
  ----------------------------------------
      1 C                    -1.580091
      2 C                     0.653723
      3 C                     0.759957
      4 C                    -0.726599
      5 C                    -0.001994
      6 C                     0.827728
      7 O                    -0.299816
      8 O                    -0.310529
      9 H                     0.334738
     10 H                     0.347269
     11 H                     0.290530
     12 C                    -0.429048
     13 O                    -0.296174
     14 O                    -0.046685
     15 C                    -0.152457
     16 H                     0.233880
     17 H                     0.187833
     18 H                     0.207734
  ----------------------------------------
  Sum of atomic charges =     0.000000

                    Cartesian Multipole Moments
 -----------------------------------------------------------------
    Charge (ESU x 10^10)
                -0.0000
    Dipole Moment (Debye)
         X      -1.3654      Y       0.0173      Z      -1.0228
       Tot       1.7061
    Quadrupole Moments (Debye-Ang)
        XX     -54.7196     XY      -8.9816     YY     -77.0183
        XZ     -21.4173     YZ     -10.8389     ZZ     -87.7973

 Total job time:  185.73s(wall), 1436.78s(cpu)
        *  Thank you very much for using Q-Chem.  Have a nice day.  *
