 Q-Chem 5.4, Q-Chem, Inc., Pleasanton, CA (2021)
 Q-Chem 5.4.0 for Intel X86 EM64T Linux

User input:
--------------------------------------------------------------
$molecule
-2 1
C                  5.0229910000     -2.5449720000      0.1386800000
C                  5.7627670000     -1.5981510000     -0.5434290000
C                  5.0906870000     -0.5629320000     -1.2437550000
C                  3.6094130000     -2.5182820000      0.1635680000
C                  2.9243350000     -1.4679070000     -0.5462600000
C                  3.7118520000     -0.5112930000     -1.2369930000
C                  2.8956630000     -3.5543070000      0.9037000000
C                  1.4469790000     -3.4293410000      0.8612410000
C                  0.7683720000     -2.3511260000      0.1396750000
C                  1.4704790000     -1.3402560000     -0.5854320000
C                  0.6762110000     -4.3708980000      1.5518380000
C                 -0.6584850000     -2.3312650000      0.1790370000
C                 -1.4050640000     -3.2564330000      0.8578420000
O                  3.5022690000     -4.4775220000      1.5339740000
O                  0.8953680000     -0.3852880000     -1.2266570000
H                  5.5017680000     -3.3516060000      0.6850820000
H                 -2.4877620000     -3.2263230000      0.8621710000
H                  3.1669250000      0.2669520000     -1.7617930000
H                  1.2042100000     -5.1570560000      2.0798430000
H                 -1.1398730000     -1.5295260000     -0.3720370000
C                 -0.7170880000     -4.3139150000      1.5537080000
H                  5.6636630000      0.1881520000     -1.7850280000
H                  6.8499280000     -1.6444580000     -0.5447810000
S                 -1.6123430000     -5.4006080000      2.5674030000
O                 -0.8317930000     -6.6140800000      2.8927680000
O                 -3.0029630000     -5.5889400000      2.1066840000
N                 -1.8337590000     -4.5102500000      4.0633200000
H                 -0.9085230000     -4.3712240000      4.4656310000
H                 -2.3645860000     -5.1189920000      4.6888200000
$end

$rem
BASIS  =  6-311++G(d,p)
GUI  =  2
JOB_TYPE  =  SP
METHOD  =  B3LYP
SCF_CONVERGENCE  = 8
SOLVENT_METHOD = sm12
$end

$smx
solvent dimethylformamide
charges CM5
$end

--------------------------------------------------------------

             Standard Nuclear Orientation (Angstroms)
    I     Atom           X                Y                Z
 ----------------------------------------------------------------
    1      C       5.0229910000    -2.5449720000     0.1386800000
    2      C       5.7627670000    -1.5981510000    -0.5434290000
    3      C       5.0906870000    -0.5629320000    -1.2437550000
    4      C       3.6094130000    -2.5182820000     0.1635680000
    5      C       2.9243350000    -1.4679070000    -0.5462600000
    6      C       3.7118520000    -0.5112930000    -1.2369930000
    7      C       2.8956630000    -3.5543070000     0.9037000000
    8      C       1.4469790000    -3.4293410000     0.8612410000
    9      C       0.7683720000    -2.3511260000     0.1396750000
   10      C       1.4704790000    -1.3402560000    -0.5854320000
   11      C       0.6762110000    -4.3708980000     1.5518380000
   12      C      -0.6584850000    -2.3312650000     0.1790370000
   13      C      -1.4050640000    -3.2564330000     0.8578420000
   14      O       3.5022690000    -4.4775220000     1.5339740000
   15      O       0.8953680000    -0.3852880000    -1.2266570000
   16      H       5.5017680000    -3.3516060000     0.6850820000
   17      H      -2.4877620000    -3.2263230000     0.8621710000
   18      H       3.1669250000     0.2669520000    -1.7617930000
   19      H       1.2042100000    -5.1570560000     2.0798430000
   20      H      -1.1398730000    -1.5295260000    -0.3720370000
   21      C      -0.7170880000    -4.3139150000     1.5537080000
   22      H       5.6636630000     0.1881520000    -1.7850280000
   23      H       6.8499280000    -1.6444580000    -0.5447810000
   24      S      -1.6123430000    -5.4006080000     2.5674030000
   25      O      -0.8317930000    -6.6140800000     2.8927680000
   26      O      -3.0029630000    -5.5889400000     2.1066840000
   27      N      -1.8337590000    -4.5102500000     4.0633200000
   28      H      -0.9085230000    -4.3712240000     4.4656310000
   29      H      -2.3645860000    -5.1189920000     4.6888200000
 ----------------------------------------------------------------

   18   -1292.9700659724      9.53e-09  Convergence criterion met
 Total energy in the final basis set =    -1293.2352440496

                    Orbital Energies (a.u.)
 --------------------------------------------------------------

 Alpha MOs
 -- Occupied --
-89.0586 -19.1106 -19.1106 -19.0447 -19.0280 -14.3319 -10.2044 -10.1970
-10.1898 -10.1865 -10.1787 -10.1780 -10.1769 -10.1736 -10.1709 -10.1707
-10.1639 -10.1635 -10.1614 -10.1539  -8.1201  -6.0830  -6.0826  -6.0808
 -1.1077  -0.9960  -0.9665  -0.9460  -0.8897  -0.8553  -0.8495  -0.7836
 -0.7582  -0.7477  -0.7409  -0.6820  -0.6528  -0.6258  -0.6013  -0.5840
 -0.5524  -0.5396  -0.5283  -0.5059  -0.4980  -0.4772  -0.4639  -0.4602
 -0.4523  -0.4424  -0.4303  -0.4241  -0.4074  -0.4029  -0.3951  -0.3904
 -0.3716  -0.3662  -0.3540  -0.3505  -0.3432  -0.3416  -0.3324  -0.3260
 -0.3214  -0.3108  -0.3012  -0.2745  -0.2625  -0.2497  -0.2439  -0.2408
 -0.2188  -0.2054  -0.1250

          Ground-State Mulliken Net Atomic Charges

     Atom                 Charge (a.u.)
  ----------------------------------------
      1 C                     0.049846
      2 C                     1.747687
      3 C                     1.681744
      4 C                    -0.276865
      5 C                    -1.621139
      6 C                    -0.091283
      7 C                    -1.713093
      8 C                    -1.079243
      9 C                    -2.654668
     10 C                    -3.140479
     11 C                    -0.028988
     12 C                    -0.475737
     13 C                     1.003668
     14 O                    -0.304579
     15 O                    -0.366148
     16 H                     0.136014
     17 H                     0.269517
     18 H                     0.127064
     19 H                     0.131508
     20 H                     0.136960
     21 C                     2.143867
     22 H                     0.407215
     23 H                     0.419328
     24 S                     1.325012
     25 O                    -0.168709
     26 O                    -0.216029
     27 N                    -0.193791
     28 H                     0.323014
     29 H                     0.428305
  ----------------------------------------
  Sum of atomic charges =    -2.000000

                    Cartesian Multipole Moments
 -----------------------------------------------------------------
    Charge (ESU x 10^10)
                -9.6064
    Dipole Moment (Debye)
         X     -12.8574      Y      29.1242      Z      -2.9058
       Tot      31.9683
    Quadrupole Moments (Debye-Ang)
        XX    -210.8906     XY      23.6811     YY    -277.8569
        XZ       1.2368     YZ      36.9331     ZZ    -144.6565

 Total job time:  864.57s(wall), 6681.19s(cpu)
        *  Thank you very much for using Q-Chem.  Have a nice day.  *
