 Q-Chem 5.4, Q-Chem, Inc., Pleasanton, CA (2021)
 Q-Chem 5.4.0 for Intel X86 EM64T Linux

User input:
--------------------------------------------------------------
$molecule
-2 1
N                 -5.0646480000     -0.6339880000     -0.6134770000
C                 -3.7399490000     -0.2067070000     -0.2969100000
C                 -3.5621130000      1.0275210000      0.3879420000
C                 -2.2896790000      1.4833270000      0.6653620000
C                 -1.1286960000      0.7755360000      0.2774250000
C                  0.1810540000      1.3282550000      0.5870350000
O                  0.3301290000      2.4381490000      1.1978340000
C                  1.3072360000      0.5208640000      0.1491100000
C                  2.6257140000      0.9756110000      0.4042400000
C                  3.7405960000      0.2655880000      0.0080940000
N                  5.0660850000      0.7567120000      0.2071280000
C                  3.5626590000     -0.9802050000     -0.6554300000
C                  2.2899980000     -1.4542320000     -0.8992520000
C                  1.1291320000     -0.7369390000     -0.5287890000
C                 -0.1806340000     -1.2905330000     -0.8367850000
O                 -0.3297670000     -2.4065730000     -1.4362800000
C                 -1.3067140000     -0.4772290000     -0.4097430000
C                 -2.6252190000     -0.9317770000     -0.6652780000
H                 -5.7142900000     -0.4920170000      0.1620580000
H                 -5.0893520000     -1.6157560000     -0.8718720000
H                 -4.4349510000      1.6126380000      0.6695980000
H                 -2.1362420000      2.4225340000      1.1872270000
H                  2.7214820000      1.9192960000      0.9348370000
H                  5.7088450000      0.0254010000      0.5164250000
H                  5.0881950000      1.5077030000      0.8903340000
H                  4.4358040000     -1.5400280000     -0.9836900000
H                  2.1364520000     -2.4027540000     -1.4039580000
H                 -2.7211290000     -1.8903940000     -1.1683750000
$end

$rem
BASIS  =  6-311++G(d,p)
GUI  =  2
JOB_TYPE  =  SP
METHOD  =  B3LYP
SCF_CONVERGENCE  = 8
SOLVENT_METHOD = sm12
$end

$smx
solvent dimethylformamide
charges CM5
$end

--------------------------------------------------------------

             Standard Nuclear Orientation (Angstroms)
    I     Atom           X                Y                Z
 ----------------------------------------------------------------
    1      N      -5.0646480000    -0.6339880000    -0.6134770000
    2      C      -3.7399490000    -0.2067070000    -0.2969100000
    3      C      -3.5621130000     1.0275210000     0.3879420000
    4      C      -2.2896790000     1.4833270000     0.6653620000
    5      C      -1.1286960000     0.7755360000     0.2774250000
    6      C       0.1810540000     1.3282550000     0.5870350000
    7      O       0.3301290000     2.4381490000     1.1978340000
    8      C       1.3072360000     0.5208640000     0.1491100000
    9      C       2.6257140000     0.9756110000     0.4042400000
   10      C       3.7405960000     0.2655880000     0.0080940000
   11      N       5.0660850000     0.7567120000     0.2071280000
   12      C       3.5626590000    -0.9802050000    -0.6554300000
   13      C       2.2899980000    -1.4542320000    -0.8992520000
   14      C       1.1291320000    -0.7369390000    -0.5287890000
   15      C      -0.1806340000    -1.2905330000    -0.8367850000
   16      O      -0.3297670000    -2.4065730000    -1.4362800000
   17      C      -1.3067140000    -0.4772290000    -0.4097430000
   18      C      -2.6252190000    -0.9317770000    -0.6652780000
   19      H      -5.7142900000    -0.4920170000     0.1620580000
   20      H      -5.0893520000    -1.6157560000    -0.8718720000
   21      H      -4.4349510000     1.6126380000     0.6695980000
   22      H      -2.1362420000     2.4225340000     1.1872270000
   23      H       2.7214820000     1.9192960000     0.9348370000
   24      H       5.7088450000     0.0254010000     0.5164250000
   25      H       5.0881950000     1.5077030000     0.8903340000
   26      H       4.4358040000    -1.5400280000    -0.9836900000
   27      H       2.1364520000    -2.4027540000    -1.4039580000
   28      H      -2.7211290000    -1.8903940000    -1.1683750000
 ----------------------------------------------------------------

   17    -799.6506180423      9.45e-09  Convergence criterion met
 Total energy in the final basis set =     -799.9500124033

                    Orbital Energies (a.u.)
 --------------------------------------------------------------

 Alpha MOs
 -- Occupied --
-19.0268 -19.0268 -14.3199 -14.3199 -10.2032 -10.2032 -10.1833 -10.1833
-10.1702 -10.1702 -10.1696 -10.1696 -10.1570 -10.1570 -10.1481 -10.1481
-10.1477 -10.1477  -0.9493  -0.9466  -0.9125  -0.9121  -0.8315  -0.8246
 -0.7583  -0.7381  -0.7332  -0.7109  -0.6430  -0.6316  -0.5983  -0.5896
 -0.5466  -0.5296  -0.5193  -0.4995  -0.4866  -0.4768  -0.4568  -0.4363
 -0.4352  -0.4195  -0.4185  -0.4053  -0.3979  -0.3886  -0.3823  -0.3733
 -0.3647  -0.3523  -0.3423  -0.3368  -0.3337  -0.3151  -0.3015  -0.2821
 -0.2442  -0.2393  -0.2163  -0.2069  -0.2056  -0.1997  -0.1088

          Ground-State Mulliken Net Atomic Charges

     Atom                 Charge (a.u.)
  ----------------------------------------
      1 N                     0.039253
      2 C                     2.614020
      3 C                     2.415041
      4 C                    -0.176788
      5 C                    -1.553726
      6 C                    -3.208118
      7 O                    -0.297491
      8 C                    -1.934709
      9 C                    -0.343159
     10 C                     2.609663
     11 N                     0.040131
     12 C                     2.420349
     13 C                    -0.173969
     14 C                    -1.550914
     15 C                    -3.208364
     16 O                    -0.297419
     17 C                    -1.933853
     18 C                    -0.342209
     19 H                     0.419296
     20 H                     0.422032
     21 H                     0.407272
     22 H                     0.109586
     23 H                     0.082520
     24 H                     0.419370
     25 H                     0.421932
     26 H                     0.407894
     27 H                     0.109606
     28 H                     0.082751
  ----------------------------------------
  Sum of atomic charges =    -2.000000

                    Cartesian Multipole Moments
 -----------------------------------------------------------------
    Charge (ESU x 10^10)
                -9.6064
    Dipole Moment (Debye)
         X      -0.0128      Y      -1.3035      Z       3.2645
       Tot       3.5151
    Quadrupole Moments (Debye-Ang)
        XX    -138.4946     XY       2.0375     YY    -153.7204
        XZ       1.0096     YZ     -17.2548     ZZ    -131.5961

 Total job time:  679.81s(wall), 5343.75s(cpu)
        *  Thank you very much for using Q-Chem.  Have a nice day.  *
