 Gaussian 16, Revision A.03,
 Gaussian 16:  ES64L-G16RevA.03 25-Dec-2016

 ----------------------------------------------------------------
 #P UB3LYP/6-311++G(d,p) SCRF=(PCM,Solvent=n,n-DiMethylFormamide)
 ----------------------------------------------------------------

 ------------------
 Quinone PCM in DMF
 ------------------
 Symbolic Z-matrix:
 Charge =  0 Multiplicity = 1

                         Standard orientation:
 ---------------------------------------------------------------------
 Center     Atomic      Atomic             Coordinates (Angstroms)
 Number     Number       Type             X           Y           Z
 ---------------------------------------------------------------------
      1          6           0        0.341596   -0.786773    0.000247
      2          6           0       -0.713788    0.283399    0.000132
      3          6           0       -0.409119    1.587520    0.000126
      4          6           0        1.000852    2.045201   -0.000010
      5          6           0        2.064667    1.017063   -0.000134
      6          6           0        1.762467   -0.287821   -0.000022
      7          8           0        1.273333    3.233411    0.000084
      8          1           0       -1.163453    2.364247    0.000112
      9          8           0        0.076255   -1.963267    0.000354
     10         17           0        2.986711   -1.512457   -0.000120
     11         35           0       -2.507814   -0.324044   -0.000095
     12          1           0        3.086122    1.376374   -0.000285
 ---------------------------------------------------------------------

 SCF Done:  E(UB3LYP) =  -3414.72858796     A.U. after   17 cycles

 The electronic state is 1-A.
 Alpha  occ. eigenvalues -- -482.85746-101.58468 -62.51013 -56.33063 -56.32669
 Alpha  occ. eigenvalues --  -56.32630 -19.16741 -19.15623 -10.32006 -10.30482
 Alpha  occ. eigenvalues --  -10.28562 -10.27853 -10.23003 -10.22905  -9.49915
 Alpha  occ. eigenvalues --   -8.71978  -7.26396  -7.25417  -7.25319  -6.55163
 Alpha  occ. eigenvalues --   -6.53845  -6.53732  -2.66251  -2.65891  -2.65805
 Alpha  occ. eigenvalues --   -2.64756  -2.64755  -1.10503  -1.08690  -0.92137
 Alpha  occ. eigenvalues --   -0.88464  -0.82531  -0.77539  -0.72517  -0.64271
 Alpha  occ. eigenvalues --   -0.62383  -0.55630  -0.52961  -0.49845  -0.47942
 Alpha  occ. eigenvalues --   -0.47647  -0.46813  -0.45264  -0.44113  -0.42640
 Alpha  occ. eigenvalues --   -0.39269  -0.36394  -0.34596  -0.31830  -0.31628
 Alpha  occ. eigenvalues --   -0.30782  -0.29839  -0.28821
 Alpha virt. eigenvalues --   -0.15368  -0.05152  -0.03765  -0.01965  -0.00418
 Alpha virt. eigenvalues --    0.00297   0.01261   0.01888   0.03769   0.03974
 Alpha virt. eigenvalues --    0.04997   0.05583   0.06412   0.07404   0.07405

  Beta  occ. eigenvalues -- -482.85746-101.58468 -62.51013 -56.33063 -56.32669
  Beta  occ. eigenvalues --  -56.32630 -19.16741 -19.15623 -10.32006 -10.30482
  Beta  occ. eigenvalues --  -10.28562 -10.27853 -10.23003 -10.22905  -9.49915
  Beta  occ. eigenvalues --   -8.71978  -7.26396  -7.25417  -7.25319  -6.55163
  Beta  occ. eigenvalues --   -6.53845  -6.53732  -2.66251  -2.65891  -2.65805
  Beta  occ. eigenvalues --   -2.64756  -2.64755  -1.10503  -1.08690  -0.92137
  Beta  occ. eigenvalues --   -0.88464  -0.82531  -0.77539  -0.72517  -0.64271
  Beta  occ. eigenvalues --   -0.62383  -0.55630  -0.52961  -0.49845  -0.47942
  Beta  occ. eigenvalues --   -0.47647  -0.46813  -0.45264  -0.44113  -0.42640
  Beta  occ. eigenvalues --   -0.39269  -0.36394  -0.34596  -0.31830  -0.31628
  Beta  occ. eigenvalues --   -0.30782  -0.29839  -0.28821
  Beta virt. eigenvalues --   -0.15368  -0.05152  -0.03765  -0.01965  -0.00418
  Beta virt. eigenvalues --    0.00297   0.01261   0.01888   0.03769   0.03974
  Beta virt. eigenvalues --    0.04997   0.05583   0.06412   0.07404   0.07405

 Mulliken charges and spin densities:
               1          2
     1  C   -1.495379   0.000000
     2  C    0.708034  -0.000000
     3  C    0.064688   0.000000
     4  C   -0.522669  -0.000000
     5  C   -0.303404   0.000000
     6  C    1.170623  -0.000000
     7  O   -0.274994   0.000000
     8  H    0.290265   0.000000
     9  O   -0.161749   0.000000
    10  Cl   0.319399  -0.000000
    11  Br  -0.048899  -0.000000
    12  H    0.254086  -0.000000
 Sum of Mulliken charges =  -0.00000  -0.00000

 Dipole moment (field-independent basis, Debye):
    X=              0.0655    Y=              1.0113    Z=             -0.0006  Tot=              1.0134
 Quadrupole moment (field-independent basis, Debye-Ang):
   XX=            -70.7190   YY=            -92.6560   ZZ=            -74.8966
   XY=             -3.9666   XZ=             -0.0003   YZ=              0.0004

 Normal termination of Gaussian 16 at Sun Jan 21 06:47:44 2024.
