 Gaussian 16, Revision A.03,
 Gaussian 16:  ES64L-G16RevA.03 25-Dec-2016

 ----------------------------------------------------------------------
 #P UB3LYP/6-311++G(d,p) nosym opt freq SCRF=(PCM,Solvent=n,n-DiMethylF
 ormamide)
 ----------------------------------------------------------------------

 --------
 Oxidized
 --------
 Symbolic Z-matrix:
 Charge =  0 Multiplicity = 1

 SCF Done:  E(UB3LYP) =  -914.722658922     A.U. after   14 cycles
 SCF Done:  E(UB3LYP) =  -914.722796902     A.U. after   13 cycles
 SCF Done:  E(UB3LYP) =  -914.722822686     A.U. after   11 cycles
 SCF Done:  E(UB3LYP) =  -914.722836876     A.U. after   11 cycles
 SCF Done:  E(UB3LYP) =  -914.722842716     A.U. after   10 cycles
 SCF Done:  E(UB3LYP) =  -914.722846150     A.U. after   10 cycles
 SCF Done:  E(UB3LYP) =  -914.722847416     A.U. after   11 cycles
 SCF Done:  E(UB3LYP) =  -914.722850546     A.U. after   10 cycles
 SCF Done:  E(UB3LYP) =  -914.722851540     A.U. after   10 cycles
 SCF Done:  E(UB3LYP) =  -914.722852329     A.U. after   10 cycles
 SCF Done:  E(UB3LYP) =  -914.722852532     A.U. after   10 cycles
 Optimization completed.
    -- Stationary point found.
 Normal termination of Gaussian 16 at Sat Feb 10 22:37:47 2024.

 ----------------------------------------------------------------------
 #P Geom=AllCheck Guess=TCheck SCRF=Check GenChk UB3LYP/6-311++G(d,p) F
 req
 ----------------------------------------------------------------------

 Structure from the checkpoint file:  "201.chk"
 --------
 Oxidized
 --------
 Charge =  0 Multiplicity = 1

                          Input orientation:
 ---------------------------------------------------------------------
 Center     Atomic      Atomic             Coordinates (Angstroms)
 Number     Number       Type             X           Y           Z
 ---------------------------------------------------------------------
      1          8           0       -2.772876    2.499181   -0.442609
      2          6           0       -2.664833    1.179753   -0.213004
      3          6           0       -3.848377    0.443447   -0.069187
      4          6           0       -3.793127   -0.920406    0.166229
      5          6           0       -2.565294   -1.583149    0.262602
      6          6           0       -1.381445   -0.870476    0.125649
      7          6           0       -0.083626   -1.609826    0.232175
      8          8           0       -0.095924   -2.824273    0.396380
      9          6           0        1.172222   -0.826654    0.131613
     10          6           0        2.429394   -1.434833    0.268740
     11          8           0        2.536126   -2.763225    0.510268
     12          6           0        3.600420   -0.655439    0.158336
     13          6           0        3.543003    0.693913   -0.084680
     14          6           0        2.300723    1.336324   -0.226305
     15          8           0        2.323069    2.658625   -0.462227
     16          6           0        1.113256    0.583388   -0.115583
     17          6           0       -0.170751    1.268751   -0.249594
     18          8           0       -0.206548    2.510823   -0.475760
     19          6           0       -1.411813    0.522363   -0.112696
     20          1           0       -1.857202    2.857768   -0.518538
     21          1           0       -4.794656    0.964764   -0.146760
     22          1           0       -4.714994   -1.479459    0.276326
     23          1           0       -2.521192   -2.648213    0.444217
     24          1           0        3.469084   -3.003525    0.580284
     25          1           0        4.565816   -1.138769    0.267953
     26          1           0        4.446727    1.284305   -0.170214
     27          1           0        1.382819    2.954844   -0.533616
 ---------------------------------------------------------------------

 SCF Done:  E(UB3LYP) =  -914.722852532     A.U. after    1 cycles

 Alpha  occ. eigenvalues --  -19.17702 -19.16607 -19.16541 -19.14995 -19.12394
 Alpha  occ. eigenvalues --  -10.29692 -10.28288 -10.27170 -10.27064 -10.27044
 Alpha  occ. eigenvalues --  -10.21704 -10.21569 -10.21256 -10.21186 -10.21018
 Alpha  occ. eigenvalues --  -10.20545 -10.20396 -10.19621 -10.19353  -1.10050
 Alpha  occ. eigenvalues --   -1.09349  -1.08623  -1.06025  -1.05741  -0.89660
 Alpha  occ. eigenvalues --   -0.88088  -0.82253  -0.78352  -0.77765  -0.76792
 Alpha  occ. eigenvalues --   -0.70266  -0.68068  -0.67380  -0.62820  -0.62169
 Alpha  occ. eigenvalues --   -0.59406  -0.57175  -0.56137  -0.54292  -0.52564
 Alpha  occ. eigenvalues --   -0.50857  -0.50288  -0.48434  -0.47520  -0.47233
 Alpha  occ. eigenvalues --   -0.46569  -0.45864  -0.44642  -0.44575  -0.43367
 Alpha  occ. eigenvalues --   -0.42336  -0.41735  -0.41324  -0.40543  -0.39742
 Alpha  occ. eigenvalues --   -0.39434  -0.38605  -0.37765  -0.35830  -0.33876
 Alpha  occ. eigenvalues --   -0.30211  -0.29909  -0.28401  -0.27231  -0.25494
 Alpha  occ. eigenvalues --   -0.23784
 Alpha virt. eigenvalues --   -0.12499  -0.06825  -0.04506  -0.01267  -0.00750
 Alpha virt. eigenvalues --   -0.00099   0.00452   0.01487   0.01839   0.02695
 Alpha virt. eigenvalues --    0.03273   0.03635   0.03835   0.04312   0.04345

  Beta  occ. eigenvalues --  -19.17702 -19.16607 -19.16541 -19.14995 -19.12394
  Beta  occ. eigenvalues --  -10.29692 -10.28288 -10.27170 -10.27064 -10.27044
  Beta  occ. eigenvalues --  -10.21704 -10.21569 -10.21256 -10.21186 -10.21018
  Beta  occ. eigenvalues --  -10.20545 -10.20396 -10.19621 -10.19353  -1.10050
  Beta  occ. eigenvalues --   -1.09349  -1.08623  -1.06025  -1.05741  -0.89660
  Beta  occ. eigenvalues --   -0.88088  -0.82253  -0.78352  -0.77765  -0.76792
  Beta  occ. eigenvalues --   -0.70266  -0.68068  -0.67380  -0.62820  -0.62169
  Beta  occ. eigenvalues --   -0.59406  -0.57175  -0.56137  -0.54292  -0.52564
  Beta  occ. eigenvalues --   -0.50857  -0.50288  -0.48434  -0.47520  -0.47233
  Beta  occ. eigenvalues --   -0.46569  -0.45864  -0.44642  -0.44575  -0.43367
  Beta  occ. eigenvalues --   -0.42336  -0.41735  -0.41324  -0.40543  -0.39742
  Beta  occ. eigenvalues --   -0.39434  -0.38605  -0.37765  -0.35830  -0.33876
  Beta  occ. eigenvalues --   -0.30211  -0.29909  -0.28401  -0.27231  -0.25494
  Beta  occ. eigenvalues --   -0.23784
  Beta virt. eigenvalues --   -0.12499  -0.06825  -0.04506  -0.01267  -0.00750
  Beta virt. eigenvalues --   -0.00099   0.00452   0.01487   0.01839   0.02695
  Beta virt. eigenvalues --    0.03273   0.03635   0.03835   0.04312   0.04345

 Mulliken charges and spin densities:
               1          2
     1  O   -0.324333   0.000000
     2  C    0.049186  -0.000000
     3  C   -0.207310   0.000000
     4  C   -0.388260   0.000000
     5  C   -0.026694  -0.000000
     6  C    0.038427   0.000000
     7  C   -0.307642  -0.000000
     8  O   -0.289190  -0.000000
     9  C    0.042424   0.000000
    10  C   -0.276640   0.000000
    11  O   -0.206226   0.000000
    12  C   -0.139820  -0.000000
    13  C   -0.074798   0.000000
    14  C   -0.099984  -0.000000
    15  O   -0.334322  -0.000000
    16  C    0.795075  -0.000000
    17  C   -0.414442   0.000000
    18  O   -0.388907  -0.000000
    19  C    0.448446   0.000000
    20  H    0.377686  -0.000000
    21  H    0.214095  -0.000000
    22  H    0.218709   0.000000
    23  H    0.173115   0.000000
    24  H    0.306504  -0.000000
    25  H    0.204033  -0.000000
    26  H    0.230459   0.000000
    27  H    0.380409   0.000000
 Sum of Mulliken charges =  -0.00000  -0.00000

 Dipole moment (field-independent basis, Debye):
    X=              3.0825    Y=             -0.7469    Z=              0.3852  Tot=              3.1950
 Quadrupole moment (field-independent basis, Debye-Ang):
   XX=            -74.4082   YY=           -124.8834   ZZ=           -110.5535
   XY=             -4.8075   XZ=              1.2424   YZ=              1.8059

  Exact polarizability: 428.576   2.943 304.150   1.341 -32.337 121.174
 Approx polarizability: 471.232   4.785 393.624   1.352 -43.877 144.759

                      1                      2                      3
                      A                      A                      A
 Frequencies --     39.7880                65.2963               102.6742
 Red. masses --      6.8827                 7.3728                 8.8787
 Frc consts  --      0.0064                 0.0185                 0.0551
 IR Inten    --     10.5032                 0.4613                 2.3100

                      4                      5                      6
                      A                      A                      A
 Frequencies --    137.9879               172.0624               206.5441
 Red. masses --      7.0310                 7.2004                 6.5102
 Frc consts  --      0.0789                 0.1256                 0.1636
 IR Inten    --      0.9760                 0.0143                 0.1273

                      7                      8                      9
                      A                      A                      A
 Frequencies --    213.3314               259.9183               290.2544
 Red. masses --      4.7812                 6.1391                 7.8324
 Frc consts  --      0.1282                 0.2444                 0.3888
 IR Inten    --      1.6223                 0.8192                10.4220

                     10                     11                     12
                      A                      A                      A
 Frequencies --    331.5586               354.0255               370.3584
 Red. masses --      6.5367                 3.1523                11.1926
 Frc consts  --      0.4234                 0.2328                 0.9045
 IR Inten    --      3.8933                17.0859                19.7060

                     13                     14                     15
                      A                      A                      A
 Frequencies --    382.1513               419.9121               431.0678
 Red. masses --      1.3702                 6.3271                 5.6663
 Frc consts  --      0.1179                 0.6573                 0.6204
 IR Inten    --    125.9852                14.2619                 0.4021

                     16                     17                     18
                      A                      A                      A
 Frequencies --    446.9968               462.2308               474.3189
 Red. masses --      8.6972                 9.4736                 8.6613
 Frc consts  --      1.0239                 1.1926                 1.1481
 IR Inten    --      4.6433                61.0460                 2.4616

                     19                     20                     21
                      A                      A                      A
 Frequencies --    485.6642               497.5455               515.2247
 Red. masses --      4.8546                 7.4770                 6.7525
 Frc consts  --      0.6746                 1.0905                 1.0561
 IR Inten    --      1.7466                 2.1366                10.5498

                     22                     23                     24
                      A                      A                      A
 Frequencies --    539.1793               580.6187               594.0204
 Red. masses --      4.5526                 7.1411                 3.4686
 Frc consts  --      0.7798                 1.4184                 0.7211
 IR Inten    --     12.7681                28.5287                15.5133

                     25                     26                     27
                      A                      A                      A
 Frequencies --    618.7823               672.8649               714.0751
 Red. masses --      5.2258                 4.8413                 4.6686
 Frc consts  --      1.1789                 1.2914                 1.4026
 IR Inten    --      0.7309                 0.2900                18.3621

                     28                     29                     30
                      A                      A                      A
 Frequencies --    716.6564               738.5527               755.7531
 Red. masses --      6.4577                 1.1053                 1.1743
 Frc consts  --      1.9541                 0.3552                 0.3952
 IR Inten    --     18.2751               267.1178                35.1683

                     31                     32                     33
                      A                      A                      A
 Frequencies --    763.4943               769.3291               776.8324
 Red. masses --      7.2060                 6.2999                 2.8276
 Frc consts  --      2.4749                 2.1969                 1.0053
 IR Inten    --     28.9209                18.7468                49.4164

                     34                     35                     36
                      A                      A                      A
 Frequencies --    825.5854               841.4450               843.2623
 Red. masses --      1.8393                 8.9123                 1.7173
 Frc consts  --      0.7386                 3.7179                 0.7195
 IR Inten    --     36.2768               149.5199                45.1747

                     37                     38                     39
                      A                      A                      A
 Frequencies --    902.3459               932.1013               963.8169
 Red. masses --      8.0869                 1.4211                 5.6495
 Frc consts  --      3.8795                 0.7274                 3.0921
 IR Inten    --     62.9519                 0.0319                64.9530

                     40                     41                     42
                      A                      A                      A
 Frequencies --    966.8822               990.9926              1009.5600
 Red. masses --      1.3070                 6.5729                 1.3217
 Frc consts  --      0.7199                 3.8032                 0.7937
 IR Inten    --      0.0758                24.5470                 0.5432

                     43                     44                     45
                      A                      A                      A
 Frequencies --   1074.1193              1111.9045              1177.0199
 Red. masses --      2.5666                 2.1358                 2.3358
 Frc consts  --      1.7447                 1.5558                 1.9065
 IR Inten    --     67.5837               192.0644                 4.8856

                     46                     47                     48
                      A                      A                      A
 Frequencies --   1181.6211              1188.8098              1229.6560
 Red. masses --      1.1943                 1.3301                 2.6967
 Frc consts  --      0.9824                 1.1075                 2.4024
 IR Inten    --     28.0625               465.9709               953.2674

                     49                     50                     51
                      A                      A                      A
 Frequencies --   1234.3949              1265.8619              1295.2712
 Red. masses --      1.7248                 3.6952                 3.4719
 Frc consts  --      1.5484                 3.4886                 3.4320
 IR Inten    --    139.4280               319.7168               935.4068

                     52                     53                     54
                      A                      A                      A
 Frequencies --   1303.5320              1333.0101              1335.0633
 Red. masses --      3.1831                 3.4996                 2.5290
 Frc consts  --      3.1867                 3.6638                 2.6558
 IR Inten    --    346.1397               160.8114                14.4368

                     55                     56                     57
                      A                      A                      A
 Frequencies --   1388.6033              1404.4968              1415.4596
 Red. masses --      5.2600                 4.5942                 4.4619
 Frc consts  --      5.9757                 5.3395                 5.2671
 IR Inten    --    174.9297                50.1596               311.3785

                     58                     59                     60
                      A                      A                      A
 Frequencies --   1460.0211              1477.1368              1486.4809
 Red. masses --      3.1054                 2.2875                 2.7153
 Frc consts  --      3.9002                 2.9407                 3.5349
 IR Inten    --    172.2582                88.0048               579.0936

                     61                     62                     63
                      A                      A                      A
 Frequencies --   1507.2903              1584.4613              1606.2332
 Red. masses --      2.8086                 4.3112                 4.4272
 Frc consts  --      3.7595                 6.3770                 6.7296
 IR Inten    --    167.4028                14.6693               255.4888

                     64                     65                     66
                      A                      A                      A
 Frequencies --   1615.8112              1637.7752              1643.9666
 Red. masses --      4.0639                 4.8875                 8.0593
 Frc consts  --      6.2514                 7.7241                12.8332
 IR Inten    --     20.5957               186.5835               739.6585

                     67                     68                     69
                      A                      A                      A
 Frequencies --   1696.7906              3169.4257              3182.7833
 Red. masses --      9.5238                 1.0906                 1.0884
 Frc consts  --     16.1554                 6.4548                 6.4962
 IR Inten    --    175.0504                10.3988                 9.7531

                     70                     71                     72
                      A                      A                      A
 Frequencies --   3199.1191              3202.3133              3214.9172
 Red. masses --      1.0942                 1.0942                 1.0929
 Frc consts  --      6.5980                 6.6111                 6.6552
 IR Inten    --     11.3664                 4.0622                 5.5719

                     73                     74                     75
                      A                      A                      A
 Frequencies --   3306.5372              3363.4748              3790.3453
 Red. masses --      1.0672                 1.0681                 1.0663
 Frc consts  --      6.8744                 7.1192                 9.0261
 IR Inten    --    673.9922               319.7580               211.4379

 - Thermochemistry -
 -------------------
 Temperature   298.150 Kelvin.  Pressure   1.00000 Atm.
 Atom     1 has atomic number  8 and mass  15.99491

 Molecular mass:   256.03717 amu.
 Principal axes and moments of inertia in atomic units:
                           1         2         3
     Eigenvalues --  2860.954505262.531648121.82440
           X            0.98769   0.15633  -0.00506
           Y           -0.15323   0.97361   0.16911
           Z            0.03136  -0.16626   0.98558
 This molecule is an asymmetric top.
 Rotational symmetry number  1.
 Warning -- assumption of classical behavior for rotation
           may cause significant error
 Rotational temperatures (Kelvin)      0.03027     0.01646     0.01066
 Rotational constants (GHZ):           0.63082     0.34294     0.22221
 Zero-point vibrational energy     503979.4 (Joules/Mol)
                                  120.45396 (Kcal/Mol)
 Warning -- explicit consideration of  25 degrees of freedom as
           vibrations may cause significant error
 Vibrational temperatures:     57.25    93.95   147.73   198.53   247.56
          (Kelvin)            297.17   306.94   373.96   417.61   477.04
                              509.36   532.86   549.83   604.16   620.21
                              643.13   665.05   682.44   698.76   715.86
                              741.29   775.76   835.38   854.66   890.29
                              968.10  1027.39  1031.11  1062.61  1087.36
                             1098.50  1106.89  1117.69  1187.83  1210.65
                             1213.27  1298.27  1341.09  1386.72  1391.13
                             1425.82  1452.53  1545.42  1599.78  1693.47
                             1700.09  1710.43  1769.20  1776.02  1821.29
                             1863.61  1875.49  1917.90  1920.86  1997.89
                             2020.76  2036.53  2100.64  2125.27  2138.71
                             2168.65  2279.69  2311.01  2324.79  2356.39
                             2365.30  2441.30  4560.10  4579.32  4602.82
                             4607.41  4625.55  4757.37  4839.29  5453.46

 Zero-point correction=                           0.191956 (Hartree/Particle)
 Thermal correction to Energy=                    0.206043
 Thermal correction to Enthalpy=                  0.206987
 Thermal correction to Gibbs Free Energy=         0.151150
 Sum of electronic and zero-point Energies=           -914.530897
 Sum of electronic and thermal Energies=              -914.516809
 Sum of electronic and thermal Enthalpies=            -914.515865
 Sum of electronic and thermal Free Energies=         -914.571702

                     E (Thermal)             CV                S
                      KCal/Mol        Cal/Mol-Kelvin    Cal/Mol-Kelvin
 Total                  129.294             57.454            117.519
 Electronic               0.000              0.000              0.000
 Translational            0.889              2.981             42.520
 Rotational               0.889              2.981             33.169
 Vibrational            127.517             51.493             41.830
 Vibration     1          0.594              1.981              5.270
 Vibration     2          0.597              1.971              4.290
 Vibration     3          0.605              1.947              3.403
 Vibration     4          0.614              1.915              2.832
 Vibration     5          0.626              1.877              2.413
 Vibration     6          0.641              1.831              2.074
 Vibration     7          0.644              1.821              2.015
 Vibration     8          0.668              1.746              1.662
 Vibration     9          0.686              1.692              1.472
 Vibration    10          0.714              1.612              1.252
 Vibration    11          0.730              1.567              1.148
 Vibration    12          0.742              1.533              1.078
 Vibration    13          0.752              1.508              1.031
 Vibration    14          0.783              1.427              0.892
 Vibration    15          0.792              1.403              0.855
 Vibration    16          0.806              1.368              0.805
 Vibration    17          0.820              1.334              0.760
 Vibration    18          0.831              1.307              0.726
 Vibration    19          0.842              1.282              0.695
 Vibration    20          0.853              1.255              0.664
 Vibration    21          0.870              1.216              0.621
 Vibration    22          0.894              1.163              0.567
 Vibration    23          0.937              1.073              0.484
 Vibration    24          0.952              1.045              0.460
 Vibration    25          0.979              0.992              0.418

                           ! Non-Optimized Parameters !
 Normal termination of Gaussian 16 at Sat Feb 10 23:13:27 2024.
