 Gaussian 16, Revision A.03,
 Gaussian 16:  ES64L-G16RevA.03 25-Dec-2016

 ----------------------------------------------------------------------
 #P UB3LYP/6-311++G(d,p) nosym opt freq SCRF=(PCM,Solvent=n,n-DiMethylF
 ormamide)
 ----------------------------------------------------------------------

 -------
 Radical
 -------
 Symbolic Z-matrix:
 Charge = -1 Multiplicity = 2

 SCF Done:  E(UB3LYP) =  -783.790170431     A.U. after   19 cycles
 SCF Done:  E(UB3LYP) =  -783.790423154     A.U. after   16 cycles
 SCF Done:  E(UB3LYP) =  -783.790607648     A.U. after   15 cycles
 SCF Done:  E(UB3LYP) =  -783.790634254     A.U. after   11 cycles
 SCF Done:  E(UB3LYP) =  -783.790635096     A.U. after   11 cycles
 SCF Done:  E(UB3LYP) =  -783.790635476     A.U. after   10 cycles
 Optimization completed.
    -- Stationary point found.
 Normal termination of Gaussian 16 at Sat Feb 10 17:12:33 2024.

 ----------------------------------------------------------------------
 #P Geom=AllCheck Guess=TCheck SCRF=Check GenChk UB3LYP/6-311++G(d,p) F
 req
 ----------------------------------------------------------------------

 Structure from the checkpoint file:  "170-rad.chk"
 -------
 Radical
 -------
 Charge = -1 Multiplicity = 2

                          Input orientation:
 ---------------------------------------------------------------------
 Center     Atomic      Atomic             Coordinates (Angstroms)
 Number     Number       Type             X           Y           Z
 ---------------------------------------------------------------------
      1          6           0        3.916602    1.276351   -1.300712
      2          7           0        2.521512    1.057809   -0.990922
      3          6           0        2.048160   -0.006541   -0.281531
      4          6           0        2.923888   -0.996339    0.196597
      5          6           0        2.440737   -2.091236    0.921820
      6          6           0        1.091633   -2.230036    1.187973
      7          6           0        0.170518   -1.262973    0.731678
      8          6           0       -1.244363   -1.462458    1.044885
      9          8           0       -1.642413   -2.469097    1.701837
     10          6           0       -2.179475   -0.451628    0.569045
     11          6           0       -3.561425   -0.582899    0.840240
     12          6           0       -4.469801    0.359337    0.400985
     13          6           0       -4.021958    1.478416   -0.333304
     14          6           0       -2.676486    1.626997   -0.609276
     15          6           0       -1.727755    0.676029   -0.170256
     16          6           0       -0.312690    0.873486   -0.485044
     17          8           0        0.041881    1.902894   -1.151875
     18          6           0        0.628169   -0.126405   -0.014481
     19          1           0        4.338564    0.463555   -1.905182
     20          1           0        4.531712    1.375093   -0.397209
     21          1           0        4.001885    2.201293   -1.871166
     22          1           0        1.805697    1.719835   -1.283462
     23          1           0        3.984968   -0.912080    0.001700
     24          1           0        3.143373   -2.838681    1.277008
     25          1           0        0.714135   -3.075055    1.748109
     26          1           0       -3.888827   -1.447495    1.404836
     27          1           0       -5.526013    0.241571    0.618717
     28          1           0       -4.734068    2.219810   -0.679563
     29          1           0       -2.318161    2.480444   -1.171447
 ---------------------------------------------------------------------

 SCF Done:  E(UB3LYP) =  -783.790635476     A.U. after    1 cycles

 Alpha  occ. eigenvalues --  -19.07626 -19.07043 -14.31239 -10.22567 -10.21886
 Alpha  occ. eigenvalues --  -10.21503 -10.19405 -10.17145 -10.17138 -10.17132
 Alpha  occ. eigenvalues --  -10.17087 -10.17009 -10.16981 -10.16866 -10.16857
 Alpha  occ. eigenvalues --  -10.16817 -10.15793 -10.15310  -1.00042  -0.99292
 Alpha  occ. eigenvalues --   -0.92959  -0.85668  -0.83745  -0.78129  -0.74896
 Alpha  occ. eigenvalues --   -0.74351  -0.73601  -0.68289  -0.66331  -0.62976
 Alpha  occ. eigenvalues --   -0.61677  -0.57970  -0.56044  -0.53052  -0.52261
 Alpha  occ. eigenvalues --   -0.49766  -0.47238  -0.46865  -0.45595  -0.44347
 Alpha  occ. eigenvalues --   -0.44052  -0.43604  -0.42260  -0.41714  -0.41164
 Alpha  occ. eigenvalues --   -0.40477  -0.39412  -0.38593  -0.37705  -0.36678
 Alpha  occ. eigenvalues --   -0.36652  -0.35425  -0.34256  -0.33917  -0.33328
 Alpha  occ. eigenvalues --   -0.29556  -0.26560  -0.25520  -0.24638  -0.24457
 Alpha  occ. eigenvalues --   -0.23495  -0.20115  -0.13823
 Alpha virt. eigenvalues --   -0.04588  -0.01875  -0.00410   0.00285   0.00793
 Alpha virt. eigenvalues --    0.00946   0.01921   0.02080   0.03482   0.03507
 Alpha virt. eigenvalues --    0.03965   0.04357   0.05016   0.05510   0.05624

  Beta  occ. eigenvalues --  -19.07145 -19.06491 -14.31222 -10.22386 -10.21690
  Beta  occ. eigenvalues --  -10.21508 -10.19406 -10.17126 -10.17109 -10.17051
  Beta  occ. eigenvalues --  -10.17031 -10.16944 -10.16902 -10.16873 -10.16841
  Beta  occ. eigenvalues --  -10.16784 -10.15681 -10.15258  -0.99212  -0.98305
  Beta  occ. eigenvalues --   -0.92882  -0.85431  -0.83587  -0.77744  -0.74668
  Beta  occ. eigenvalues --   -0.74229  -0.73392  -0.68148  -0.65637  -0.62811
  Beta  occ. eigenvalues --   -0.61461  -0.57865  -0.55851  -0.52817  -0.52135
  Beta  occ. eigenvalues --   -0.49648  -0.47017  -0.46677  -0.45471  -0.44280
  Beta  occ. eigenvalues --   -0.43928  -0.43499  -0.42218  -0.40768  -0.40589
  Beta  occ. eigenvalues --   -0.40259  -0.39208  -0.38469  -0.36580  -0.36433
  Beta  occ. eigenvalues --   -0.35428  -0.35361  -0.34120  -0.33178  -0.32789
  Beta  occ. eigenvalues --   -0.29027  -0.24849  -0.24564  -0.24121  -0.24012
  Beta  occ. eigenvalues --   -0.23009  -0.19323
  Beta virt. eigenvalues --   -0.08196  -0.03623  -0.00895  -0.00398   0.00287
  Beta virt. eigenvalues --    0.00950   0.01179   0.01934   0.02080   0.03516
  Beta virt. eigenvalues --    0.03521   0.03971   0.04358   0.05142   0.05642

 Mulliken charges and spin densities:
               1          2
     1  C   -0.348915  -0.001120
     2  N   -0.306473   0.009050
     3  C    0.119654   0.007079
     4  C   -0.038104   0.089573
     5  C   -0.472535   0.027843
     6  C   -0.056436   0.067747
     7  C    0.576894   0.046467
     8  C   -0.565310   0.116918
     9  O   -0.473395   0.206780
    10  C    0.072287   0.021044
    11  C    0.007052   0.034806
    12  C   -0.452632   0.024879
    13  C   -0.487793   0.048710
    14  C    0.053036   0.017080
    15  C    0.025174   0.027040
    16  C   -0.254161   0.105140
    17  O   -0.471793   0.177218
    18  C    0.023534  -0.003472
    19  H    0.156436   0.000879
    20  H    0.157062   0.000892
    21  H    0.160148  -0.000111
    22  H    0.397437  -0.002659
    23  H    0.163671  -0.006327
    24  H    0.184295  -0.002270
    25  H    0.150244  -0.004418
    26  H    0.159242  -0.002290
    27  H    0.178414  -0.002257
    28  H    0.180095  -0.003816
    29  H    0.162873  -0.000407
 Sum of Mulliken charges =  -1.00000   1.00000

 Dipole moment (field-independent basis, Debye):
    X=              5.1340    Y=              3.6605    Z=             -2.8541  Tot=              6.9213
 Quadrupole moment (field-independent basis, Debye-Ang):
   XX=           -105.7306   YY=           -130.1669   ZZ=           -120.6782
   XY=             -7.0085   XZ=              3.1330   YZ=             10.8170

  Exact polarizability: 503.205 -31.204 327.646 -29.958-103.074 214.899
 Approx polarizability: 504.124 -23.894 384.706 -31.738-126.260 249.308

                      1                      2                      3
                      A                      A                      A
 Frequencies --     51.6703                65.4761                73.9085
 Red. masses --      4.6410                 4.5544                 4.7010
 Frc consts  --      0.0073                 0.0115                 0.0151
 IR Inten    --     16.8016                 0.5428                 2.4684

                      4                      5                      6
                      A                      A                      A
 Frequencies --    131.9303               165.5275               178.1134
 Red. masses --      4.4205                 3.5235                 3.7550
 Frc consts  --      0.0453                 0.0569                 0.0702
 IR Inten    --      0.1729                 5.0407                 5.5830

                      7                      8                      9
                      A                      A                      A
 Frequencies --    186.5929               227.4821               274.3674
 Red. masses --      2.4363                 1.7717                 4.1795
 Frc consts  --      0.0500                 0.0540                 0.1854
 IR Inten    --      0.2757                 0.0020                11.5753

                     10                     11                     12
                      A                      A                      A
 Frequencies --    278.6772               326.2718               340.9977
 Red. masses --      4.5332                 4.5935                 7.9473
 Frc consts  --      0.2074                 0.2881                 0.5445
 IR Inten    --      0.5500                 5.1502                 7.1834

                     13                     14                     15
                      A                      A                      A
 Frequencies --    379.1463               418.3161               422.3638
 Red. masses --      7.5430                12.6507                 6.1741
 Frc consts  --      0.6389                 1.3043                 0.6489
 IR Inten    --     12.2683                24.4267                 0.0090

                     16                     17                     18
                      A                      A                      A
 Frequencies --    437.4101               482.1040               490.2748
 Red. masses --      3.2810                 6.4626                11.6942
 Frc consts  --      0.3699                 0.8850                 1.6562
 IR Inten    --      2.3508                 4.5983                 2.6031

                     19                     20                     21
                      A                      A                      A
 Frequencies --    500.4613               566.8630               596.6716
 Red. masses --      4.0044                 4.2533                 6.3299
 Frc consts  --      0.5909                 0.8052                 1.3278
 IR Inten    --      4.7607                11.0910                31.2387

                     22                     23                     24
                      A                      A                      A
 Frequencies --    620.7009               626.2156               651.9354
 Red. masses --      1.1021                 4.7262                 3.6565
 Frc consts  --      0.2502                 1.0920                 0.9157
 IR Inten    --    123.2408                13.4732                21.0513

                     25                     26                     27
                      A                      A                      A
 Frequencies --    671.7678               698.7963               709.1132
 Red. masses --      5.7109                 6.3857                 2.2733
 Frc consts  --      1.5184                 1.8372                 0.6735
 IR Inten    --     16.5696                 4.8708               128.6326

                     28                     29                     30
                      A                      A                      A
 Frequencies --    737.3688               769.6503               791.8384
 Red. masses --      2.2803                 2.0329                 2.0058
 Frc consts  --      0.7305                 0.7095                 0.7410
 IR Inten    --      8.3073                15.1661                49.0096

                     31                     32                     33
                      A                      A                      A
 Frequencies --    793.0655               810.1505               858.4657
 Red. masses --      5.9243                 4.2499                 1.4984
 Frc consts  --      2.1953                 1.6435                 0.6506
 IR Inten    --      7.6354                28.4542                 0.4850

                     34                     35                     36
                      A                      A                      A
 Frequencies --    863.6852               883.1272               929.0435
 Red. masses --      6.0303                 1.4722                 6.6989
 Frc consts  --      2.6503                 0.6765                 3.4066
 IR Inten    --     52.7318                 0.1069                 8.6703

                     37                     38                     39
                      A                      A                      A
 Frequencies --    973.7648               987.5159               990.2155
 Red. masses --      1.2879                 1.3669                 5.2056
 Frc consts  --      0.7195                 0.7854                 3.0073
 IR Inten    --      0.7211                 2.8230                76.5024

                     40                     41                     42
                      A                      A                      A
 Frequencies --    999.3986              1039.9292              1087.8310
 Red. masses --      1.2847                 2.0306                 1.9610
 Frc consts  --      0.7560                 1.2939                 1.3672
 IR Inten    --      0.0047                27.7045                29.5265

                     43                     44                     45
                      A                      A                      A
 Frequencies --   1109.0977              1112.3464              1144.2551
 Red. masses --      2.0813                 2.2926                 1.2797
 Frc consts  --      1.5084                 1.6713                 0.9872
 IR Inten    --      8.7012                59.9557                 0.3401

                     46                     47                     48
                      A                      A                      A
 Frequencies --   1151.0549              1172.5160              1178.5039
 Red. masses --      1.3295                 2.1762                 2.0304
 Frc consts  --      1.0379                 1.7627                 1.6615
 IR Inten    --     23.3315                51.6127                 8.2934

                     49                     50                     51
                      A                      A                      A
 Frequencies --   1187.2972              1202.7410              1240.4417
 Red. masses --      1.3887                 1.9506                 3.1080
 Frc consts  --      1.1534                 1.6625                 2.8177
 IR Inten    --    110.4099                 0.9872                87.0465

                     52                     53                     54
                      A                      A                      A
 Frequencies --   1250.6198              1291.5020              1331.4687
 Red. masses --      2.1359                 2.9809                 2.9239
 Frc consts  --      1.9682                 2.9295                 3.0540
 IR Inten    --     98.2842               325.1200               193.2226

                     55                     56                     57
                      A                      A                      A
 Frequencies --   1359.3456              1369.3811              1403.0717
 Red. masses --      6.8624                 4.6785                 2.9303
 Frc consts  --      7.4711                 5.1689                 3.3988
 IR Inten    --     15.8437                40.1090               889.9691

                     58                     59                     60
                      A                      A                      A
 Frequencies --   1419.4637              1459.4312              1468.0883
 Red. masses --      3.0807                 1.4035                 3.5892
 Frc consts  --      3.6572                 1.7613                 4.5578
 IR Inten    --    178.5903               281.8359               121.0632

                     61                     62                     63
                      A                      A                      A
 Frequencies --   1476.0579              1478.5925              1500.6648
 Red. masses --      1.0395                 2.5427                 2.4688
 Frc consts  --      1.3344                 3.2753                 3.2757
 IR Inten    --     10.6678               213.2810               435.8718

                     64                     65                     66
                      A                      A                      A
 Frequencies --   1510.2102              1512.5695              1548.3392
 Red. masses --      2.1910                 1.6966                 2.9224
 Frc consts  --      2.9442                 2.2870                 4.1278
 IR Inten    --    693.7857               144.1930                15.3295

                     67                     68                     69
                      A                      A                      A
 Frequencies --   1577.3541              1604.4686              1611.8696
 Red. masses --      3.1757                 4.0131                 6.0455
 Frc consts  --      4.6553                 6.0868                 9.2542
 IR Inten    --    510.3742               194.0950               140.2328

                     70                     71                     72
                      A                      A                      A
 Frequencies --   1624.6174              2983.3015              3018.2993
 Red. masses --      5.7921                 1.0393                 1.1033
 Frc consts  --      9.0072                 5.4497                 5.9219
 IR Inten    --      4.1185               228.9173                77.8247

                     73                     74                     75
                      A                      A                      A
 Frequencies --   3113.8040              3154.6020              3157.7176
 Red. masses --      1.0953                 1.0880                 1.0861
 Frc consts  --      6.2572                 6.3792                 6.3804
 IR Inten    --     33.1597                40.5519                14.0928

                     76                     77                     78
                      A                      A                      A
 Frequencies --   3172.2710              3190.9843              3194.9226
 Red. masses --      1.0908                 1.0918                 1.0933
 Frc consts  --      6.4676                 6.5501                 6.5751
 IR Inten    --     27.5905                20.5546                43.3101

                     79                     80                     81
                      A                      A                      A
 Frequencies --   3196.1353              3202.3443              3415.9520
 Red. masses --      1.0897                 1.0921                 1.0811
 Frc consts  --      6.5585                 6.5985                 7.4325
 IR Inten    --     20.8275                23.0678               307.7024

 - Thermochemistry -
 -------------------
 Temperature   298.150 Kelvin.  Pressure   1.00000 Atm.
 Atom     1 has atomic number  6 and mass  12.00000

 Molecular mass:   237.07898 amu.
 Principal axes and moments of inertia in atomic units:
                           1         2         3
     Eigenvalues --  2309.337075382.241317680.25576
           X            0.99305  -0.01149   0.11714
           Y           -0.05036   0.85806   0.51107
           Z           -0.10638  -0.51341   0.85152
 This molecule is an asymmetric top.
 Rotational symmetry number  1.
 Warning -- assumption of classical behavior for rotation
           may cause significant error
 Rotational temperatures (Kelvin)      0.03751     0.01609     0.01128
 Rotational constants (GHZ):           0.78150     0.33531     0.23498
 Zero-point vibrational energy     581288.9 (Joules/Mol)
                                  138.93137 (Kcal/Mol)
 Warning -- explicit consideration of  22 degrees of freedom as
           vibrations may cause significant error
 Vibrational temperatures:     74.34    94.21   106.34   189.82   238.16
          (Kelvin)            256.27   268.47   327.30   394.75   400.95
                              469.43   490.62   545.51   601.86   607.69
                              629.34   693.64   705.40   720.05   815.59
                              858.48   893.05   900.98   937.99   966.52
                             1005.41  1020.26  1060.91  1107.36  1139.28
                             1141.04  1165.63  1235.14  1242.65  1270.62
                             1336.69  1401.03  1420.82  1424.70  1437.91
                             1496.23  1565.15  1595.74  1600.42  1646.33
                             1656.11  1686.99  1695.60  1708.26  1730.48
                             1784.72  1799.36  1858.18  1915.69  1955.80
                             1970.23  2018.71  2042.29  2099.80  2112.25
                             2123.72  2127.36  2159.12  2172.86  2176.25
                             2227.71  2269.46  2308.47  2319.12  2337.46
                             4292.31  4342.66  4480.07  4538.77  4543.25
                             4564.19  4591.11  4596.78  4598.53  4607.46
                             4914.79

 Zero-point correction=                           0.221401 (Hartree/Particle)
 Thermal correction to Energy=                    0.235458
 Thermal correction to Enthalpy=                  0.236402
 Thermal correction to Gibbs Free Energy=         0.179874
 Sum of electronic and zero-point Energies=           -783.569234
 Sum of electronic and thermal Energies=              -783.555178
 Sum of electronic and thermal Enthalpies=            -783.554234
 Sum of electronic and thermal Free Energies=         -783.610761

                     E (Thermal)             CV                S
                      KCal/Mol        Cal/Mol-Kelvin    Cal/Mol-Kelvin
 Total                  147.752             56.480            118.972
 Electronic               0.000              0.000              1.377
 Translational            0.889              2.981             42.291
 Rotational               0.889              2.981             32.923
 Vibrational            145.974             50.518             42.380
 Vibration     1          0.596              1.977              4.752
 Vibration     2          0.597              1.971              4.285
 Vibration     3          0.599              1.966              4.046
 Vibration     4          0.612              1.921              2.918
 Vibration     5          0.624              1.885              2.486
 Vibration     6          0.629              1.869              2.348
 Vibration     7          0.632              1.858              2.261
 Vibration     8          0.651              1.799              1.899
 Vibration     9          0.677              1.721              1.569
 Vibration    10          0.679              1.713              1.542
 Vibration    11          0.710              1.623              1.278
 Vibration    12          0.721              1.594              1.207
 Vibration    13          0.749              1.515              1.043
 Vibration    14          0.781              1.430              0.898
 Vibration    15          0.785              1.422              0.884
 Vibration    16          0.798              1.389              0.835
 Vibration    17          0.838              1.290              0.704
 Vibration    18          0.846              1.272              0.683
 Vibration    19          0.856              1.249              0.657
 Vibration    20          0.923              1.103              0.510
 Vibration    21          0.955              1.039              0.455
 Vibration    22          0.981              0.988              0.415

                           ! Non-Optimized Parameters !
 Normal termination of Gaussian 16 at Sat Feb 10 17:56:40 2024.
