 Gaussian 16, Revision A.03,
 Gaussian 16:  ES64L-G16RevA.03 25-Dec-2016

 ----------------------------------------------------------------------
 #P UB3LYP/6-311++G(d,p) nosym opt freq SCRF=(PCM,Solvent=n,n-DiMethylF
 ormamide)
 ----------------------------------------------------------------------

 --------
 Oxidized
 --------
 Symbolic Z-matrix:
 Charge =  0 Multiplicity = 1

 SCF Done:  E(UB3LYP) =  -991.151350840     A.U. after   15 cycles
 SCF Done:  E(UB3LYP) =  -991.151667842     A.U. after   13 cycles
 SCF Done:  E(UB3LYP) =  -991.151487679     A.U. after   13 cycles
 SCF Done:  E(UB3LYP) =  -991.151808278     A.U. after   12 cycles
 SCF Done:  E(UB3LYP) =  -991.151826049     A.U. after   11 cycles
 SCF Done:  E(UB3LYP) =  -991.151857714     A.U. after   11 cycles
 SCF Done:  E(UB3LYP) =  -991.151871161     A.U. after   12 cycles
 SCF Done:  E(UB3LYP) =  -991.151875331     A.U. after   12 cycles
 SCF Done:  E(UB3LYP) =  -991.151878963     A.U. after   11 cycles
 SCF Done:  E(UB3LYP) =  -991.151884383     A.U. after   11 cycles
 SCF Done:  E(UB3LYP) =  -991.151885518     A.U. after   10 cycles
 SCF Done:  E(UB3LYP) =  -991.151885935     A.U. after    9 cycles
 SCF Done:  E(UB3LYP) =  -991.151886607     A.U. after   10 cycles
 SCF Done:  E(UB3LYP) =  -991.151887104     A.U. after   10 cycles
 SCF Done:  E(UB3LYP) =  -991.151887612     A.U. after    9 cycles
 SCF Done:  E(UB3LYP) =  -991.151888264     A.U. after   10 cycles
 SCF Done:  E(UB3LYP) =  -991.151888579     A.U. after    9 cycles
 SCF Done:  E(UB3LYP) =  -991.151888786     A.U. after    9 cycles
 Optimization completed.
    -- Stationary point found.
 Normal termination of Gaussian 16 at Sun Feb 11 02:11:44 2024.

 ----------------------------------------------------------------------
 #P Geom=AllCheck Guess=TCheck SCRF=Check GenChk UB3LYP/6-311++G(d,p) F
 req
 ----------------------------------------------------------------------

 Structure from the checkpoint file:  "264.chk"
 --------
 Oxidized
 --------
 Charge =  0 Multiplicity = 1

                          Input orientation:
 ---------------------------------------------------------------------
 Center     Atomic      Atomic             Coordinates (Angstroms)
 Number     Number       Type             X           Y           Z
 ---------------------------------------------------------------------
      1          6           0        4.901058   -1.347196   -0.026863
      2          6           0        3.535277   -1.095490   -0.585403
      3          8           0        3.258281   -0.794188   -1.717015
      4          8           0        2.580496   -1.266909    0.387863
      5          6           0        1.257179   -0.981645    0.090975
      6          6           0        0.431814   -2.072369   -0.161425
      7          6           0       -0.918316   -1.877867   -0.391349
      8          6           0       -1.451265   -0.593755   -0.351141
      9          8           0       -2.795241   -0.474781   -0.667913
     10          6           0       -3.708529   -0.316766    0.346662
     11          6           0       -5.077640   -0.088172   -0.213551
     12          8           0       -3.399997   -0.372178    1.508494
     13          6           0       -0.644162    0.521944   -0.087040
     14          6           0       -1.218536    1.902818   -0.025097
     15          8           0       -2.412585    2.135036   -0.157576
     16          6           0       -0.292764    3.025095    0.227461
     17          6           0        1.014158    2.838774    0.433539
     18          6           0        1.637407    1.501242    0.380328
     19          8           0        2.847958    1.402637    0.528812
     20          6           0        0.748182    0.324320    0.125635
     21          1           0        5.631152   -1.362992   -0.832850
     22          1           0        5.144719   -0.546737    0.675859
     23          1           0        4.920383   -2.290168    0.521878
     24          1           0        0.862944   -3.065258   -0.174626
     25          1           0       -1.574256   -2.712637   -0.603165
     26          1           0       -5.303922   -0.827647   -0.983252
     27          1           0       -5.102651    0.899250   -0.680965
     28          1           0       -5.814500   -0.134213    0.585112
     29          1           0       -0.748032    4.008433    0.253083
     30          1           0        1.691389    3.661419    0.632271
 ---------------------------------------------------------------------

 SCF Done:  E(UB3LYP) =  -991.151888786     A.U. after    1 cycles

 Alpha  occ. eigenvalues --  -19.19375 -19.19372 -19.14398 -19.14397 -19.13585
 Alpha  occ. eigenvalues --  -19.13584 -10.32856 -10.32855 -10.29655 -10.29655
 Alpha  occ. eigenvalues --  -10.27673 -10.27671 -10.23164 -10.23119 -10.21764
 Alpha  occ. eigenvalues --  -10.21680 -10.21437 -10.21377 -10.18610 -10.18607
 Alpha  occ. eigenvalues --   -1.13784  -1.13739  -1.07683  -1.07501  -1.05316
 Alpha  occ. eigenvalues --   -1.05265  -0.90673  -0.85290  -0.81257  -0.79671
 Alpha  occ. eigenvalues --   -0.77516  -0.75138  -0.71505  -0.68276  -0.66944
 Alpha  occ. eigenvalues --   -0.64501  -0.62403  -0.56327  -0.55428  -0.54675
 Alpha  occ. eigenvalues --   -0.52284  -0.51383  -0.51023  -0.50770  -0.50673
 Alpha  occ. eigenvalues --   -0.49739  -0.48853  -0.46760  -0.46632  -0.46328
 Alpha  occ. eigenvalues --   -0.46065  -0.43981  -0.43879  -0.43081  -0.42829
 Alpha  occ. eigenvalues --   -0.42207  -0.41640  -0.41245  -0.40166  -0.39573
 Alpha  occ. eigenvalues --   -0.39551  -0.38093  -0.34783  -0.34264  -0.31560
 Alpha  occ. eigenvalues --   -0.30823  -0.30679  -0.29778  -0.29490  -0.28249
 Alpha  occ. eigenvalues --   -0.27876
 Alpha virt. eigenvalues --   -0.13696  -0.06749  -0.04904  -0.01848  -0.01789
 Alpha virt. eigenvalues --   -0.00659  -0.00065   0.00565   0.01214   0.01278
 Alpha virt. eigenvalues --    0.02588   0.02623   0.03213   0.03668   0.03720

  Beta  occ. eigenvalues --  -19.19375 -19.19372 -19.14398 -19.14397 -19.13585
  Beta  occ. eigenvalues --  -19.13584 -10.32856 -10.32855 -10.29655 -10.29655
  Beta  occ. eigenvalues --  -10.27673 -10.27671 -10.23164 -10.23119 -10.21764
  Beta  occ. eigenvalues --  -10.21680 -10.21437 -10.21377 -10.18610 -10.18607
  Beta  occ. eigenvalues --   -1.13784  -1.13739  -1.07683  -1.07501  -1.05316
  Beta  occ. eigenvalues --   -1.05265  -0.90673  -0.85290  -0.81257  -0.79671
  Beta  occ. eigenvalues --   -0.77516  -0.75138  -0.71505  -0.68276  -0.66944
  Beta  occ. eigenvalues --   -0.64501  -0.62403  -0.56327  -0.55428  -0.54675
  Beta  occ. eigenvalues --   -0.52284  -0.51383  -0.51023  -0.50770  -0.50673
  Beta  occ. eigenvalues --   -0.49739  -0.48853  -0.46760  -0.46632  -0.46328
  Beta  occ. eigenvalues --   -0.46065  -0.43981  -0.43879  -0.43081  -0.42829
  Beta  occ. eigenvalues --   -0.42207  -0.41640  -0.41245  -0.40166  -0.39573
  Beta  occ. eigenvalues --   -0.39551  -0.38093  -0.34783  -0.34264  -0.31560
  Beta  occ. eigenvalues --   -0.30823  -0.30679  -0.29778  -0.29490  -0.28249
  Beta  occ. eigenvalues --   -0.27876
  Beta virt. eigenvalues --   -0.13696  -0.06749  -0.04904  -0.01848  -0.01789
  Beta virt. eigenvalues --   -0.00659  -0.00065   0.00565   0.01214   0.01278
  Beta virt. eigenvalues --    0.02588   0.02623   0.03213   0.03668   0.03720

 Mulliken charges and spin densities:
               1          2
     1  C   -0.501662   0.000000
     2  C    0.036704  -0.000000
     3  O   -0.262573   0.000000
     4  O    0.020409   0.000000
     5  C   -0.421735   0.000000
     6  C    0.113667  -0.000000
     7  C    0.112805  -0.000000
     8  C   -0.423484   0.000000
     9  O    0.020279   0.000000
    10  C    0.036689  -0.000000
    11  C   -0.502018   0.000000
    12  O   -0.262294   0.000000
    13  C    0.522995  -0.000000
    14  C   -0.181051   0.000000
    15  O   -0.269423  -0.000000
    16  C   -0.099584  -0.000000
    17  C   -0.103443  -0.000000
    18  C   -0.181705   0.000000
    19  O   -0.269267  -0.000000
    20  C    0.525384  -0.000000
    21  H    0.177950  -0.000000
    22  H    0.199162  -0.000000
    23  H    0.187028   0.000000
    24  H    0.240727   0.000000
    25  H    0.240617   0.000000
    26  H    0.186741   0.000000
    27  H    0.199676  -0.000000
    28  H    0.177854  -0.000000
    29  H    0.239798   0.000000
    30  H    0.239756   0.000000
 Sum of Mulliken charges =  -0.00000  -0.00000

 Dipole moment (field-independent basis, Debye):
    X=             -0.2405    Y=             -1.9364    Z=             -0.2348  Tot=              1.9654
 Quadrupole moment (field-independent basis, Debye-Ang):
   XX=           -106.0077   YY=            -94.5771   ZZ=           -126.7017
   XY=             -0.3342   XZ=             13.8251   YZ=              2.3608

  Exact polarizability: 328.149 -11.189 254.283  16.137   9.538 160.547
 Approx polarizability: 385.533 -15.825 289.922  31.300   7.126 199.700

                      1                      2                      3
                      A                      A                      A
 Frequencies --     25.6799                30.9445                47.1327
 Red. masses --      8.4028                 6.4908                 5.1584
 Frc consts  --      0.0033                 0.0037                 0.0068
 IR Inten    --      4.1304                 9.3279                 3.0341

                      4                      5                      6
                      A                      A                      A
 Frequencies --     60.8232                69.2098                71.1620
 Red. masses --      2.6367                 1.5610                 1.6330
 Frc consts  --      0.0057                 0.0044                 0.0049
 IR Inten    --      7.5238                 0.4197                 2.0574

                      7                      8                      9
                      A                      A                      A
 Frequencies --     73.6201                91.8242                95.3839
 Red. masses --      3.9988                 2.3717                 2.5785
 Frc consts  --      0.0128                 0.0118                 0.0138
 IR Inten    --      6.3682                 5.9979                 1.3203

                     10                     11                     12
                      A                      A                      A
 Frequencies --    120.1451               161.2270               236.1709
 Red. masses --      9.7683                 5.8450                 9.4255
 Frc consts  --      0.0831                 0.0895                 0.3097
 IR Inten    --      0.7181                 3.5565                 7.5668

                     13                     14                     15
                      A                      A                      A
 Frequencies --    245.9227               268.3875               273.5165
 Red. masses --      4.4146                 9.5945                 3.7504
 Frc consts  --      0.1573                 0.4072                 0.1653
 IR Inten    --      0.0297                 2.0484                 0.3302

                     16                     17                     18
                      A                      A                      A
 Frequencies --    317.6984               345.5202               374.0878
 Red. masses --      4.8744                10.4854                 5.4157
 Frc consts  --      0.2899                 0.7375                 0.4465
 IR Inten    --      4.3356                 1.0686                 0.0224

                     19                     20                     21
                      A                      A                      A
 Frequencies --    408.1547               423.4200               447.6203
 Red. masses --     10.8403                 4.8422                11.1586
 Frc consts  --      1.0640                 0.5115                 1.3173
 IR Inten    --     47.3059                 6.8072                 3.4979

                     22                     23                     24
                      A                      A                      A
 Frequencies --    482.2985               488.1505               514.0980
 Red. masses --      5.5322                 5.1280                 5.0813
 Frc consts  --      0.7582                 0.7200                 0.7913
 IR Inten    --      2.1055                 0.1018                 5.2189

                     25                     26                     27
                      A                      A                      A
 Frequencies --    538.5205               579.1320               579.6122
 Red. masses --      3.7708                 2.8992                 3.1966
 Frc consts  --      0.6443                 0.5729                 0.6327
 IR Inten    --     15.3575                 4.3833                38.4343

                     28                     29                     30
                      A                      A                      A
 Frequencies --    603.4376               619.8543               644.6307
 Red. masses --      5.6356                 3.6905                 3.4438
 Frc consts  --      1.2091                 0.8354                 0.8432
 IR Inten    --      3.4375                31.4370                23.2422

                     31                     32                     33
                      A                      A                      A
 Frequencies --    662.5625               667.2073               741.8987
 Red. masses --      3.6657                 6.9500                 6.1197
 Frc consts  --      0.9481                 1.8229                 1.9846
 IR Inten    --     40.1651                 4.3182                 0.8696

                     34                     35                     36
                      A                      A                      A
 Frequencies --    754.8965               761.9707               803.2081
 Red. masses --      4.3252                 5.1595                 9.4876
 Frc consts  --      1.4522                 1.7649                 3.6063
 IR Inten    --      1.5265                 3.2807                 0.0032

                     37                     38                     39
                      A                      A                      A
 Frequencies --    841.5413               870.1978               880.9902
 Red. masses --      2.6295                 2.0512                 5.9029
 Frc consts  --      1.0972                 0.9152                 2.6994
 IR Inten    --     15.7650                32.0524                 1.4710

                     40                     41                     42
                      A                      A                      A
 Frequencies --    898.3657               949.5260               959.0671
 Red. masses --      3.0400                 6.6550                 5.6672
 Frc consts  --      1.4455                 3.5352                 3.0712
 IR Inten    --     96.7903               176.8687                17.0010

                     43                     44                     45
                      A                      A                      A
 Frequencies --    994.1019              1017.0171              1019.6032
 Red. masses --      1.3970                 2.0021                 1.9669
 Frc consts  --      0.8134                 1.2201                 1.2047
 IR Inten    --      0.2859                11.6765               361.1321

                     46                     47                     48
                      A                      A                      A
 Frequencies --   1019.6709              1058.6901              1059.0048
 Red. masses --      1.3212                 1.7772                 1.7744
 Frc consts  --      0.8093                 1.1736                 1.1725
 IR Inten    --     32.3284                17.2832                13.6007

                     49                     50                     51
                      A                      A                      A
 Frequencies --   1107.1459              1113.0848              1170.9593
 Red. masses --      3.7276                 1.6017                 1.2319
 Frc consts  --      2.6921                 1.1692                 0.9952
 IR Inten    --    324.7750               109.3146                59.4562

                     52                     53                     54
                      A                      A                      A
 Frequencies --   1180.7972              1190.6980              1236.4086
 Red. masses --      3.3317                 3.8305                 5.1056
 Frc consts  --      2.7369                 3.1997                 4.5985
 IR Inten    --   1638.5881                25.8345                 4.2400

                     55                     56                     57
                      A                      A                      A
 Frequencies --   1252.9044              1282.2662              1284.9643
 Red. masses --      2.0896                 3.1213                 4.1450
 Frc consts  --      1.9327                 3.0237                 4.0324
 IR Inten    --     12.9915               267.0952                26.9856

                     58                     59                     60
                      A                      A                      A
 Frequencies --   1349.5224              1391.8434              1392.4310
 Red. masses --      8.2114                 1.3054                 1.3003
 Frc consts  --      8.8111                 1.4899                 1.4854
 IR Inten    --    147.2512               124.7073                14.1173

                     61                     62                     63
                      A                      A                      A
 Frequencies --   1395.8768              1421.7557              1458.3082
 Red. masses --      1.7732                 6.4980                 1.0521
 Frc consts  --      2.0357                 7.7389                 1.3182
 IR Inten    --     16.3006                96.0446                46.7835

                     64                     65                     66
                      A                      A                      A
 Frequencies --   1458.5041              1462.8627              1463.2712
 Red. masses --      1.0508                 1.0519                 1.0529
 Frc consts  --      1.3170                 1.3263                 1.3283
 IR Inten    --      8.0435                14.8396                20.1677

                     67                     68                     69
                      A                      A                      A
 Frequencies --   1478.6324              1606.4747              1610.5619
 Red. masses --      3.3438                 7.3180                 6.9898
 Frc consts  --      4.3073                11.1273                10.6825
 IR Inten    --     21.1265               228.7214                14.9247

                     70                     71                     72
                      A                      A                      A
 Frequencies --   1672.6867              1698.1720              1708.8976
 Red. masses --      9.6771                11.6977                 8.8023
 Frc consts  --     15.9523                19.8754                15.1453
 IR Inten    --     82.3817              1046.3982                 8.5031

                     73                     74                     75
                      A                      A                      A
 Frequencies --   1788.2556              1789.5097              3055.1100
 Red. masses --     11.6172                11.5537                 1.0367
 Frc consts  --     21.8882                21.7992                 5.7008
 IR Inten    --    906.9783                 7.6601                 0.3335

                     76                     77                     78
                      A                      A                      A
 Frequencies --   3055.2478              3119.3269              3119.4405
 Red. masses --      1.0366                 1.0995                 1.0993
 Frc consts  --      5.7009                 6.3032                 6.3028
 IR Inten    --      0.3365                 2.9439                 3.1267

                     79                     80                     81
                      A                      A                      A
 Frequencies --   3160.4812              3160.6289              3184.6266
 Red. masses --      1.1041                 1.1040                 1.0876
 Frc consts  --      6.4978                 6.4980                 6.4991
 IR Inten    --      9.7687                 8.6265                 2.0678

                     82                     83                     84
                      A                      A                      A
 Frequencies --   3200.5763              3200.6074              3212.2348
 Red. masses --      1.0995                 1.0897                 1.0967
 Frc consts  --      6.6362                 6.5768                 6.6673
 IR Inten    --      3.8481                 1.6486                 0.3060

 - Thermochemistry -
 -------------------
 Temperature   298.150 Kelvin.  Pressure   1.00000 Atm.
 Atom     1 has atomic number  6 and mass  12.00000

 Molecular mass:   274.04774 amu.
 Principal axes and moments of inertia in atomic units:
                           1         2         3
     Eigenvalues --  2571.296997712.164539540.14175
           X            0.99191   0.12180   0.03590
           Y           -0.11637   0.98507  -0.12683
           Z           -0.05081   0.12162   0.99127
 This molecule is an asymmetric top.
 Rotational symmetry number  1.
 Warning -- assumption of classical behavior for rotation
           may cause significant error
 Rotational temperatures (Kelvin)      0.03368     0.01123     0.00908
 Rotational constants (GHZ):           0.70188     0.23401     0.18917
 Zero-point vibrational energy     560043.6 (Joules/Mol)
                                  133.85364 (Kcal/Mol)
 Warning -- explicit consideration of  29 degrees of freedom as
           vibrations may cause significant error
 Vibrational temperatures:     36.95    44.52    67.81    87.51    99.58
          (Kelvin)            102.39   105.92   132.11   137.24   172.86
                              231.97   339.80   353.83   386.15   393.53
                              457.10   497.13   538.23   587.24   609.21
                              644.03   693.92   702.34   739.67   774.81
                              833.24   833.93   868.21   891.83   927.48
                              953.28   959.96  1067.43  1086.13  1096.31
                             1155.64  1210.79  1252.02  1267.55  1292.55
                             1366.16  1379.88  1430.29  1463.26  1466.98
                             1467.08  1523.22  1523.67  1592.94  1601.48
                             1684.75  1698.90  1713.15  1778.92  1802.65
                             1844.90  1848.78  1941.66  2002.55  2003.40
                             2008.36  2045.59  2098.18  2098.46  2104.73
                             2105.32  2127.42  2311.36  2317.24  2406.62
                             2443.29  2458.72  2572.90  2574.71  4395.62
                             4395.82  4488.02  4488.18  4547.23  4547.44
                             4581.97  4604.92  4604.96  4621.69

 Zero-point correction=                           0.213309 (Hartree/Particle)
 Thermal correction to Energy=                    0.231660
 Thermal correction to Enthalpy=                  0.232604
 Thermal correction to Gibbs Free Energy=         0.164141
 Sum of electronic and zero-point Energies=           -990.938579
 Sum of electronic and thermal Energies=              -990.920229
 Sum of electronic and thermal Enthalpies=            -990.919285
 Sum of electronic and thermal Free Energies=         -990.987748

                     E (Thermal)             CV                S
                      KCal/Mol        Cal/Mol-Kelvin    Cal/Mol-Kelvin
 Total                  145.369             66.410            144.092
 Electronic               0.000              0.000              0.000
 Translational            0.889              2.981             42.723
 Rotational               0.889              2.981             33.603
 Vibrational            143.591             60.449             67.766
 Vibration     1          0.593              1.985              6.138
 Vibration     2          0.594              1.984              5.768
 Vibration     3          0.595              1.979              4.934
 Vibration     4          0.597              1.973              4.430
 Vibration     5          0.598              1.969              4.176
 Vibration     6          0.598              1.968              4.121
 Vibration     7          0.599              1.966              4.054
 Vibration     8          0.602              1.955              3.621
 Vibration     9          0.603              1.952              3.547
 Vibration    10          0.609              1.932              3.098
 Vibration    11          0.622              1.890              2.535
 Vibration    12          0.655              1.785              1.832
 Vibration    13          0.660              1.770              1.760
 Vibration    14          0.673              1.731              1.607
 Vibration    15          0.676              1.722              1.574
 Vibration    16          0.704              1.640              1.322
 Vibration    17          0.724              1.584              1.187
 Vibration    18          0.745              1.525              1.063
 Vibration    19          0.773              1.453              0.933
 Vibration    20          0.786              1.419              0.880
 Vibration    21          0.807              1.366              0.803
 Vibration    22          0.839              1.289              0.704
 Vibration    23          0.844              1.276              0.688
 Vibration    24          0.869              1.219              0.624
 Vibration    25          0.894              1.165              0.568
 Vibration    26          0.936              1.076              0.487
 Vibration    27          0.936              1.075              0.486
 Vibration    28          0.962              1.025              0.444
 Vibration    29          0.980              0.990              0.417

                           ! Non-Optimized Parameters !
 Normal termination of Gaussian 16 at Sun Feb 11 03:20:57 2024.
