 Q-Chem 5.4, Q-Chem, Inc., Pleasanton, CA (2021)
 Q-Chem 5.4.0 for Intel X86 EM64T Linux

User input:
--------------------------------------------------------------
$molecule
-1 1
O                  1.4983470000     -2.8670080000     -0.5590800000
C                  1.4725140000     -1.5447820000     -0.2861230000
C                  2.7329620000     -0.9076580000     -0.1318490000
O                  3.7978400000     -1.7116470000     -0.2826880000
C                  2.8059870000      0.4577190000      0.1402610000
C                  1.6290260000      1.1914760000      0.2613850000
C                  0.3848400000      0.5847150000      0.1216170000
C                 -0.8146170000      1.4355020000      0.2661490000
O                 -0.7495820000      2.6361400000      0.5035140000
C                 -2.1495590000      0.7790120000      0.1091800000
C                 -3.3094450000      1.5522400000      0.2336950000
C                 -4.5602640000      0.9656840000      0.0918280000
C                 -4.6633210000     -0.4032930000     -0.1768170000
C                 -3.5156850000     -1.1758850000     -0.3016090000
C                 -2.2515900000     -0.5921110000     -0.1603130000
C                 -1.0356100000     -1.4654930000     -0.3027790000
O                 -1.1829500000     -2.6579960000     -0.5305680000
C                  0.2844270000     -0.8146310000     -0.1557700000
S                  4.4275750000      1.2617980000      0.4019390000
O                  5.3760950000      0.2222700000     -0.1618830000
O                  4.3970590000      2.5070530000     -0.3798850000
O                  4.5555890000      1.4226170000      1.8609430000
H                  2.4388900000     -3.1065240000     -0.6069070000
H                  4.6192110000     -1.1014690000     -0.2512000000
H                  1.6737890000      2.2541740000      0.4620700000
H                 -3.1979010000      2.6092960000      0.4422470000
H                 -5.4565810000      1.5690790000      0.1892840000
H                 -5.6399630000     -0.8625560000     -0.2877380000
H                 -3.5670830000     -2.2377190000     -0.5089030000
$end
$rem
MAX_SCF_CYCLES=200
BASIS  =  6-311++G(d,p)
GUI  =  2
JOB_TYPE  =  SP
METHOD  =  B3LYP
SOLVENT_METHOD = PCM
$end
$pcm
theory = CPCM
$end
$solvent
dielectric 37.219
opticaldielectric 1.43
$end

--------------------------------------------------------------

             Standard Nuclear Orientation (Angstroms)
    I     Atom           X                Y                Z
 ----------------------------------------------------------------
    1      O       1.4983470000    -2.8670080000    -0.5590800000
    2      C       1.4725140000    -1.5447820000    -0.2861230000
    3      C       2.7329620000    -0.9076580000    -0.1318490000
    4      O       3.7978400000    -1.7116470000    -0.2826880000
    5      C       2.8059870000     0.4577190000     0.1402610000
    6      C       1.6290260000     1.1914760000     0.2613850000
    7      C       0.3848400000     0.5847150000     0.1216170000
    8      C      -0.8146170000     1.4355020000     0.2661490000
    9      O      -0.7495820000     2.6361400000     0.5035140000
   10      C      -2.1495590000     0.7790120000     0.1091800000
   11      C      -3.3094450000     1.5522400000     0.2336950000
   12      C      -4.5602640000     0.9656840000     0.0918280000
   13      C      -4.6633210000    -0.4032930000    -0.1768170000
   14      C      -3.5156850000    -1.1758850000    -0.3016090000
   15      C      -2.2515900000    -0.5921110000    -0.1603130000
   16      C      -1.0356100000    -1.4654930000    -0.3027790000
   17      O      -1.1829500000    -2.6579960000    -0.5305680000
   18      C       0.2844270000    -0.8146310000    -0.1557700000
   19      S       4.4275750000     1.2617980000     0.4019390000
   20      O       5.3760950000     0.2222700000    -0.1618830000
   21      O       4.3970590000     2.5070530000    -0.3798850000
   22      O       4.5555890000     1.4226170000     1.8609430000
   23      H       2.4388900000    -3.1065240000    -0.6069070000
   24      H       4.6192110000    -1.1014690000    -0.2512000000
   25      H       1.6737890000     2.2541740000     0.4620700000
   26      H      -3.1979010000     2.6092960000     0.4422470000
   27      H      -5.4565810000     1.5690790000     0.1892840000
   28      H      -5.6399630000    -0.8625560000    -0.2877380000
   29      H      -3.5670830000    -2.2377190000    -0.5089030000
 ----------------------------------------------------------------

    9   -1462.9412445109      5.18e-06  Convergence criterion met
 Total energy in the final basis set =    -1462.9412445109

                    Orbital Energies (a.u.)
 --------------------------------------------------------------

 Alpha MOs
 -- Occupied --
-89.0700 -19.1724 -19.1631 -19.1245 -19.1233 -19.1170 -19.1132 -19.1118
-10.2811 -10.2776 -10.2686 -10.2673 -10.2192 -10.2117 -10.2056 -10.2031
-10.2022 -10.2015 -10.1931 -10.1926 -10.1916 -10.1913  -8.1287  -6.0916
 -6.0911  -6.0906  -1.1357  -1.1036  -1.0695  -1.0585  -1.0569  -1.0008
 -0.9962  -0.8909  -0.8785  -0.8126  -0.7793  -0.7721  -0.7656  -0.7007
 -0.6748  -0.6579  -0.6220  -0.6207  -0.6001  -0.5859  -0.5619  -0.5335
 -0.5223  -0.5175  -0.5014  -0.4910  -0.4790  -0.4760  -0.4648  -0.4592
 -0.4539  -0.4501  -0.4476  -0.4439  -0.4388  -0.4207  -0.4158  -0.4037
 -0.3930  -0.3894  -0.3774  -0.3772  -0.3630  -0.3608  -0.3558  -0.3502
 -0.3232  -0.3229  -0.3114  -0.2821  -0.2818  -0.2798  -0.2735  -0.2687
 -0.2666  -0.2394

          Ground-State Mulliken Net Atomic Charges

     Atom                 Charge (a.u.)
  ----------------------------------------
      1 O                    -0.250852
      2 C                    -0.196625
      3 C                    -0.467872
      4 O                    -0.453433
      5 C                    -0.330727
      6 C                    -0.273797
      7 C                     0.653588
      8 C                    -0.591648
      9 O                    -0.298505
     10 C                     0.348815
     11 C                     0.116886
     12 C                    -0.508755
     13 C                    -0.534784
     14 C                     0.168020
     15 C                     0.021663
     16 C                    -0.388417
     17 O                    -0.299932
     18 C                     0.580460
     19 S                     0.924857
     20 O                    -0.480594
     21 O                    -0.316338
     22 O                    -0.273537
     23 H                     0.338784
     24 H                     0.479459
     25 H                     0.206870
     26 H                     0.189721
     27 H                     0.222270
     28 H                     0.221153
     29 H                     0.193269
  ----------------------------------------
  Sum of atomic charges =    -1.000001

                    Cartesian Multipole Moments
 -----------------------------------------------------------------
    Charge (ESU x 10^10)
                -4.8032
    Dipole Moment (Debye)
         X     -19.9255      Y      -5.3789      Z      -2.0361
       Tot      20.7390
    Quadrupole Moments (Debye-Ang)
        XX    -207.0696     XY     -34.5265     YY    -169.3026
        XZ     -10.3861     YZ      -5.7988     ZZ    -144.9022

 Total job time:  67.43s(wall), 485.02s(cpu)
        *  Thank you very much for using Q-Chem.  Have a nice day.  *
