 Gaussian 16, Revision A.03,
 Gaussian 16:  ES64L-G16RevA.03 25-Dec-2016

 -------------------------------
 #P UB3LYP/genecp nosym opt freq
 -------------------------------

 --------
 Oxidized
 --------
 Symbolic Z-matrix:
 Charge =  0 Multiplicity = 1

 SCF Done:  E(UB3LYP) =  -1133.23775588     A.U. after   16 cycles
 SCF Done:  E(UB3LYP) =  -1133.23831561     A.U. after   13 cycles
 SCF Done:  E(UB3LYP) =  -1133.23834352     A.U. after   12 cycles
 SCF Done:  E(UB3LYP) =  -1133.23834099     A.U. after   12 cycles
 SCF Done:  E(UB3LYP) =  -1133.23836079     A.U. after   13 cycles
 SCF Done:  E(UB3LYP) =  -1133.23846965     A.U. after   13 cycles
 SCF Done:  E(UB3LYP) =  -1133.08602401     A.U. after   19 cycles
 SCF Done:  E(UB3LYP) =  -1133.22703921     A.U. after   15 cycles
 SCF Done:  E(UB3LYP) =  -1133.23867635     A.U. after   11 cycles
 SCF Done:  E(UB3LYP) =  -1133.23680003     A.U. after   15 cycles
 SCF Done:  E(UB3LYP) =  -1133.24556820     A.U. after   13 cycles
 SCF Done:  E(UB3LYP) =  -1133.24570283     A.U. after   12 cycles
 SCF Done:  E(UB3LYP) =  -1133.24574166     A.U. after   12 cycles
 SCF Done:  E(UB3LYP) =  -1133.24575084     A.U. after   11 cycles
 SCF Done:  E(UB3LYP) =  -1133.24575439     A.U. after   11 cycles
 SCF Done:  E(UB3LYP) =  -1133.24575499     A.U. after   10 cycles
 SCF Done:  E(UB3LYP) =  -1133.24575502     A.U. after    9 cycles
 SCF Done:  E(UB3LYP) =  -1133.24575505     A.U. after    8 cycles
 SCF Done:  E(UB3LYP) =  -1133.24575516     A.U. after   10 cycles
 Optimization completed.
    -- Stationary point found.
 Normal termination of Gaussian 16 at Thu Dec 21 20:47:32 2023.

 ------------------------------------------------------------------
 #P Geom=AllCheck Guess=TCheck SCRF=Check GenChk UB3LYP/GenECP Freq
 ------------------------------------------------------------------

 Structure from the checkpoint file:  "016.chk"
 --------
 Oxidized
 --------
 Charge =  0 Multiplicity = 1

                          Input orientation:
 ---------------------------------------------------------------------
 Center     Atomic      Atomic             Coordinates (Angstroms)
 Number     Number       Type             X           Y           Z
 ---------------------------------------------------------------------
      1          6           0       -1.743586    1.457936    1.013325
      2          6           0       -2.984816    0.688946    0.791497
      3          6           0       -3.040848   -0.519497    0.207668
      4          6           0       -1.744580   -1.133629   -0.253361
      5          6           0       -0.460771   -0.364804   -0.036118
      6          6           0       -0.452779    0.846964    0.555045
      7          8           0       -1.712098   -2.221965   -0.790016
      8          8           0       -1.787135    2.547818    1.550989
      9         53           0        1.245014    2.013623    0.915249
     10         53           0        1.251593   -1.352782   -0.730351
     11          1           0       -3.868039    1.199938    1.150737
     12          6           0       -4.348497   -1.291080   -0.007738
     13          6           0       -5.555221   -0.498541    0.529806
     14          6           0       -4.291496   -2.644112    0.745349
     15          6           0       -4.572788   -1.534685   -1.521489
     16          1           0       -5.677442    0.461374    0.020517
     17          1           0       -5.480794   -0.314019    1.605058
     18          1           0       -6.465336   -1.078120    0.359076
     19          1           0       -4.131973   -2.487922    1.816318
     20          1           0       -3.500323   -3.287251    0.364038
     21          1           0       -5.245751   -3.164152    0.623054
     22          1           0       -4.613917   -0.587265   -2.066936
     23          1           0       -5.529773   -2.043980   -1.665809
     24          1           0       -3.787902   -2.153175   -1.953226
 ---------------------------------------------------------------------

 SCF Done:  E(UB3LYP) =  -1133.24575516     A.U. after    1 cycles

 Alpha  occ. eigenvalues --  -19.15293 -19.14862 -10.30579 -10.29916 -10.26208
 Alpha  occ. eigenvalues --  -10.26053 -10.23332 -10.21761 -10.21752 -10.17773
 Alpha  occ. eigenvalues --  -10.17156 -10.17155  -6.86198  -6.86162  -4.88703
 Alpha  occ. eigenvalues --   -4.88668  -4.87516  -4.87478  -4.87348  -4.87313
 Alpha  occ. eigenvalues --   -1.93522  -1.93484  -1.93149  -1.93112  -1.93018
 Alpha  occ. eigenvalues --   -1.92984  -1.91989  -1.91985  -1.91952  -1.91948
 Alpha  occ. eigenvalues --   -1.08953  -1.08176  -0.88673  -0.85174  -0.79843
 Alpha  occ. eigenvalues --   -0.74721  -0.71333  -0.70746  -0.70180  -0.69608
 Alpha  occ. eigenvalues --   -0.63028  -0.61245  -0.56438  -0.54462  -0.50624
 Alpha  occ. eigenvalues --   -0.48433  -0.47184  -0.46762  -0.45593  -0.45516
 Alpha  occ. eigenvalues --   -0.43634  -0.43603  -0.41777  -0.40236  -0.39751
 Alpha  occ. eigenvalues --   -0.38859  -0.38249  -0.37228  -0.35881  -0.35232
 Alpha  occ. eigenvalues --   -0.35183  -0.31047  -0.29993  -0.29358  -0.29079
 Alpha  occ. eigenvalues --   -0.28928  -0.26110  -0.25581
 Alpha virt. eigenvalues --   -0.14477  -0.07347  -0.04684  -0.02441  -0.01707
 Alpha virt. eigenvalues --   -0.01504   0.00588   0.00978   0.01134   0.02813
 Alpha virt. eigenvalues --    0.03226   0.03489   0.03726   0.04739   0.05333

  Beta  occ. eigenvalues --  -19.15293 -19.14862 -10.30579 -10.29916 -10.26208
  Beta  occ. eigenvalues --  -10.26053 -10.23332 -10.21761 -10.21752 -10.17773
  Beta  occ. eigenvalues --  -10.17156 -10.17155  -6.86198  -6.86162  -4.88703
  Beta  occ. eigenvalues --   -4.88668  -4.87516  -4.87478  -4.87348  -4.87313
  Beta  occ. eigenvalues --   -1.93522  -1.93484  -1.93149  -1.93112  -1.93018
  Beta  occ. eigenvalues --   -1.92984  -1.91989  -1.91985  -1.91952  -1.91948
  Beta  occ. eigenvalues --   -1.08953  -1.08176  -0.88673  -0.85174  -0.79843
  Beta  occ. eigenvalues --   -0.74721  -0.71333  -0.70746  -0.70180  -0.69608
  Beta  occ. eigenvalues --   -0.63028  -0.61245  -0.56438  -0.54462  -0.50624
  Beta  occ. eigenvalues --   -0.48433  -0.47184  -0.46762  -0.45593  -0.45516
  Beta  occ. eigenvalues --   -0.43634  -0.43603  -0.41777  -0.40236  -0.39751
  Beta  occ. eigenvalues --   -0.38859  -0.38249  -0.37228  -0.35881  -0.35232
  Beta  occ. eigenvalues --   -0.35183  -0.31047  -0.29993  -0.29358  -0.29079
  Beta  occ. eigenvalues --   -0.28928  -0.26110  -0.25581
  Beta virt. eigenvalues --   -0.14477  -0.07347  -0.04684  -0.02441  -0.01707
  Beta virt. eigenvalues --   -0.01504   0.00588   0.00978   0.01134   0.02813
  Beta virt. eigenvalues --    0.03226   0.03489   0.03726   0.04739   0.05333

 Mulliken charges and spin densities:
               1          2
     1  C   -1.194561  -0.000000
     2  C   -0.227712   0.000000
     3  C    1.295764   0.000000
     4  C   -1.010608  -0.000000
     5  C    0.073813  -0.000000
     6  C    0.946671   0.000000
     7  O   -0.112552   0.000000
     8  O   -0.146402   0.000000
     9  I    0.014548  -0.000000
    10  I    0.006647  -0.000000
    11  H    0.228094  -0.000000
    12  C    0.458813   0.000000
    13  C   -0.446003  -0.000000
    14  C   -0.656993  -0.000000
    15  C   -0.656871  -0.000000
    16  H    0.135808   0.000000
    17  H    0.135854   0.000000
    18  H    0.176358  -0.000000
    19  H    0.140888   0.000000
    20  H    0.190313   0.000000
    21  H    0.158455   0.000000
    22  H    0.140877   0.000000
    23  H    0.158466   0.000000
    24  H    0.190334   0.000000
 Sum of Mulliken charges =  -0.00000  -0.00000

 Dipole moment (field-independent basis, Debye):
    X=             -1.7144    Y=             -0.9629    Z=             -0.2569  Tot=              1.9831
 Quadrupole moment (field-independent basis, Debye-Ang):
   XX=           -107.6604   YY=           -134.4942   ZZ=           -127.4105
   XY=              4.4856   XZ=             -0.0713   YZ=             -5.3952

  Exact polarizability: 222.610  18.982 216.674  -2.530  41.412 147.678
 Approx polarizability: 313.416  11.625 419.689  -7.278 101.742 259.208

                      1                      2                      3
                      A                      A                      A
 Frequencies --     22.7831                36.6524                76.1132
 Red. masses --      5.1516                 7.0551                 4.9782
 Frc consts  --      0.0016                 0.0056                 0.0170
 IR Inten    --      1.7227                 0.2763                 0.0112

                      4                      5                      6
                      A                      A                      A
 Frequencies --     97.2088               120.4776               129.8857
 Red. masses --     60.1782                 7.8387                 4.2979
 Frc consts  --      0.3350                 0.0670                 0.0427
 IR Inten    --      0.3685                 0.5824                 3.9566

                      7                      8                      9
                      A                      A                      A
 Frequencies --    179.7730               201.8025               209.9766
 Red. masses --      7.4699                 2.5749                 1.9619
 Frc consts  --      0.1422                 0.0618                 0.0510
 IR Inten    --      0.2171                 0.1674                 0.2743

                     10                     11                     12
                      A                      A                      A
 Frequencies --    225.8890               254.2689               261.8295
 Red. masses --      3.8594                 1.2105                 8.7576
 Frc consts  --      0.1160                 0.0461                 0.3537
 IR Inten    --      0.0236                 0.0778                 0.2943

                     13                     14                     15
                      A                      A                      A
 Frequencies --    267.0854               298.3495               330.8289
 Red. masses --      2.2969                 3.0115                 1.0620
 Frc consts  --      0.0965                 0.1579                 0.0685
 IR Inten    --      0.0146                 0.0771                 0.0492

                     16                     17                     18
                      A                      A                      A
 Frequencies --    350.5197               375.7555               417.4101
 Red. masses --      5.1384                 2.3659                 2.7028
 Frc consts  --      0.3720                 0.1968                 0.2775
 IR Inten    --      6.7157                 0.1184                 0.1781

                     19                     20                     21
                      A                      A                      A
 Frequencies --    438.3672               466.2853               498.9450
 Red. masses --      6.6421                 8.5766                 4.3824
 Frc consts  --      0.7520                 1.0987                 0.6428
 IR Inten    --      0.0010                 0.0502                40.5431

                     22                     23                     24
                      A                      A                      A
 Frequencies --    522.2540               561.3322               678.4422
 Red. masses --      4.3752                 4.6014                 6.4373
 Frc consts  --      0.7031                 0.8542                 1.7457
 IR Inten    --      0.0028                10.5312                 5.2399

                     25                     26                     27
                      A                      A                      A
 Frequencies --    711.0549               713.9493               791.7419
 Red. masses --      7.3807                 6.2870                 9.3922
 Frc consts  --      2.1986                 1.8881                 3.4688
 IR Inten    --     12.5898                 6.2757                 4.3964

                     28                     29                     30
                      A                      A                      A
 Frequencies --    812.3690               821.9136               918.8456
 Red. masses --      3.6113                 7.7636                 1.6481
 Frc consts  --      1.4042                 3.0900                 0.8198
 IR Inten    --     11.1130                 6.0126                10.7370

                     31                     32                     33
                      A                      A                      A
 Frequencies --    923.3285               935.7017               937.9783
 Red. masses --      4.3612                 1.5911                 1.7707
 Frc consts  --      2.1906                 0.8208                 0.9179
 IR Inten    --     15.5962                 7.6278                 3.5872

                     34                     35                     36
                      A                      A                      A
 Frequencies --    966.6596              1022.6776              1048.4144
 Red. masses --      1.1986                 3.1051                 1.3801
 Frc consts  --      0.6599                 1.9134                 0.8938
 IR Inten    --      0.0612               194.9574                 0.0644

                     37                     38                     39
                      A                      A                      A
 Frequencies --   1056.2947              1166.2867              1216.2710
 Red. masses --      1.7028                 3.5954                 2.6741
 Frc consts  --      1.1194                 2.8815                 2.3307
 IR Inten    --     61.6413               112.7302                 2.3371

                     40                     41                     42
                      A                      A                      A
 Frequencies --   1217.6546              1251.8840              1273.9961
 Red. masses --      3.4104                 4.2596                 2.4903
 Frc consts  --      2.9793                 3.9332                 2.3814
 IR Inten    --     40.6288               129.7949                 5.1558

                     43                     44                     45
                      A                      A                      A
 Frequencies --   1340.5157              1394.5795              1399.4484
 Red. masses --      1.8497                 1.1948                 1.2222
 Frc consts  --      1.9583                 1.3690                 1.4102
 IR Inten    --     13.3586                 9.3114                12.5640

                     46                     47                     48
                      A                      A                      A
 Frequencies --   1429.5171              1481.2541              1495.5962
 Red. masses --      1.2161                 1.0459                 1.0478
 Frc consts  --      1.4642                 1.3520                 1.3808
 IR Inten    --      7.7588                 0.0042                 1.0260

                     49                     50                     51
                      A                      A                      A
 Frequencies --   1498.5791              1503.7606              1512.9856
 Red. masses --      1.0448                 1.0532                 1.0485
 Frc consts  --      1.3824                 1.4031                 1.4142
 IR Inten    --      0.3886                13.9167                 8.0967

                     52                     53                     54
                      A                      A                      A
 Frequencies --   1529.2969              1561.0913              1669.0044
 Red. masses --      1.0594                11.7529                 8.4777
 Frc consts  --      1.4597                16.8754                13.9138
 IR Inten    --     17.3943               195.1177                 9.6705

                     55                     56                     57
                      A                      A                      A
 Frequencies --   1716.7815              1722.6173              3024.3957
 Red. masses --     11.9798                12.5845                 1.0357
 Frc consts  --     20.8032                22.0021                 5.5818
 IR Inten    --     76.9851               310.5517                12.5712

                     58                     59                     60
                      A                      A                      A
 Frequencies --   3027.6146              3032.7916              3084.1408
 Red. masses --      1.0382                 1.0389                 1.1023
 Frc consts  --      5.6070                 5.6302                 6.1773
 IR Inten    --     34.3933                28.0829                 5.0400

                     61                     62                     63
                      A                      A                      A
 Frequencies --   3085.7238              3091.2342              3097.7807
 Red. masses --      1.1017                 1.1024                 1.1004
 Frc consts  --      6.1804                 6.2063                 6.2218
 IR Inten    --     20.2023                32.1135                52.7450

                     64                     65                     66
                      A                      A                      A
 Frequencies --   3137.0438              3139.6224              3209.1686
 Red. masses --      1.0984                 1.0977                 1.0907
 Frc consts  --      6.3684                 6.3751                 6.6180
 IR Inten    --      0.0384                13.6785                 0.6644

 - Thermochemistry -
 -------------------
 Temperature   298.150 Kelvin.  Pressure   1.00000 Atm.
 Atom     1 has atomic number  6 and mass  12.00000

 Molecular mass:   415.86888 amu.
 Principal axes and moments of inertia in atomic units:
                           1         2         3
     Eigenvalues --  4444.929358310.73696**********
           X            0.90274  -0.41577   0.11041
           Y            0.41989   0.79580  -0.43634
           Z            0.09355   0.44027   0.89298
 This molecule is an asymmetric top.
 Rotational symmetry number  1.
 Warning -- assumption of classical behavior for rotation
           may cause significant error
 Rotational temperatures (Kelvin)      0.01949     0.01042     0.00701
 Rotational constants (GHZ):           0.40602     0.21716     0.14611
 Zero-point vibrational energy     460525.2 (Joules/Mol)
                                  110.06816 (Kcal/Mol)
 Warning -- explicit consideration of  23 degrees of freedom as
           vibrations may cause significant error
 Vibrational temperatures:     32.78    52.73   109.51   139.86   173.34
          (Kelvin)            186.88   258.65   290.35   302.11   325.00
                              365.84   376.71   384.28   429.26   475.99
                              504.32   540.63   600.56   630.71   670.88
                              717.87   751.41   807.63   976.13  1023.05
                             1027.21  1139.14  1168.82  1182.55  1322.01
                             1328.46  1346.27  1349.54  1390.81  1471.41
                             1508.43  1519.77  1678.03  1749.94  1751.93
                             1801.18  1833.00  1928.70  2006.49  2013.49
                             2056.76  2131.19  2151.83  2156.12  2163.58
                             2176.85  2200.32  2246.06  2401.33  2470.07
                             2478.46  4351.43  4356.06  4363.51  4437.39
                             4439.67  4447.60  4457.02  4513.51  4517.22
                             4617.28

 Zero-point correction=                           0.175405 (Hartree/Particle)
 Thermal correction to Energy=                    0.190495
 Thermal correction to Enthalpy=                  0.191439
 Thermal correction to Gibbs Free Energy=         0.130126
 Sum of electronic and zero-point Energies=          -1133.070350
 Sum of electronic and thermal Energies=             -1133.055260
 Sum of electronic and thermal Enthalpies=           -1133.054316
 Sum of electronic and thermal Free Energies=        -1133.115629

                     E (Thermal)             CV                S
                      KCal/Mol        Cal/Mol-Kelvin    Cal/Mol-Kelvin
 Total                  119.537             54.022            129.044
 Electronic               0.000              0.000              0.000
 Translational            0.889              2.981             43.966
 Rotational               0.889              2.981             34.478
 Vibrational            117.760             48.060             50.601
 Vibration     1          0.593              1.985              6.376
 Vibration     2          0.594              1.982              5.432
 Vibration     3          0.599              1.965              3.989
 Vibration     4          0.603              1.951              3.510
 Vibration     5          0.609              1.932              3.093
 Vibration     6          0.612              1.923              2.948
 Vibration     7          0.629              1.867              2.331
 Vibration     8          0.639              1.837              2.117
 Vibration     9          0.642              1.826              2.044
 Vibration    10          0.650              1.802              1.911
 Vibration    11          0.665              1.756              1.701
 Vibration    12          0.669              1.743              1.650
 Vibration    13          0.672              1.734              1.615
 Vibration    14          0.691              1.677              1.426
 Vibration    15          0.713              1.614              1.256
 Vibration    16          0.727              1.574              1.164
 Vibration    17          0.747              1.522              1.056
 Vibration    18          0.780              1.432              0.901
 Vibration    19          0.799              1.387              0.832
 Vibration    20          0.824              1.325              0.748
 Vibration    21          0.854              1.252              0.661
 Vibration    22          0.877              1.201              0.605
 Vibration    23          0.917              1.115              0.521

                           ! Non-Optimized Parameters !
 Normal termination of Gaussian 16 at Thu Dec 21 21:31:52 2023.
