 Gaussian 16, Revision A.03,
 Gaussian 16:  ES64L-G16RevA.03 25-Dec-2016

 ----------------------------------------------------------------
 #P UB3LYP/6-311++G(d,p) SCRF=(PCM,Solvent=n,n-DiMethylFormamide)
 ----------------------------------------------------------------

 ------------------
 Quinone PCM in DMF
 ------------------
 Symbolic Z-matrix:
 Charge = -1 Multiplicity = 1

                         Standard orientation:
 ---------------------------------------------------------------------
 Center     Atomic      Atomic             Coordinates (Angstroms)
 Number     Number       Type             X           Y           Z
 ---------------------------------------------------------------------
      1          6           0        3.430789   -2.041956    0.002218
      2          6           0        4.777721   -1.721894    0.016538
      3          6           0        5.157118   -0.376870    0.025545
      4          6           0        2.449827   -1.037448   -0.003403
      5          6           0        2.818467    0.315037    0.005217
      6          6           0        4.190036    0.619720    0.019788
      7          6           0        1.017421   -1.469055   -0.019041
      8          6           0       -0.011857   -0.409467   -0.020588
      9          6           0        0.341267    0.952427   -0.013781
     10          6           0        1.791093    1.448740   -0.001749
     11          6           0       -1.365766   -0.799533   -0.030371
     12          6           0       -2.373809    0.146724   -0.033688
     13          6           0       -2.032490    1.501900   -0.030694
     14          6           0       -0.700527    1.891618   -0.021115
     15          8           0        0.738165   -2.660986   -0.029036
     16         16           0       -4.142619   -0.329089    0.013783
     17          8           0       -4.159473   -1.739023   -0.440826
     18          8           0       -4.515088   -0.132694    1.437882
     19          8           0       -4.785107    0.635907   -0.914949
     20          6           0        2.009407    2.315770    1.270019
     21          6           0        2.031207    2.318606   -1.267700
     22          1           0        3.091520   -3.070707   -0.004954
     23          1           0        5.528788   -2.504350    0.020973
     24          1           0        6.207810   -0.105690    0.037003
     25          1           0        4.511814    1.654518    0.026930
     26          1           0       -1.613804   -1.853189   -0.045959
     27          1           0       -2.825085    2.240909   -0.050961
     28          1           0       -0.474474    2.952299   -0.022450
     29          1           0        1.850085    1.719104    2.171140
     30          1           0        1.309592    3.152967    1.292411
     31          1           0        3.023141    2.722711    1.302755
     32          1           0        1.332449    3.156376   -1.300025
     33          1           0        1.887013    1.724055   -2.172793
     34          1           0        3.045650    2.724858   -1.282333
 ---------------------------------------------------------------------

 SCF Done:  E(UB3LYP) =  -1317.03059642     A.U. after   17 cycles

 The electronic state is 1-A.
 Alpha  occ. eigenvalues --  -89.04582 -19.11559 -19.09260 -19.09097 -19.09077
 Alpha  occ. eigenvalues --  -10.26922 -10.21325 -10.20667 -10.20235 -10.20116
 Alpha  occ. eigenvalues --  -10.19673 -10.19404 -10.19186 -10.19148 -10.18922
 Alpha  occ. eigenvalues --  -10.18792 -10.18513 -10.18439 -10.18361 -10.16900
 Alpha  occ. eigenvalues --  -10.16896  -8.10468  -6.06738  -6.06729  -6.06649
 Alpha  occ. eigenvalues --   -1.11142  -1.05113  -0.97703  -0.97383  -0.89386
 Alpha  occ. eigenvalues --   -0.87257  -0.82914  -0.78786  -0.76818  -0.76224
 Alpha  occ. eigenvalues --   -0.74247  -0.69674  -0.66579  -0.65693  -0.63623
 Alpha  occ. eigenvalues --   -0.61231  -0.59422  -0.57635  -0.54812  -0.53417
 Alpha  occ. eigenvalues --   -0.50396  -0.48911  -0.48166  -0.47495  -0.45457
 Alpha  occ. eigenvalues --   -0.45304  -0.45077  -0.44908  -0.44639  -0.43870
 Alpha  occ. eigenvalues --   -0.43567  -0.42967  -0.41889  -0.41597  -0.40868
 Alpha  occ. eigenvalues --   -0.38761  -0.37885  -0.37816  -0.36959  -0.36772
 Alpha  occ. eigenvalues --   -0.35298  -0.34640  -0.33636  -0.33542  -0.33134
 Alpha  occ. eigenvalues --   -0.30802  -0.29922  -0.29049  -0.27307  -0.26863
 Alpha  occ. eigenvalues --   -0.26723  -0.26259  -0.25739  -0.25694
 Alpha virt. eigenvalues --   -0.08594  -0.03457  -0.02796  -0.01907  -0.00712
 Alpha virt. eigenvalues --    0.00426   0.00864   0.01838   0.01846   0.02212
 Alpha virt. eigenvalues --    0.02984   0.03865   0.04138   0.04222   0.04570

  Beta  occ. eigenvalues --  -89.04582 -19.11559 -19.09260 -19.09097 -19.09077
  Beta  occ. eigenvalues --  -10.26922 -10.21325 -10.20667 -10.20235 -10.20116
  Beta  occ. eigenvalues --  -10.19673 -10.19404 -10.19186 -10.19148 -10.18922
  Beta  occ. eigenvalues --  -10.18792 -10.18513 -10.18439 -10.18361 -10.16900
  Beta  occ. eigenvalues --  -10.16896  -8.10468  -6.06738  -6.06729  -6.06649
  Beta  occ. eigenvalues --   -1.11142  -1.05113  -0.97703  -0.97383  -0.89386
  Beta  occ. eigenvalues --   -0.87257  -0.82914  -0.78786  -0.76818  -0.76224
  Beta  occ. eigenvalues --   -0.74247  -0.69674  -0.66579  -0.65693  -0.63623
  Beta  occ. eigenvalues --   -0.61231  -0.59422  -0.57635  -0.54812  -0.53417
  Beta  occ. eigenvalues --   -0.50396  -0.48911  -0.48166  -0.47495  -0.45457
  Beta  occ. eigenvalues --   -0.45304  -0.45077  -0.44908  -0.44639  -0.43870
  Beta  occ. eigenvalues --   -0.43567  -0.42967  -0.41889  -0.41597  -0.40868
  Beta  occ. eigenvalues --   -0.38761  -0.37885  -0.37816  -0.36959  -0.36772
  Beta  occ. eigenvalues --   -0.35298  -0.34640  -0.33636  -0.33542  -0.33134
  Beta  occ. eigenvalues --   -0.30802  -0.29922  -0.29049  -0.27307  -0.26863
  Beta  occ. eigenvalues --   -0.26723  -0.26259  -0.25739  -0.25694
  Beta virt. eigenvalues --   -0.08594  -0.03457  -0.02796  -0.01907  -0.00712
  Beta virt. eigenvalues --    0.00426   0.00864   0.01838   0.01846   0.02212
  Beta virt. eigenvalues --    0.02984   0.03865   0.04138   0.04222   0.04570

 Mulliken charges and spin densities:
               1          2
     1  C    0.083513   0.000000
     2  C   -0.425668   0.000000
     3  C   -0.458755  -0.000000
     4  C    0.468868   0.000000
     5  C    0.418031  -0.000000
     6  C   -0.209639   0.000000
     7  C   -0.757262  -0.000000
     8  C    0.840794   0.000000
     9  C    0.393030  -0.000000
    10  C    0.273033  -0.000000
    11  C    0.330426   0.000000
    12  C   -0.987826  -0.000000
    13  C   -0.674779   0.000000
    14  C   -0.356422   0.000000
    15  O   -0.312849   0.000000
    16  S    0.764685   0.000000
    17  O   -0.379691  -0.000000
    18  O   -0.350386   0.000000
    19  O   -0.382095   0.000000
    20  C   -0.820368  -0.000000
    21  C   -0.818191   0.000000
    22  H    0.201688  -0.000000
    23  H    0.193271  -0.000000
    24  H    0.202966  -0.000000
    25  H    0.148994   0.000000
    26  H    0.225730   0.000000
    27  H    0.222816  -0.000000
    28  H    0.155048   0.000000
    29  H    0.181677   0.000000
    30  H    0.163954  -0.000000
    31  H    0.161013  -0.000000
    32  H    0.163030  -0.000000
    33  H    0.181191   0.000000
    34  H    0.160175  -0.000000
 Sum of Mulliken charges =  -1.00000  -0.00000

 Dipole moment (field-independent basis, Debye):
    X=             25.1521    Y=              8.1138    Z=             -0.1827  Tot=             26.4290
 Quadrupole moment (field-independent basis, Debye-Ang):
   XX=           -223.0897   YY=           -140.1468   ZZ=           -143.7002
   XY=             -6.1623   XZ=              0.8917   YZ=             -0.1525

 Normal termination of Gaussian 16 at Sat Jan 13 19:28:00 2024.
