 Q-Chem 5.4, Q-Chem, Inc., Pleasanton, CA (2021)
 Q-Chem 5.4.0 for Intel X86 EM64T Linux

User input:
--------------------------------------------------------------
$molecule
-2 1
C                 -3.3629870000     -0.7027020000     -0.3595800000
C                 -1.9395960000     -0.2882270000     -0.0946550000
C                 -1.6491180000      0.7239620000      0.8513850000
C                 -0.3582200000      1.1352950000      1.1256390000
O                 -0.1233580000      2.1297060000      2.0596770000
C                  0.7308180000      0.5239370000      0.4353250000
C                  2.1059040000      0.9461850000      0.7120640000
O                  2.3493370000      1.8830590000      1.5903550000
C                  3.1311370000      0.2980870000     -0.0080230000
C                  2.8439890000     -0.7113300000     -0.9517780000
C                  1.5462100000     -1.1101190000     -1.2130800000
C                  0.4586220000     -0.5041670000     -0.5278910000
C                 -0.9112370000     -0.9450710000     -0.8229920000
O                 -1.1617140000     -1.8699370000     -1.6887850000
H                 -4.0658300000     -0.1250850000      0.2563500000
H                 -3.5199200000     -1.7733060000     -0.1561030000
H                 -3.6351230000     -0.5688970000     -1.4178960000
H                 -2.4639530000      1.2068260000      1.3921770000
H                  0.8868100000      2.2154780000      2.0472120000
H                  4.1561850000      0.6052900000      0.1910680000
H                  3.6706690000     -1.1849800000     -1.4852510000
H                  1.3113770000     -1.8840050000     -1.9352190000
$end
$rem
MAX_SCF_CYCLES=200
BASIS  =  6-311++G(d,p)
GUI  =  2
JOB_TYPE  =  SP
METHOD  =  B3LYP
SOLVENT_METHOD = PCM
$end
$pcm
theory = CPCM
$end
$solvent
dielectric 37.219
opticaldielectric 1.43
$end

--------------------------------------------------------------

             Standard Nuclear Orientation (Angstroms)
    I     Atom           X                Y                Z
 ----------------------------------------------------------------
    1      C      -3.3629870000    -0.7027020000    -0.3595800000
    2      C      -1.9395960000    -0.2882270000    -0.0946550000
    3      C      -1.6491180000     0.7239620000     0.8513850000
    4      C      -0.3582200000     1.1352950000     1.1256390000
    5      O      -0.1233580000     2.1297060000     2.0596770000
    6      C       0.7308180000     0.5239370000     0.4353250000
    7      C       2.1059040000     0.9461850000     0.7120640000
    8      O       2.3493370000     1.8830590000     1.5903550000
    9      C       3.1311370000     0.2980870000    -0.0080230000
   10      C       2.8439890000    -0.7113300000    -0.9517780000
   11      C       1.5462100000    -1.1101190000    -1.2130800000
   12      C       0.4586220000    -0.5041670000    -0.5278910000
   13      C      -0.9112370000    -0.9450710000    -0.8229920000
   14      O      -1.1617140000    -1.8699370000    -1.6887850000
   15      H      -4.0658300000    -0.1250850000     0.2563500000
   16      H      -3.5199200000    -1.7733060000    -0.1561030000
   17      H      -3.6351230000    -0.5688970000    -1.4178960000
   18      H      -2.4639530000     1.2068260000     1.3921770000
   19      H       0.8868100000     2.2154780000     2.0472120000
   20      H       4.1561850000     0.6052900000     0.1910680000
   21      H       3.6706690000    -1.1849800000    -1.4852510000
   22      H       1.3113770000    -1.8840050000    -1.9352190000
 ----------------------------------------------------------------

    9    -650.1185924107      3.38e-06  Convergence criterion met
 Total energy in the final basis set =     -650.1185924107

                    Orbital Energies (a.u.)
 --------------------------------------------------------------

 Alpha MOs
 -- Occupied --
-19.0976 -19.0491 -19.0240 -10.1976 -10.1867 -10.1758 -10.1466 -10.1434
-10.1417 -10.1407 -10.1333 -10.1319 -10.1295 -10.1277  -1.0101  -0.9556
 -0.9388  -0.8162  -0.7791  -0.7257  -0.7001  -0.6763  -0.6352  -0.5861
 -0.5626  -0.5307  -0.4900  -0.4679  -0.4521  -0.4398  -0.4143  -0.3997
 -0.3945  -0.3853  -0.3805  -0.3709  -0.3594  -0.3516  -0.3415  -0.3402
 -0.3303  -0.3193  -0.3091  -0.2836  -0.2521  -0.2256  -0.2146  -0.1996
 -0.1826  -0.1288

          Ground-State Mulliken Net Atomic Charges

     Atom                 Charge (a.u.)
  ----------------------------------------
      1 C                    -0.382506
      2 C                     0.623790
      3 C                    -0.646085
      4 C                    -0.363042
      5 O                    -0.505317
      6 C                     0.511966
      7 C                    -0.352511
      8 O                    -0.670760
      9 C                    -0.289191
     10 C                    -0.430657
     11 C                    -0.221230
     12 C                     0.425413
     13 C                    -0.396109
     14 O                    -0.701825
     15 H                     0.144485
     16 H                     0.147408
     17 H                     0.147488
     18 H                     0.142359
     19 H                     0.363147
     20 H                     0.151012
     21 H                     0.169349
     22 H                     0.132815
  ----------------------------------------
  Sum of atomic charges =    -2.000000

                    Cartesian Multipole Moments
 -----------------------------------------------------------------
    Charge (ESU x 10^10)
                -9.6064
    Dipole Moment (Debye)
         X      -3.2936      Y      -0.8574      Z      -0.5182
       Tot       3.4426
    Quadrupole Moments (Debye-Ang)
        XX    -117.8631     XY     -17.8379     YY    -121.1092
        XZ     -14.7859     YZ     -25.6328     ZZ    -115.9691

 Total job time:  31.50s(wall), 208.30s(cpu)
        *  Thank you very much for using Q-Chem.  Have a nice day.  *
