 Q-Chem 5.4, Q-Chem, Inc., Pleasanton, CA (2021)
 Q-Chem 5.4.0 for Intel X86 EM64T Linux

User input:
--------------------------------------------------------------
$molecule
-1 2
O                  2.2683610000      2.7678710000     -0.2350070000
C                  2.3610360000      1.4188870000     -0.1534720000
C                  3.6134040000      0.8335170000      0.0115400000
C                  3.7377740000     -0.5560230000      0.1140320000
C                  2.6001360000     -1.3647980000      0.0316260000
C                  1.3400240000     -0.8009310000     -0.1509590000
C                  0.1239750000     -1.6689730000     -0.3846200000
C                 -1.1891030000     -1.0228170000     -0.0035760000
C                 -2.3027020000     -1.7949760000      0.3173250000
C                 -3.5461530000     -1.1950360000      0.5385280000
C                 -3.6774690000      0.1938950000      0.4365930000
C                 -2.5731630000      0.9860770000      0.1343140000
O                 -2.7256780000      2.3296650000      0.0564480000
C                 -1.2915720000      0.3899880000     -0.0838450000
C                 -0.1243080000      1.2119580000     -0.3081890000
O                 -0.2467710000      2.5203540000     -0.4372260000
C                  1.1857830000      0.6074700000     -0.2283040000
H                  1.2859100000      2.9561070000     -0.3384260000
H                  4.4800250000      1.4836530000      0.0690860000
H                  4.7171990000     -1.0028150000      0.2526860000
H                  2.6961300000     -2.4455500000      0.0943840000
H                  0.2381340000     -2.6318810000      0.1249090000
H                  0.0817300000     -1.9053200000     -1.4645420000
H                 -2.2018530000     -2.8753040000      0.3797200000
H                 -4.4106370000     -1.8035500000      0.7845260000
H                 -4.6312880000      0.6842730000      0.6002730000
H                 -1.8089240000      2.6842590000     -0.1578240000
$end
$rem
MAX_SCF_CYCLES=200
BASIS  =  6-311++G(d,p)
GUI  =  2
JOB_TYPE  =  SP
METHOD  =  B3LYP
SOLVENT_METHOD = PCM
$end
$pcm
theory = CPCM
$end
$solvent
dielectric 37.219
opticaldielectric 1.43
$end

--------------------------------------------------------------

             Standard Nuclear Orientation (Angstroms)
    I     Atom           X                Y                Z
 ----------------------------------------------------------------
    1      O       2.2683610000     2.7678710000    -0.2350070000
    2      C       2.3610360000     1.4188870000    -0.1534720000
    3      C       3.6134040000     0.8335170000     0.0115400000
    4      C       3.7377740000    -0.5560230000     0.1140320000
    5      C       2.6001360000    -1.3647980000     0.0316260000
    6      C       1.3400240000    -0.8009310000    -0.1509590000
    7      C       0.1239750000    -1.6689730000    -0.3846200000
    8      C      -1.1891030000    -1.0228170000    -0.0035760000
    9      C      -2.3027020000    -1.7949760000     0.3173250000
   10      C      -3.5461530000    -1.1950360000     0.5385280000
   11      C      -3.6774690000     0.1938950000     0.4365930000
   12      C      -2.5731630000     0.9860770000     0.1343140000
   13      O      -2.7256780000     2.3296650000     0.0564480000
   14      C      -1.2915720000     0.3899880000    -0.0838450000
   15      C      -0.1243080000     1.2119580000    -0.3081890000
   16      O      -0.2467710000     2.5203540000    -0.4372260000
   17      C       1.1857830000     0.6074700000    -0.2283040000
   18      H       1.2859100000     2.9561070000    -0.3384260000
   19      H       4.4800250000     1.4836530000     0.0690860000
   20      H       4.7171990000    -1.0028150000     0.2526860000
   21      H       2.6961300000    -2.4455500000     0.0943840000
   22      H       0.2381340000    -2.6318810000     0.1249090000
   23      H       0.0817300000    -1.9053200000    -1.4645420000
   24      H      -2.2018530000    -2.8753040000     0.3797200000
   25      H      -4.4106370000    -1.8035500000     0.7845260000
   26      H      -4.6312880000     0.6842730000     0.6002730000
   27      H      -1.8089240000     2.6842590000    -0.1578240000
 ----------------------------------------------------------------

    8    -765.5488091741      8.11e-06  Convergence criterion met
 Total energy in the final basis set =     -765.5488091741

                    Orbital Energies (a.u.)
 --------------------------------------------------------------

 Alpha MOs
 -- Occupied --
-19.1246 -19.1246 -19.0812 -10.2234 -10.2234 -10.2113 -10.1737 -10.1737
-10.1699 -10.1656 -10.1655 -10.1639 -10.1639 -10.1565 -10.1565 -10.1565
-10.1565  -1.0492  -1.0423  -0.9843  -0.8606  -0.8377  -0.7851  -0.7516
 -0.7357  -0.7264  -0.6849  -0.6352  -0.6239  -0.5816  -0.5797  -0.5531
 -0.5148  -0.5076  -0.5075  -0.4653  -0.4621  -0.4527  -0.4387  -0.4275
 -0.4129  -0.4071  -0.4059  -0.3998  -0.3977  -0.3872  -0.3768  -0.3616
 -0.3599  -0.3574  -0.3369  -0.3264  -0.3225  -0.3217  -0.2600  -0.2519
 -0.2434  -0.2199  -0.2180  -0.1165

 Beta MOs
 -- Occupied --
-19.1239 -19.1239 -19.0762 -10.2218 -10.2218 -10.2055 -10.1716 -10.1716
-10.1701 -10.1666 -10.1666 -10.1617 -10.1617 -10.1573 -10.1573 -10.1571
-10.1571  -1.0467  -1.0407  -0.9748  -0.8579  -0.8357  -0.7823  -0.7477
 -0.7337  -0.7249  -0.6829  -0.6297  -0.6211  -0.5785  -0.5784  -0.5511
 -0.5133  -0.5066  -0.5048  -0.4635  -0.4601  -0.4518  -0.4326  -0.4255
 -0.4095  -0.4032  -0.4002  -0.3957  -0.3955  -0.3860  -0.3756  -0.3590
 -0.3567  -0.3379  -0.3335  -0.3253  -0.3189  -0.3156  -0.2480  -0.2439
 -0.2377  -0.2152  -0.2143

          Ground-State Mulliken Net Atomic Charges

     Atom                 Charge (a.u.)    Spin (a.u.)
  --------------------------------------------------------
      1 O                    -0.411239       0.021556
      2 C                    -0.096076       0.127713
      3 C                    -0.369916      -0.051930
      4 C                    -0.271788       0.172312
      5 C                    -0.177791      -0.068998
      6 C                    -0.054917       0.101127
      7 C                    -0.941593       0.117827
      8 C                    -0.045042       0.100123
      9 C                    -0.182725      -0.068846
     10 C                    -0.270521       0.172050
     11 C                    -0.374980      -0.051568
     12 C                    -0.094315       0.127689
     13 O                    -0.411458       0.021590
     14 C                     0.839306      -0.149888
     15 C                    -0.606092       0.394358
     16 O                    -0.603413       0.168310
     17 C                     0.838544      -0.150035
     18 H                     0.393774      -0.002302
     19 H                     0.188500       0.002105
     20 H                     0.193611      -0.012090
     21 H                     0.179838       0.003747
     22 H                     0.105555       0.005583
     23 H                     0.216737       0.028142
     24 H                     0.179840       0.003727
     25 H                     0.193707      -0.012076
     26 H                     0.188530       0.002108
     27 H                     0.393923      -0.002334
  --------------------------------------------------------
  Sum of atomic charges =    -1.000000

                    Cartesian Multipole Moments
 -----------------------------------------------------------------
    Charge (ESU x 10^10)
                -4.8032
    Dipole Moment (Debye)
         X       0.8468      Y      -9.3031      Z       0.4816
       Tot       9.3540
    Quadrupole Moments (Debye-Ang)
        XX    -125.2244     XY      -0.1591     YY    -121.9228
        XZ       0.8188     YZ       2.1913     ZZ    -107.9258

 Total job time:  53.94s(wall), 361.80s(cpu)
        *  Thank you very much for using Q-Chem.  Have a nice day.  *
