 Q-Chem 5.4, Q-Chem, Inc., Pleasanton, CA (2021)
 Q-Chem 5.4.0 for Intel X86 EM64T Linux

User input:
--------------------------------------------------------------
$molecule
-1 2
C                  5.7618090000     -5.2832010000      1.2484080000
C                  6.7319010000     -5.1537970000      0.2765100000
C                  6.6141250000     -4.1401580000     -0.6878170000
C                  4.6580120000     -4.4109860000      1.2825960000
C                  4.5310050000     -3.3756280000      0.3042550000
C                  5.5426370000     -3.2532830000     -0.6965980000
C                  3.6590020000     -4.6131700000      2.3553040000
C                  2.5524230000     -3.7023260000      2.3525690000
C                  2.4210360000     -2.7036910000      1.4173140000
C                  3.3634090000     -2.4664550000      0.3560480000
O                  3.7849050000     -5.5317470000      3.2110600000
O                  3.1833470000     -1.5299310000     -0.4726440000
H                  5.8111300000     -6.0504020000      2.0123130000
C                  5.5115850000     -2.1973390000     -1.7802120000
H                  7.5832870000     -5.8282500000      0.2523840000
H                  7.3795360000     -4.0402470000     -1.4530530000
H                  1.8096860000     -3.8373100000      3.1341920000
H                  1.5700710000     -2.0284130000      1.4416620000
H                  5.4960870000     -1.1896940000     -1.3605530000
H                  4.6082100000     -2.2700260000     -2.3883520000
H                  6.3910940000     -2.3063570000     -2.4246970000
$end
$rem
MAX_SCF_CYCLES=200
BASIS  =  6-311++G(d,p)
GUI  =  2
JOB_TYPE  =  SP
METHOD  =  B3LYP
SOLVENT_METHOD = COSMO
$end
$solvent
dielectric 37.219
opticaldielectric 1.43
$end

--------------------------------------------------------------

             Standard Nuclear Orientation (Angstroms)
    I     Atom           X                Y                Z
 ----------------------------------------------------------------
    1      C       0.3085488084    -2.0979601544    -0.0005216309
    2      C      -1.0082942873    -2.5082452560    -0.0005750708
    3      C      -2.0321809292    -1.5475592461    -0.0000214590
    4      C       0.6347077880    -0.7290497269    -0.0000694784
    5      C      -0.4023557608     0.2557077416    -0.0000183822
    6      C      -1.7615591165    -0.1832005480     0.0002666854
    7      C       2.0695689194    -0.3674212123     0.0003230905
    8      C       2.3556768812     1.0369660216     0.0000273910
    9      C       1.3666703984     1.9914828379    -0.0003549863
   10      C      -0.0407027473     1.6915926292    -0.0004249681
   11      O       2.9730746361    -1.2481202623     0.0007760143
   12      O      -0.9002131988     2.6175903295    -0.0004294441
   13      H       1.1312290146    -2.8034939963    -0.0007680129
   14      C      -2.9385814581     0.7680193469     0.0008811675
   15      H      -1.2575562325    -3.5656927136    -0.0012003666
   16      H      -3.0692173945    -1.8731012141     0.0003516734
   17      H       3.4049939925     1.3193611633     0.0001987747
   18      H       1.6156221589     3.0491962203    -0.0005900505
   19      H      -2.9225099336     1.4294853825    -0.8673968411
   20      H      -2.9212267548     1.4305172908     0.8680601219
   21      H      -3.8732173262     0.1959727280     0.0014979875
 ----------------------------------------------------------------

   10    -574.6539276084      9.07e-06  Convergence criterion met
 Total energy in the final basis set =     -574.6539276084
    5    -574.7383277534      5.47e-06  Convergence criterion met
 Total energy in the final basis set =     -574.7383277534

                    Orbital Energies (a.u.)
 --------------------------------------------------------------

 Alpha MOs
 -- Occupied --
-19.0790 -19.0768 -10.2241 -10.2227 -10.1836 -10.1768 -10.1738 -10.1702
-10.1665 -10.1651 -10.1618 -10.1610 -10.1523  -1.0031  -1.0004  -0.8582
 -0.8037  -0.7690  -0.7382  -0.6899  -0.6651  -0.6118  -0.6049  -0.5422
 -0.5029  -0.4971  -0.4720  -0.4528  -0.4243  -0.4241  -0.4197  -0.4025
 -0.3977  -0.3922  -0.3883  -0.3759  -0.3672  -0.3466  -0.3455  -0.3366
 -0.2795  -0.2513  -0.2482  -0.2461  -0.2373  -0.1550

 Beta MOs
 -- Occupied --
-19.0729 -19.0703 -10.2226 -10.2210 -10.1835 -10.1765 -10.1733 -10.1699
-10.1661 -10.1650 -10.1602 -10.1595 -10.1523  -0.9923  -0.9891  -0.8564
 -0.7981  -0.7678  -0.7361  -0.6855  -0.6586  -0.6086  -0.6027  -0.5397
 -0.5001  -0.4953  -0.4689  -0.4517  -0.4216  -0.4167  -0.4151  -0.4014
 -0.3896  -0.3865  -0.3862  -0.3659  -0.3511  -0.3449  -0.3374  -0.3357
 -0.2508  -0.2457  -0.2413  -0.2405  -0.2316

          Ground-State Mulliken Net Atomic Charges

     Atom                 Charge (a.u.)    Spin (a.u.)
  --------------------------------------------------------
      1 C                     0.382601       0.052845
      2 C                    -0.569497       0.016951
      3 C                    -0.593463       0.028479
      4 C                     0.173927       0.012609
      5 C                     0.199330       0.009586
      6 C                     0.712261       0.018796
      7 C                    -0.280900       0.111659
      8 C                    -0.087040       0.099079
      9 C                    -0.244363       0.130315
     10 C                    -0.619345       0.096715
     11 O                    -0.534416       0.215392
     12 O                    -0.488813       0.227833
     13 H                     0.174130      -0.002436
     14 C                    -0.461848       0.007781
     15 H                     0.212351      -0.001820
     16 H                     0.147170      -0.002813
     17 H                     0.196640      -0.009523
     18 H                     0.197586      -0.011273
     19 H                     0.164670       0.000076
     20 H                     0.164472       0.000076
     21 H                     0.154546      -0.000327
  --------------------------------------------------------
  Sum of atomic charges =    -1.000000

                    Cartesian Multipole Moments
 -----------------------------------------------------------------
    Charge (ESU x 10^10)
                -4.8032
    Dipole Moment (Debye)
         X      -5.7032      Y      -2.7842      Z      -0.0017
       Tot       6.3465
    Quadrupole Moments (Debye-Ang)
        XX    -100.4466     XY      18.4993     YY     -97.3665
        XZ      -0.0088     YZ       0.0055     ZZ     -81.6841

 Total job time:  45.08s(wall), 331.22s(cpu)
        *  Thank you very much for using Q-Chem.  Have a nice day.  *
