 Q-Chem 5.4, Q-Chem, Inc., Pleasanton, CA (2021)
 Q-Chem 5.4.0 for Intel X86 EM64T Linux

User input:
--------------------------------------------------------------
$molecule
0 1
C                 -2.1810480000     -3.8538090000      1.2183020000
C                 -0.7068570000     -3.8946360000      1.3768770000
C                  0.0165230000     -2.7864380000      1.5672900000
C                 -0.6201400000     -1.4493770000      1.6279750000
C                 -2.1013210000     -1.3779270000      1.4551030000
C                 -2.8244990000     -2.4955370000      1.2711100000
O                 -2.8282120000     -4.8665250000      1.0587490000
O                  0.0360020000     -0.4411460000      1.8135160000
Cl                -4.5451360000     -2.4657970000      1.0847160000
C                 -2.6984680000      0.0054440000      1.4526820000
O                 -2.8559040000      0.6526160000      0.4516930000
O                 -3.0003820000      0.3977910000      2.6923000000
C                 -3.5387770000      1.7341410000      2.8208240000
H                 -0.2655460000     -4.8836070000      1.3291890000
H                  1.0938060000     -2.8012110000      1.6874610000
H                 -3.7156630000      1.8691980000      3.8846330000
H                 -4.4686270000      1.8191160000      2.2582460000
H                 -2.8171200000      2.4626640000      2.4512340000
$end
$rem
MAX_SCF_CYCLES=200
BASIS  =  6-311++G(d,p)
GUI  =  2
JOB_TYPE  =  SP
METHOD  =  B3LYP
SOLVENT_METHOD = PCM
$end
$pcm
theory = CPCM
$end
$solvent
dielectric 37.219
opticaldielectric 1.43
$end

--------------------------------------------------------------

             Standard Nuclear Orientation (Angstroms)
    I     Atom           X                Y                Z
 ----------------------------------------------------------------
    1      C      -2.1810480000    -3.8538090000     1.2183020000
    2      C      -0.7068570000    -3.8946360000     1.3768770000
    3      C       0.0165230000    -2.7864380000     1.5672900000
    4      C      -0.6201400000    -1.4493770000     1.6279750000
    5      C      -2.1013210000    -1.3779270000     1.4551030000
    6      C      -2.8244990000    -2.4955370000     1.2711100000
    7      O      -2.8282120000    -4.8665250000     1.0587490000
    8      O       0.0360020000    -0.4411460000     1.8135160000
    9      Cl     -4.5451360000    -2.4657970000     1.0847160000
   10      C      -2.6984680000     0.0054440000     1.4526820000
   11      O      -2.8559040000     0.6526160000     0.4516930000
   12      O      -3.0003820000     0.3977910000     2.6923000000
   13      C      -3.5387770000     1.7341410000     2.8208240000
   14      H      -0.2655460000    -4.8836070000     1.3291890000
   15      H       1.0938060000    -2.8012110000     1.6874610000
   16      H      -3.7156630000     1.8691980000     3.8846330000
   17      H      -4.4686270000     1.8191160000     2.2582460000
   18      H      -2.8171200000     2.4626640000     2.4512340000
 ----------------------------------------------------------------

    9   -1069.1321419723      6.25e-06  Convergence criterion met
 Total energy in the final basis set =    -1069.1321419723

                    Orbital Energies (a.u.)
 --------------------------------------------------------------

 Alpha MOs
 -- Occupied --
******** -19.1962 -19.1614 -19.1588 -19.1470 -10.3395 -10.3099 -10.3079
-10.2883 -10.2448 -10.2296 -10.2235 -10.2226  -9.5019  -7.2664  -7.2570
 -7.2560  -1.1406  -1.0955  -1.0908  -1.0568  -0.9247  -0.8636  -0.8111
 -0.7513  -0.7228  -0.6669  -0.6287  -0.5919  -0.5588  -0.5475  -0.5166
 -0.5098  -0.4996  -0.4916  -0.4736  -0.4723  -0.4551  -0.4451  -0.4392
 -0.4299  -0.4132  -0.3904  -0.3819  -0.3477  -0.3344  -0.3298  -0.3234
 -0.3112  -0.3008  -0.2944

          Ground-State Mulliken Net Atomic Charges

     Atom                 Charge (a.u.)
  ----------------------------------------
      1 C                    -0.530054
      2 C                     0.123991
      3 C                     0.226789
      4 C                    -0.721997
      5 C                     0.530438
      6 C                     0.307818
      7 O                    -0.226761
      8 O                    -0.227035
      9 Cl                    0.552753
     10 C                    -0.720037
     11 O                    -0.206121
     12 O                     0.022238
     13 C                    -0.257231
     14 H                     0.274036
     15 H                     0.271764
     16 H                     0.189068
     17 H                     0.193615
     18 H                     0.196725
  ----------------------------------------
  Sum of atomic charges =     0.000000

                    Cartesian Multipole Moments
 -----------------------------------------------------------------
    Charge (ESU x 10^10)
                -0.0000
    Dipole Moment (Debye)
         X       1.2513      Y      -0.2997      Z       2.5110
       Tot       2.8215
    Quadrupole Moments (Debye-Ang)
        XX     -82.0701     XY     -19.2049     YY     -81.5521
        XZ      -8.0990     YZ       1.9827     ZZ     -74.5076

 Total job time:  18.23s(wall), 136.38s(cpu)
        *  Thank you very much for using Q-Chem.  Have a nice day.  *
