 Gaussian 16, Revision A.03,
 Gaussian 16:  ES64L-G16RevA.03 25-Dec-2016

 --------------------------------------
 #P UB3LYP/6-311++G(d,p) nosym opt freq
 --------------------------------------

 --------
 Oxidized
 --------
 Symbolic Z-matrix:
 Charge =  0 Multiplicity = 1

 SCF Done:  E(UB3LYP) =  -1069.11514829     A.U. after   18 cycles
 Optimization completed.
    -- Stationary point found.
 Normal termination of Gaussian 16 at Wed Jan 10 16:50:45 2024.

 ----------------------------------------------------------------------
 #P Geom=AllCheck Guess=TCheck SCRF=Check GenChk UB3LYP/6-311++G(d,p) F
 req
 ----------------------------------------------------------------------

 Structure from the checkpoint file:  "115.chk"
 --------
 Oxidized
 --------
 Charge =  0 Multiplicity = 1

                          Input orientation:
 ---------------------------------------------------------------------
 Center     Atomic      Atomic             Coordinates (Angstroms)
 Number     Number       Type             X           Y           Z
 ---------------------------------------------------------------------
      1          6           0       -2.181048   -3.853809    1.218302
      2          6           0       -0.706857   -3.894636    1.376877
      3          6           0        0.016523   -2.786438    1.567290
      4          6           0       -0.620140   -1.449377    1.627975
      5          6           0       -2.101321   -1.377927    1.455103
      6          6           0       -2.824499   -2.495537    1.271110
      7          8           0       -2.828212   -4.866525    1.058749
      8          8           0        0.036002   -0.441146    1.813516
      9         17           0       -4.545136   -2.465797    1.084716
     10          6           0       -2.698468    0.005444    1.452682
     11          8           0       -2.855904    0.652616    0.451693
     12          8           0       -3.000382    0.397791    2.692300
     13          6           0       -3.538777    1.734141    2.820824
     14          1           0       -0.265546   -4.883607    1.329189
     15          1           0        1.093806   -2.801211    1.687461
     16          1           0       -3.715663    1.869198    3.884633
     17          1           0       -4.468627    1.819116    2.258246
     18          1           0       -2.817120    2.462664    2.451234
 ---------------------------------------------------------------------

 SCF Done:  E(UB3LYP) =  -1069.11514829     A.U. after    1 cycles

 Alpha  occ. eigenvalues -- -101.58699 -19.19642 -19.16217 -19.15927 -19.14105
 Alpha  occ. eigenvalues --  -10.33526 -10.31173 -10.30941 -10.29037 -10.24723
 Alpha  occ. eigenvalues --  -10.24287 -10.23652 -10.23552  -9.50144  -7.26628
 Alpha  occ. eigenvalues --   -7.25650  -7.25541  -1.13916  -1.09589  -1.09067
 Alpha  occ. eigenvalues --   -1.05281  -0.92636  -0.87077  -0.81639  -0.75824
 Alpha  occ. eigenvalues --   -0.72913  -0.67395  -0.63403  -0.59696  -0.56205
 Alpha  occ. eigenvalues --   -0.55050  -0.52216  -0.50459  -0.50361  -0.49500
 Alpha  occ. eigenvalues --   -0.47557  -0.47471  -0.45915  -0.45107  -0.44109
 Alpha  occ. eigenvalues --   -0.43693  -0.41539  -0.39173  -0.38661  -0.34664
 Alpha  occ. eigenvalues --   -0.33533  -0.33173  -0.32494  -0.31038  -0.30249
 Alpha  occ. eigenvalues --   -0.29365
 Alpha virt. eigenvalues --   -0.15522  -0.05695  -0.02747  -0.02264  -0.01257
 Alpha virt. eigenvalues --   -0.00992  -0.00248   0.01631   0.01857   0.02810
 Alpha virt. eigenvalues --    0.03162   0.04141   0.04582   0.05481   0.06335

  Beta  occ. eigenvalues -- -101.58699 -19.19642 -19.16217 -19.15927 -19.14105
  Beta  occ. eigenvalues --  -10.33526 -10.31173 -10.30941 -10.29037 -10.24723
  Beta  occ. eigenvalues --  -10.24287 -10.23652 -10.23552  -9.50144  -7.26628
  Beta  occ. eigenvalues --   -7.25650  -7.25541  -1.13916  -1.09589  -1.09067
  Beta  occ. eigenvalues --   -1.05281  -0.92636  -0.87077  -0.81639  -0.75824
  Beta  occ. eigenvalues --   -0.72913  -0.67395  -0.63403  -0.59696  -0.56205
  Beta  occ. eigenvalues --   -0.55050  -0.52216  -0.50459  -0.50361  -0.49500
  Beta  occ. eigenvalues --   -0.47557  -0.47471  -0.45915  -0.45107  -0.44109
  Beta  occ. eigenvalues --   -0.43693  -0.41539  -0.39173  -0.38661  -0.34664
  Beta  occ. eigenvalues --   -0.33533  -0.33173  -0.32494  -0.31038  -0.30249
  Beta  occ. eigenvalues --   -0.29365
  Beta virt. eigenvalues --   -0.15522  -0.05695  -0.02747  -0.02264  -0.01257
  Beta virt. eigenvalues --   -0.00992  -0.00248   0.01631   0.01857   0.02810
  Beta virt. eigenvalues --    0.03162   0.04141   0.04582   0.05481   0.06335

 Mulliken charges and spin densities:
               1          2
     1  C   -0.657479   0.000000
     2  C    0.137459   0.000000
     3  C    0.261810  -0.000000
     4  C   -0.777532   0.000000
     5  C    0.484356  -0.000000
     6  C    0.389494   0.000000
     7  O   -0.157517   0.000000
     8  O   -0.163781   0.000000
     9  Cl   0.570798  -0.000000
    10  C   -0.756678   0.000000
    11  O   -0.136065  -0.000000
    12  O    0.044988   0.000000
    13  C   -0.224029  -0.000000
    14  H    0.231665  -0.000000
    15  H    0.229872  -0.000000
    16  H    0.163303   0.000000
    17  H    0.175912  -0.000000
    18  H    0.183422  -0.000000
 Sum of Mulliken charges =  -0.00000  -0.00000

 Dipole moment (field-independent basis, Debye):
    X=              0.8420    Y=              0.0099    Z=              1.9569  Tot=              2.1304
 Quadrupole moment (field-independent basis, Debye-Ang):
   XX=            -81.0192   YY=            -82.0086   ZZ=            -76.2411
   XY=            -15.7834   XZ=             -6.6256   YZ=              2.3304

  Exact polarizability: 130.019  13.586 149.537   6.673  12.289  77.835
 Approx polarizability: 211.785  70.668 252.836  18.517  17.499 125.334

                      1                      2                      3
                      A                      A                      A
 Frequencies --     34.6090                62.5189                82.3009
 Red. masses --      5.9935                 9.3601                 6.7266
 Frc consts  --      0.0042                 0.0216                 0.0268
 IR Inten    --      2.4179                 0.4043                 9.3718

                      4                      5                      6
                      A                      A                      A
 Frequencies --     96.3699               128.1518               133.3765
 Red. masses --      3.3770                 1.2486                 7.6893
 Frc consts  --      0.0185                 0.0121                 0.0806
 IR Inten    --      1.3240                 0.0731                 0.7016

                      7                      8                      9
                      A                      A                      A
 Frequencies --    197.8859               226.9909               258.3556
 Red. masses --      7.3069                 9.2716                 4.8408
 Frc consts  --      0.1686                 0.2815                 0.1904
 IR Inten    --      2.4884                 0.4091                 0.2244

                     10                     11                     12
                      A                      A                      A
 Frequencies --    283.0559               313.4322               348.3014
 Red. masses --      5.0937                 7.4939                17.9394
 Frc consts  --      0.2405                 0.4338                 1.2822
 IR Inten    --     11.1208                 5.2845                 2.6939

                     13                     14                     15
                      A                      A                      A
 Frequencies --    364.5023               452.6742               518.7830
 Red. masses --      7.0528                11.5172                 8.8696
 Frc consts  --      0.5521                 1.3905                 1.4065
 IR Inten    --      7.2102                 7.3845                35.1010

                     16                     17                     18
                      A                      A                      A
 Frequencies --    563.5016               571.6720               631.6484
 Red. masses --      5.6259                 4.5899                 3.1772
 Frc consts  --      1.0525                 0.8838                 0.7469
 IR Inten    --      5.6467                 0.4029                 4.3403

                     19                     20                     21
                      A                      A                      A
 Frequencies --    676.5451               715.6890               786.1043
 Red. masses --      8.7969                 7.2069                10.2178
 Frc consts  --      2.3723                 2.1749                 3.7202
 IR Inten    --      2.8342                 0.8510                 1.1280

                     22                     23                     24
                      A                      A                      A
 Frequencies --    800.9973               858.7069               904.4633
 Red. masses --      6.5051                 2.0697                 7.0604
 Frc consts  --      2.4591                 0.8992                 3.4030
 IR Inten    --     14.5347                37.6117                12.4340

                     25                     26                     27
                      A                      A                      A
 Frequencies --    917.7688               986.8323              1008.9026
 Red. masses --     10.1154                 7.5782                 1.2441
 Frc consts  --      5.0199                 4.3482                 0.7461
 IR Inten    --     43.7715                48.5570                 0.0315

                     28                     29                     30
                      A                      A                      A
 Frequencies --   1076.7571              1119.9931              1169.2177
 Red. masses --      4.9541                 1.5025                 1.2794
 Frc consts  --      3.3842                 1.1104                 1.0305
 IR Inten    --    151.2328                21.6589                 1.0903

                     31                     32                     33
                      A                      A                      A
 Frequencies --   1204.1406              1235.5021              1284.0918
 Red. masses --      1.6492                 3.9867                 3.0869
 Frc consts  --      1.4089                 3.5855                 2.9989
 IR Inten    --     14.8084               260.7455                37.8916

                     34                     35                     36
                      A                      A                      A
 Frequencies --   1312.7232              1385.5067              1469.4273
 Red. masses --      5.1261                 1.8504                 1.2070
 Frc consts  --      5.2046                 2.0929                 1.5355
 IR Inten    --    324.4397                12.3173                17.1421

                     37                     38                     39
                      A                      A                      A
 Frequencies --   1484.5005              1493.9859              1637.6225
 Red. masses --      1.0443                 1.0458                10.6369
 Frc consts  --      1.3559                 1.3753                16.8071
 IR Inten    --     10.6685                10.3694                61.4491

                     40                     41                     42
                      A                      A                      A
 Frequencies --   1681.5166              1722.6421              1744.2172
 Red. masses --      8.5557                11.2923                12.0348
 Frc consts  --     14.2531                19.7434                21.5720
 IR Inten    --      0.5503               181.2077               258.1081

                     43                     44                     45
                      A                      A                      A
 Frequencies --   1801.2548              3057.8803              3136.1820
 Red. masses --     12.0152                 1.0292                 1.1078
 Frc consts  --     22.9685                 5.6701                 6.4199
 IR Inten    --    273.5065                26.1283                10.7070

                     46                     47                     48
                      A                      A                      A
 Frequencies --   3168.7790              3182.3162              3199.2689
 Red. masses --      1.1069                 1.0875                 1.0996
 Frc consts  --      6.5484                 6.4889                 6.6311
 IR Inten    --      9.2914                 0.1835                 0.7638

 - Thermochemistry -
 -------------------
 Temperature   298.150 Kelvin.  Pressure   1.00000 Atm.
 Atom     1 has atomic number  6 and mass  12.00000

 Molecular mass:   199.98764 amu.
 Principal axes and moments of inertia in atomic units:
                           1         2         3
     Eigenvalues --  1800.426312927.090374322.29252
           X           -0.16905   0.98222  -0.08159
           Y            0.97125   0.15194  -0.18324
           Z            0.16759   0.11022   0.97968
 This molecule is an asymmetric top.
 Rotational symmetry number  1.
 Warning -- assumption of classical behavior for rotation
           may cause significant error
 Rotational temperatures (Kelvin)      0.04811     0.02959     0.02004
 Rotational constants (GHZ):           1.00240     0.61656     0.41754
 Zero-point vibrational energy     307988.6 (Joules/Mol)
                                   73.61103 (Kcal/Mol)
 Warning -- explicit consideration of  17 degrees of freedom as
           vibrations may cause significant error
 Vibrational temperatures:     49.79    89.95   118.41   138.65   184.38
          (Kelvin)            191.90   284.71   326.59   371.72   407.25
                              450.96   501.13   524.44   651.30   746.41
                              810.75   822.51   908.80   973.40  1029.72
                             1131.03  1152.46  1235.49  1301.32  1320.46
                             1419.83  1451.59  1549.21  1611.42  1682.24
                             1732.49  1777.61  1847.52  1888.72  1993.44
                             2114.18  2135.87  2149.51  2356.17  2419.33
                             2478.50  2509.54  2591.60  4399.61  4512.27
                             4559.17  4578.64  4603.03

 Zero-point correction=                           0.117307 (Hartree/Particle)
 Thermal correction to Energy=                    0.129554
 Thermal correction to Enthalpy=                  0.130498
 Thermal correction to Gibbs Free Energy=         0.077201
 Sum of electronic and zero-point Energies=          -1068.997842
 Sum of electronic and thermal Energies=             -1068.985594
 Sum of electronic and thermal Enthalpies=           -1068.984650
 Sum of electronic and thermal Free Energies=        -1069.037947

                     E (Thermal)             CV                S
                      KCal/Mol        Cal/Mol-Kelvin    Cal/Mol-Kelvin
 Total                   81.296             42.559            112.173
 Electronic               0.000              0.000              0.000
 Translational            0.889              2.981             41.784
 Rotational               0.889              2.981             31.499
 Vibrational             79.519             36.597             38.890
 Vibration     1          0.594              1.983              5.546
 Vibration     2          0.597              1.972              4.376
 Vibration     3          0.600              1.961              3.835
 Vibration     4          0.603              1.952              3.526
 Vibration     5          0.611              1.925              2.974
 Vibration     6          0.613              1.920              2.897
 Vibration     7          0.637              1.843              2.153
 Vibration     8          0.651              1.800              1.903
 Vibration     9          0.667              1.749              1.673
 Vibration    10          0.682              1.705              1.515
 Vibration    11          0.701              1.648              1.344
 Vibration    12          0.726              1.579              1.174
 Vibration    13          0.738              1.545              1.103
 Vibration    14          0.811              1.355              0.788
 Vibration    15          0.874              1.208              0.613
 Vibration    16          0.919              1.110              0.517
 Vibration    17          0.928              1.093              0.501

                           ! Non-Optimized Parameters !
 Normal termination of Gaussian 16 at Wed Jan 10 17:04:38 2024.
