 Q-Chem 5.4, Q-Chem, Inc., Pleasanton, CA (2021)
 Q-Chem 5.4.0 for Intel X86 EM64T Linux

User input:
--------------------------------------------------------------
$molecule
-1 2
Cl                -3.0876310000      0.6713610000      0.1056380000
C                 -1.3581100000      0.2925840000      0.0464480000
C                 -0.9614530000     -1.0133090000      0.0338630000
C                  0.4327630000     -1.4164130000     -0.0137470000
O                  0.7812060000     -2.6202600000     -0.0248310000
C                  1.3581200000     -0.2924660000     -0.0464460000
C                  0.9614770000      1.0133010000     -0.0338630000
C                 -0.4325710000      1.4164410000      0.0137490000
O                 -0.7812850000      2.6202770000      0.0248320000
Cl                 3.0875910000     -0.6716480000     -0.1056440000
H                 -1.6875800000     -1.8168230000      0.0594660000
H                  1.6874730000      1.8169560000     -0.0594660000
$end
$rem
MAX_SCF_CYCLES=200
BASIS  =  6-311++G(d,p)
GUI  =  2
JOB_TYPE  =  SP
METHOD  =  B3LYP
SOLVENT_METHOD = COSMO
$end
$solvent
dielectric 37.219
opticaldielectric 1.43
$end

--------------------------------------------------------------

             Standard Nuclear Orientation (Angstroms)
    I     Atom           X                Y                Z
 ----------------------------------------------------------------
    1      Cl      3.1186714889     0.5189333015    -0.0000023660
    2      C       1.3707661588     0.2307574556    -0.0000200791
    3      C       0.5190321565     1.2972474338     0.0000134177
    4      C      -0.9261605342     1.1557699154     0.0000274872
    5      O      -1.6953336146     2.1452929061    -0.0000160477
    6      C      -1.3707012214    -0.2309511229     0.0000242199
    7      C      -0.5190268868    -1.2973292389    -0.0000108930
    8      C       0.9260231880    -1.1559472395    -0.0000171624
    9      O       1.6954438026    -2.1453598522     0.0000160519
   10      Cl     -3.1187101789    -0.5187323174    -0.0000035228
   11      H       0.8968769250     2.3125227722     0.0000213811
   12      H      -0.8966978634    -2.3126871551    -0.0000232479
 ----------------------------------------------------------------

    9   -1300.9005412375      7.42e-06  Convergence criterion met
 Total energy in the final basis set =    -1300.9005412375
    5   -1300.9807006934      4.34e-06  Convergence criterion met
 Total energy in the final basis set =    -1300.9807006934

                    Orbital Energies (a.u.)
 --------------------------------------------------------------

 Alpha MOs
 -- Occupied --
********-101.5548 -19.0980 -19.0980 -10.2467 -10.2466 -10.2363 -10.2363
-10.1841 -10.1841  -9.4693  -9.4692  -7.2334  -7.2334  -7.2245  -7.2245
 -7.2238  -7.2238  -1.0257  -1.0231  -0.8842  -0.8696  -0.8100  -0.7400
 -0.6949  -0.6182  -0.5755  -0.5080  -0.4874  -0.4612  -0.4390  -0.4356
 -0.4277  -0.4087  -0.4020  -0.3897  -0.3610  -0.3472  -0.3204  -0.3180
 -0.2902  -0.2664  -0.2628  -0.2583  -0.1815

 Beta MOs
 -- Occupied --
********-101.5548 -19.0911 -19.0911 -10.2453 -10.2453 -10.2350 -10.2350
-10.1832 -10.1831  -9.4692  -9.4692  -7.2335  -7.2335  -7.2244  -7.2243
 -7.2238  -7.2238  -1.0138  -1.0109  -0.8806  -0.8683  -0.8065  -0.7367
 -0.6852  -0.6138  -0.5711  -0.5057  -0.4833  -0.4577  -0.4346  -0.4221
 -0.4215  -0.4042  -0.3877  -0.3792  -0.3509  -0.3357  -0.3199  -0.3176
 -0.2635  -0.2599  -0.2564  -0.2512

          Ground-State Mulliken Net Atomic Charges

     Atom                 Charge (a.u.)    Spin (a.u.)
  --------------------------------------------------------
      1 Cl                    0.213359       0.005228
      2 C                     1.055111       0.088651
      3 C                    -0.556866       0.071787
      4 C                    -0.978918       0.096505
      5 O                    -0.462059       0.244251
      6 C                     1.055808       0.088704
      7 C                    -0.556732       0.071793
      8 C                    -0.978919       0.096461
      9 O                    -0.462019       0.244400
     10 Cl                    0.213299       0.005231
     11 H                     0.228985      -0.006505
     12 H                     0.228951      -0.006506
  --------------------------------------------------------
  Sum of atomic charges =    -1.000000

                    Cartesian Multipole Moments
 -----------------------------------------------------------------
    Charge (ESU x 10^10)
                -4.8032
    Dipole Moment (Debye)
         X      -0.0003      Y      -0.0006      Z      -0.0009
       Tot       0.0011
    Quadrupole Moments (Debye-Ang)
        XX    -101.1168     XY      18.8719     YY     -94.2058
        XZ       0.0001     YZ       0.0002     ZZ     -73.8196

 Total job time:  16.56s(wall), 115.71s(cpu)
        *  Thank you very much for using Q-Chem.  Have a nice day.  *
