 Gaussian 16, Revision A.03,
 Gaussian 16:  ES64L-G16RevA.03 25-Dec-2016

 ----------------------------------------------------------------
 #P UB3LYP/6-311++G(d,p) SCRF=(PCM,Solvent=n,n-DiMethylFormamide)
 ----------------------------------------------------------------

 ------------------
 Quinone PCM in DMF
 ------------------
 Symbolic Z-matrix:
 Charge = -2 Multiplicity = 1

                         Standard orientation:
 ---------------------------------------------------------------------
 Center     Atomic      Atomic             Coordinates (Angstroms)
 Number     Number       Type             X           Y           Z
 ---------------------------------------------------------------------
      1          6           0       -0.555955    2.518730   -0.042582
      2          6           0       -1.813836    1.934862   -0.055147
      3          6           0       -1.928927    0.545614   -0.041320
      4          6           0        0.598358    1.731070   -0.018429
      5          6           0        0.494411    0.313262   -0.013508
      6          6           0       -0.785469   -0.263654   -0.026936
      7          6           0        1.908237    2.413510   -0.004653
      8          6           0        3.177419    1.518967    0.032811
      9          6           0        2.969289    0.084558    0.027886
     10          6           0        1.740478   -0.484581    0.004665
     11          8           0        2.036246    3.626977   -0.020320
     12          8           0        4.281774    2.046436    0.061552
     13          1           0       -0.438493    3.596419   -0.053626
     14          1           0       -2.717827    2.530170   -0.088698
     15         16           0       -3.624591   -0.164004    0.018402
     16          1           0       -0.895903   -1.339682   -0.033280
     17          1           0        3.846002   -0.551565    0.044494
     18         16           0        1.704819   -2.333388   -0.011503
     19          8           0        3.133401   -2.735360    0.028594
     20          8           0        1.021112   -2.653350   -1.286577
     21          8           0        0.943399   -2.681127    1.211003
     22          8           0       -3.863198   -0.384467    1.468644
     23          8           0       -3.564809   -1.399669   -0.793193
     24          8           0       -4.475608    0.911674   -0.564203
 ---------------------------------------------------------------------

 SCF Done:  E(UB3LYP) =  -1782.18732391     A.U. after   17 cycles

 The electronic state is 1-A.
 Alpha  occ. eigenvalues --  -89.05496 -89.04904 -19.14419 -19.14172 -19.09944
 Alpha  occ. eigenvalues --  -19.09940 -19.09877 -19.09510 -19.09334 -19.09197
 Alpha  occ. eigenvalues --  -10.28580 -10.28207 -10.23759 -10.22505 -10.21721
 Alpha  occ. eigenvalues --  -10.20950 -10.20362 -10.20190 -10.19786 -10.19731
 Alpha  occ. eigenvalues --   -8.11365  -8.10779  -6.07623  -6.07612  -6.07577
 Alpha  occ. eigenvalues --   -6.07042  -6.07035  -6.06975  -1.11990  -1.11297
 Alpha  occ. eigenvalues --   -1.08235  -1.05510  -0.98384  -0.98281  -0.97877
 Alpha  occ. eigenvalues --   -0.97414  -0.89827  -0.84338  -0.79005  -0.76905
 Alpha  occ. eigenvalues --   -0.72304  -0.66197  -0.64615  -0.62661  -0.59085
 Alpha  occ. eigenvalues --   -0.57244  -0.54621  -0.52514  -0.51164  -0.49508
 Alpha  occ. eigenvalues --   -0.48417  -0.46717  -0.46334  -0.46298  -0.45845
 Alpha  occ. eigenvalues --   -0.45614  -0.45409  -0.45053  -0.44736  -0.42404
 Alpha  occ. eigenvalues --   -0.41224  -0.40525  -0.39246  -0.37766  -0.34817
 Alpha  occ. eigenvalues --   -0.34233  -0.34012  -0.33734  -0.33657  -0.32109
 Alpha  occ. eigenvalues --   -0.31340  -0.30591  -0.29995  -0.29794  -0.29522
 Alpha  occ. eigenvalues --   -0.29287  -0.27347  -0.26511  -0.26328  -0.25967
 Alpha  occ. eigenvalues --   -0.25809
 Alpha virt. eigenvalues --   -0.13738  -0.06165  -0.02955   0.00042   0.00302
 Alpha virt. eigenvalues --    0.01180   0.01666   0.03250   0.03547   0.04212
 Alpha virt. eigenvalues --    0.04262   0.05527   0.06033   0.06160   0.06321

  Beta  occ. eigenvalues --  -89.05496 -89.04904 -19.14419 -19.14172 -19.09944
  Beta  occ. eigenvalues --  -19.09940 -19.09877 -19.09510 -19.09334 -19.09197
  Beta  occ. eigenvalues --  -10.28580 -10.28207 -10.23759 -10.22505 -10.21721
  Beta  occ. eigenvalues --  -10.20950 -10.20362 -10.20190 -10.19786 -10.19731
  Beta  occ. eigenvalues --   -8.11365  -8.10779  -6.07623  -6.07612  -6.07577
  Beta  occ. eigenvalues --   -6.07042  -6.07035  -6.06975  -1.11990  -1.11297
  Beta  occ. eigenvalues --   -1.08235  -1.05510  -0.98384  -0.98281  -0.97877
  Beta  occ. eigenvalues --   -0.97414  -0.89827  -0.84338  -0.79005  -0.76905
  Beta  occ. eigenvalues --   -0.72304  -0.66197  -0.64615  -0.62661  -0.59085
  Beta  occ. eigenvalues --   -0.57244  -0.54621  -0.52514  -0.51164  -0.49508
  Beta  occ. eigenvalues --   -0.48417  -0.46717  -0.46334  -0.46298  -0.45845
  Beta  occ. eigenvalues --   -0.45614  -0.45409  -0.45053  -0.44736  -0.42404
  Beta  occ. eigenvalues --   -0.41224  -0.40525  -0.39246  -0.37766  -0.34817
  Beta  occ. eigenvalues --   -0.34233  -0.34012  -0.33734  -0.33657  -0.32109
  Beta  occ. eigenvalues --   -0.31340  -0.30591  -0.29995  -0.29794  -0.29522
  Beta  occ. eigenvalues --   -0.29287  -0.27347  -0.26511  -0.26328  -0.25967
  Beta  occ. eigenvalues --   -0.25809
  Beta virt. eigenvalues --   -0.13738  -0.06165  -0.02955   0.00042   0.00302
  Beta virt. eigenvalues --    0.01180   0.01666   0.03250   0.03547   0.04212
  Beta virt. eigenvalues --    0.04262   0.05527   0.06033   0.06160   0.06321

 Mulliken charges and spin densities:
               1          2
     1  C    0.181584  -0.000000
     2  C   -0.405077   0.000000
     3  C   -0.384974  -0.000000
     4  C    0.698750  -0.000000
     5  C    0.334821   0.000000
     6  C   -0.858813  -0.000000
     7  C   -0.721305   0.000000
     8  C    0.292005  -0.000000
     9  C    0.116196   0.000000
    10  C   -0.667856   0.000000
    11  O   -0.268351  -0.000000
    12  O   -0.309228   0.000000
    13  H    0.191447   0.000000
    14  H    0.239535   0.000000
    15  S    0.668608  -0.000000
    16  H    0.169469   0.000000
    17  H    0.275038  -0.000000
    18  S    0.546440   0.000000
    19  O   -0.293454   0.000000
    20  O   -0.335297  -0.000000
    21  O   -0.332052  -0.000000
    22  O   -0.354951  -0.000000
    23  O   -0.379123  -0.000000
    24  O   -0.403412  -0.000000
 Sum of Mulliken charges =  -2.00000  -0.00000

 Dipole moment (field-independent basis, Debye):
    X=              6.3629    Y=             10.4090    Z=             -0.2891  Tot=             12.2032
 Quadrupole moment (field-independent basis, Debye-Ang):
   XX=           -258.1170   YY=           -192.8086   ZZ=           -147.9110
   XY=             -5.4773   XZ=              0.7157   YZ=             -0.4247

 Normal termination of Gaussian 16 at Sun Jan 28 18:44:36 2024.
