 Q-Chem 5.4, Q-Chem, Inc., Pleasanton, CA (2021)
 Q-Chem 5.4.0 for Intel X86 EM64T Linux

User input:
--------------------------------------------------------------
$molecule
-1 2
Cl                 3.0864630000      0.3933530000     -0.0153120000
C                  1.3487560000      0.1373410000     -0.0082180000
C                  0.8278920000     -1.1405930000     -0.0590090000
Cl                 1.8812580000     -2.5413720000     -0.1318380000
C                 -0.5992630000     -1.4144790000     -0.0559670000
O                 -1.0627240000     -2.5609550000     -0.1016410000
C                 -1.5219770000     -0.2148920000      0.0066980000
O                 -2.7500160000     -0.3676260000      0.0129810000
C                 -0.8902700000      1.0926750000      0.0575870000
C                  0.4795600000      1.2670060000      0.0507430000
Cl                 1.1740040000      2.8791630000      0.1142740000
Cl                -1.9736840000      2.4703800000      0.1297030000
$end

$rem
BASIS  =  6-311++G(d,p)
GUI  =  2
JOB_TYPE  =  SP
METHOD  =  B3LYP
SCF_CONVERGENCE  = 8
SOLVENT_METHOD = sm12
$end

$smx
solvent dimethylformamide
charges CM5
$end

--------------------------------------------------------------

             Standard Nuclear Orientation (Angstroms)
    I     Atom           X                Y                Z
 ----------------------------------------------------------------
    1      Cl      3.0864630000     0.3933530000    -0.0153120000
    2      C       1.3487560000     0.1373410000    -0.0082180000
    3      C       0.8278920000    -1.1405930000    -0.0590090000
    4      Cl      1.8812580000    -2.5413720000    -0.1318380000
    5      C      -0.5992630000    -1.4144790000    -0.0559670000
    6      O      -1.0627240000    -2.5609550000    -0.1016410000
    7      C      -1.5219770000    -0.2148920000     0.0066980000
    8      O      -2.7500160000    -0.3676260000     0.0129810000
    9      C      -0.8902700000     1.0926750000     0.0575870000
   10      C       0.4795600000     1.2670060000     0.0507430000
   11      Cl      1.1740040000     2.8791630000     0.1142740000
   12      Cl     -1.9736840000     2.4703800000     0.1297030000
 ----------------------------------------------------------------

   17   -2220.1264130036      3.34e-09  Convergence criterion met
 Total energy in the final basis set =    -2220.2024169727

                    Orbital Energies (a.u.)
 --------------------------------------------------------------

 Alpha MOs
 -- Occupied --
********-101.5664-101.5548-101.5547 -19.0912 -19.0912 -10.2572 -10.2568
-10.2404 -10.2402 -10.2374 -10.2374  -9.4804  -9.4804  -9.4688  -9.4687
 -7.2451  -7.2451  -7.2356  -7.2356  -7.2347  -7.2345  -7.2335  -7.2334
 -7.2241  -7.2240  -7.2229  -7.2228  -1.0346  -1.0077  -0.9285  -0.8869
 -0.8608  -0.8455  -0.8023  -0.7133  -0.6970  -0.5919  -0.5886  -0.5273
 -0.4937  -0.4582  -0.4516  -0.4422  -0.4281  -0.4125  -0.4099  -0.4001
 -0.3920  -0.3501  -0.3430  -0.3412  -0.3311  -0.3306  -0.3126  -0.3014
 -0.2952  -0.2690  -0.2392  -0.2348  -0.1804

 Beta MOs
 -- Occupied --
********-101.5663-101.5548-101.5547 -19.0846 -19.0846 -10.2556 -10.2552
-10.2397 -10.2395 -10.2363 -10.2362  -9.4804  -9.4803  -9.4688  -9.4687
 -7.2452  -7.2451  -7.2352  -7.2351  -7.2346  -7.2345  -7.2335  -7.2335
 -7.2239  -7.2238  -7.2229  -7.2228  -1.0239  -0.9957  -0.9253  -0.8855
 -0.8592  -0.8446  -0.7990  -0.7103  -0.6882  -0.5881  -0.5838  -0.5252
 -0.4917  -0.4552  -0.4411  -0.4384  -0.4234  -0.4073  -0.4065  -0.3833
 -0.3831  -0.3424  -0.3398  -0.3358  -0.3300  -0.3141  -0.3123  -0.3005
 -0.2849  -0.2630  -0.2330  -0.2213

          Ground-State Mulliken Net Atomic Charges

     Atom                 Charge (a.u.)    Spin (a.u.)
  --------------------------------------------------------
      1 Cl                    0.860631       0.014726
      2 C                    -0.076819       0.075869
      3 C                     0.136345       0.087713
      4 Cl                    0.463915       0.005983
      5 C                    -1.539889       0.068704
      6 O                    -0.343001       0.246974
      7 C                    -1.541466       0.068877
      8 O                    -0.342356       0.247072
      9 C                     0.138812       0.087609
     10 C                    -0.081157       0.075741
     11 Cl                    0.860247       0.014717
     12 Cl                    0.464738       0.006014
  --------------------------------------------------------
  Sum of atomic charges =    -1.000000

                    Cartesian Multipole Moments
 -----------------------------------------------------------------
    Charge (ESU x 10^10)
                -4.8032
    Dipole Moment (Debye)
         X       4.9343      Y       3.7926      Z       0.1151
       Tot       6.2245
    Quadrupole Moments (Debye-Ang)
        XX    -124.1585     XY      -4.2823     YY    -121.8312
        XZ       0.0941     YZ      -1.0243     ZZ     -97.6436

 Total job time:  115.27s(wall), 841.11s(cpu)
        *  Thank you very much for using Q-Chem.  Have a nice day.  *
