 Q-Chem 5.4, Q-Chem, Inc., Pleasanton, CA (2021)
 Q-Chem 5.4.0 for Intel X86 EM64T Linux

User input:
--------------------------------------------------------------
$molecule
-2 1
C                 -2.4751200000      1.4057120000      0.3137840000
C                 -1.9653920000     -0.0451810000      0.4353040000
C                 -2.7594190000     -0.9744620000     -0.5073690000
C                 -0.4618800000     -0.1564750000      0.2137230000
C                  0.3392710000     -0.6780360000      1.2342850000
C                  1.7614640000     -0.8283270000      1.1693350000
O                  2.4782020000     -1.3135050000      2.1363310000
C                  2.3422310000     -0.3814380000     -0.0713940000
C                  1.5495990000      0.1360770000     -1.0947750000
C                  0.1240320000      0.2758140000     -1.0361150000
O                 -0.5699040000      0.7493980000     -2.0270350000
C                  3.8364970000     -0.5037340000     -0.2272340000
H                 -2.2404190000      1.7836750000     -0.6846720000
H                 -3.5584340000      1.4683640000      0.4834740000
H                 -1.9771640000      2.0461780000      1.0518430000
H                 -2.1618850000     -0.3790440000      1.4647780000
H                 -2.5783860000     -0.6765680000     -1.5432030000
H                 -2.4292640000     -2.0119570000     -0.3854090000
H                 -3.8410410000     -0.9349290000     -0.2987110000
H                 -0.1328400000     -1.0008870000      2.1639060000
H                  2.0199860000      0.4665590000     -2.0230060000
H                  4.3665040000      0.0173050000      0.5827470000
H                  4.1685360000     -0.0934350000     -1.1896440000
H                  4.1648250000     -1.5519950000     -0.1609440000
$end
$rem
MAX_SCF_CYCLES=200
BASIS  =  6-311++G(d,p)
GUI  =  2
JOB_TYPE  =  SP
METHOD  =  B3LYP
SOLVENT_METHOD = PCM
$end
$pcm
theory = CPCM
$end
$solvent
dielectric 37.219
opticaldielectric 1.43
$end

--------------------------------------------------------------

             Standard Nuclear Orientation (Angstroms)
    I     Atom           X                Y                Z
 ----------------------------------------------------------------
    1      C      -2.4751200000     1.4057120000     0.3137840000
    2      C      -1.9653920000    -0.0451810000     0.4353040000
    3      C      -2.7594190000    -0.9744620000    -0.5073690000
    4      C      -0.4618800000    -0.1564750000     0.2137230000
    5      C       0.3392710000    -0.6780360000     1.2342850000
    6      C       1.7614640000    -0.8283270000     1.1693350000
    7      O       2.4782020000    -1.3135050000     2.1363310000
    8      C       2.3422310000    -0.3814380000    -0.0713940000
    9      C       1.5495990000     0.1360770000    -1.0947750000
   10      C       0.1240320000     0.2758140000    -1.0361150000
   11      O      -0.5699040000     0.7493980000    -2.0270350000
   12      C       3.8364970000    -0.5037340000    -0.2272340000
   13      H      -2.2404190000     1.7836750000    -0.6846720000
   14      H      -3.5584340000     1.4683640000     0.4834740000
   15      H      -1.9771640000     2.0461780000     1.0518430000
   16      H      -2.1618850000    -0.3790440000     1.4647780000
   17      H      -2.5783860000    -0.6765680000    -1.5432030000
   18      H      -2.4292640000    -2.0119570000    -0.3854090000
   19      H      -3.8410410000    -0.9349290000    -0.2987110000
   20      H      -0.1328400000    -1.0008870000     2.1639060000
   21      H       2.0199860000     0.4665590000    -2.0230060000
   22      H       4.3665040000     0.0173050000     0.5827470000
   23      H       4.1685360000    -0.0934350000    -1.1896440000
   24      H       4.1648250000    -1.5519950000    -0.1609440000
 ----------------------------------------------------------------

    9    -539.1277799208      8.46e-06  Convergence criterion met
 Total energy in the final basis set =     -539.1277799208

                    Orbital Energies (a.u.)
 --------------------------------------------------------------

 Alpha MOs
 -- Occupied --
-19.0114 -19.0062 -10.1589 -10.1578 -10.1485 -10.1371 -10.1345 -10.1325
-10.1218 -10.1191 -10.1122 -10.1120  -0.9234  -0.9188  -0.7858  -0.7613
 -0.7108  -0.6592  -0.6549  -0.6235  -0.5583  -0.5456  -0.4884  -0.4470
 -0.4227  -0.4071  -0.4014  -0.3913  -0.3843  -0.3823  -0.3665  -0.3533
 -0.3500  -0.3337  -0.3325  -0.3145  -0.3084  -0.3039  -0.2994  -0.2970
 -0.2171  -0.1991  -0.1910  -0.1841  -0.1098

          Ground-State Mulliken Net Atomic Charges

     Atom                 Charge (a.u.)
  ----------------------------------------
      1 C                    -0.678196
      2 C                     0.187330
      3 C                    -0.694246
      4 C                     0.918172
      5 C                    -0.209266
      6 C                    -0.804206
      7 O                    -0.772988
      8 C                     0.932768
      9 C                    -0.711451
     10 C                    -0.660545
     11 O                    -0.731591
     12 C                    -0.414181
     13 H                     0.170860
     14 H                     0.132442
     15 H                     0.120014
     16 H                     0.155557
     17 H                     0.166070
     18 H                     0.124277
     19 H                     0.134757
     20 H                     0.116423
     21 H                     0.100809
     22 H                     0.140972
     23 H                     0.132837
     24 H                     0.143381
  ----------------------------------------
  Sum of atomic charges =    -2.000000

                    Cartesian Multipole Moments
 -----------------------------------------------------------------
    Charge (ESU x 10^10)
                -9.6064
    Dipole Moment (Debye)
         X      -8.8558      Y       2.7069      Z      -0.7381
       Tot       9.2896
    Quadrupole Moments (Debye-Ang)
        XX    -114.2574     XY      15.5778     YY     -94.0082
        XZ     -26.3732     YZ      17.6079     ZZ    -119.6787

 Total job time:  28.70s(wall), 188.68s(cpu)
        *  Thank you very much for using Q-Chem.  Have a nice day.  *
