 Gaussian 16, Revision A.03,
 Gaussian 16:  ES64L-G16RevA.03 25-Dec-2016

 ----------------------------------------------------------------------
 #P UB3LYP/6-311++G(d,p) nosym opt freq SCRF=(PCM,Solvent=n,n-DiMethylF
 ormamide)
 ----------------------------------------------------------------------

 --------
 Oxidized
 --------
 Symbolic Z-matrix:
 Charge =  0 Multiplicity = 1

 SCF Done:  E(UB3LYP) =  -5685.95166448     A.U. after   16 cycles
 SCF Done:  E(UB3LYP) =  -5685.95171066     A.U. after   11 cycles
 SCF Done:  E(UB3LYP) =  -5685.95171344     A.U. after   11 cycles
 SCF Done:  E(UB3LYP) =  -5685.95171977     A.U. after   10 cycles
 SCF Done:  E(UB3LYP) =  -5685.95172113     A.U. after    9 cycles
 SCF Done:  E(UB3LYP) =  -5685.95172135     A.U. after    9 cycles
 SCF Done:  E(UB3LYP) =  -5685.95172159     A.U. after    8 cycles
 SCF Done:  E(UB3LYP) =  -5685.95172168     A.U. after    9 cycles
 SCF Done:  E(UB3LYP) =  -5685.95172171     A.U. after    8 cycles
 Optimization completed.
    -- Stationary point found.
 Normal termination of Gaussian 16 at Sat Feb 10 10:24:26 2024.

 ----------------------------------------------------------------------
 #P Geom=AllCheck Guess=TCheck SCRF=Check GenChk UB3LYP/6-311++G(d,p) F
 req
 ----------------------------------------------------------------------

 Structure from the checkpoint file:  "019.chk"
 --------
 Oxidized
 --------
 Charge =  0 Multiplicity = 1

                          Input orientation:
 ---------------------------------------------------------------------
 Center     Atomic      Atomic             Coordinates (Angstroms)
 Number     Number       Type             X           Y           Z
 ---------------------------------------------------------------------
      1          6           0       -2.922418    0.418423    0.530630
      2          6           0       -1.960859   -0.406787   -0.347550
      3          6           0       -2.304890   -0.324862   -1.847966
      4          6           0       -0.496150   -0.116252   -0.055386
      5          6           0        0.179393    1.032982   -0.247825
      6         35           0       -0.614938    2.618426   -0.963772
      7          6           0        1.630829    1.207952    0.075022
      8          8           0        2.200083    2.263686   -0.125630
      9          6           0        2.384679    0.049692    0.657449
     10          6           0        1.716666   -1.099223    0.854510
     11         35           0        2.585690   -2.628177    1.587149
     12          6           0        0.275567   -1.281622    0.526874
     13          8           0       -0.275994   -2.347730    0.722976
     14          6           0        3.832726    0.260815    0.976275
     15          1           0       -2.904172    1.480544    0.285552
     16          1           0       -2.681762    0.304906    1.590695
     17          1           0       -3.941609    0.053655    0.377574
     18          1           0       -2.097653   -1.448152   -0.057738
     19          1           0       -2.262074    0.694424   -2.231933
     20          1           0       -1.627928   -0.945217   -2.440750
     21          1           0       -3.320811   -0.699934   -1.997875
     22          1           0        4.452334   -0.447520    0.419923
     23          1           0        4.135804    1.273937    0.723979
     24          1           0        4.017488    0.086034    2.039572
 ---------------------------------------------------------------------

 SCF Done:  E(UB3LYP) =  -5685.95172171     A.U. after    1 cycles

 Alpha  occ. eigenvalues -- -482.85067-482.84828 -62.50338 -62.50107 -56.32380
 Alpha  occ. eigenvalues --  -56.32151 -56.32002 -56.31955 -56.31767 -56.31721
 Alpha  occ. eigenvalues --  -19.15423 -19.15399 -10.30600 -10.30552 -10.26597
 Alpha  occ. eigenvalues --  -10.26401 -10.23673 -10.23502 -10.19595 -10.18356
 Alpha  occ. eigenvalues --  -10.16602 -10.16584  -8.71307  -8.71082  -6.54462
 Alpha  occ. eigenvalues --   -6.54245  -6.53200  -6.53065  -6.52969  -6.52838
 Alpha  occ. eigenvalues --   -2.65556  -2.65336  -2.65217  -2.65114  -2.64994
 Alpha  occ. eigenvalues --   -2.64895  -2.64110  -2.64108  -2.63880  -2.63878
 Alpha  occ. eigenvalues --   -1.09011  -1.08814  -0.89686  -0.86587  -0.81145
 Alpha  occ. eigenvalues --   -0.80233  -0.77415  -0.72091  -0.69857  -0.69387
 Alpha  occ. eigenvalues --   -0.63320  -0.60682  -0.58078  -0.55233  -0.50292
 Alpha  occ. eigenvalues --   -0.48342  -0.47774  -0.46616  -0.45277  -0.44303
 Alpha  occ. eigenvalues --   -0.43869  -0.43398  -0.42802  -0.42253  -0.41489
 Alpha  occ. eigenvalues --   -0.39731  -0.39562  -0.37062  -0.36127  -0.34827
 Alpha  occ. eigenvalues --   -0.34575  -0.34221  -0.31131  -0.30935  -0.30097
 Alpha  occ. eigenvalues --   -0.29399  -0.28936  -0.27253
 Alpha virt. eigenvalues --   -0.14458  -0.04195  -0.02984  -0.02874  -0.01389
 Alpha virt. eigenvalues --   -0.00648   0.00440   0.01587   0.01711   0.02291
 Alpha virt. eigenvalues --    0.02946   0.03476   0.03993   0.04769   0.04880

  Beta  occ. eigenvalues -- -482.85067-482.84828 -62.50338 -62.50107 -56.32380
  Beta  occ. eigenvalues --  -56.32151 -56.32002 -56.31955 -56.31767 -56.31721
  Beta  occ. eigenvalues --  -19.15423 -19.15399 -10.30600 -10.30552 -10.26597
  Beta  occ. eigenvalues --  -10.26401 -10.23673 -10.23502 -10.19595 -10.18356
  Beta  occ. eigenvalues --  -10.16602 -10.16584  -8.71307  -8.71082  -6.54462
  Beta  occ. eigenvalues --   -6.54245  -6.53200  -6.53065  -6.52969  -6.52838
  Beta  occ. eigenvalues --   -2.65556  -2.65336  -2.65217  -2.65114  -2.64994
  Beta  occ. eigenvalues --   -2.64895  -2.64110  -2.64108  -2.63880  -2.63878
  Beta  occ. eigenvalues --   -1.09011  -1.08814  -0.89686  -0.86587  -0.81145
  Beta  occ. eigenvalues --   -0.80233  -0.77415  -0.72091  -0.69857  -0.69387
  Beta  occ. eigenvalues --   -0.63320  -0.60682  -0.58078  -0.55233  -0.50292
  Beta  occ. eigenvalues --   -0.48342  -0.47774  -0.46616  -0.45277  -0.44303
  Beta  occ. eigenvalues --   -0.43869  -0.43398  -0.42802  -0.42253  -0.41489
  Beta  occ. eigenvalues --   -0.39731  -0.39562  -0.37062  -0.36127  -0.34827
  Beta  occ. eigenvalues --   -0.34575  -0.34221  -0.31131  -0.30935  -0.30097
  Beta  occ. eigenvalues --   -0.29399  -0.28936  -0.27253
  Beta virt. eigenvalues --   -0.14458  -0.04195  -0.02984  -0.02874  -0.01389
  Beta virt. eigenvalues --   -0.00648   0.00440   0.01587   0.01711   0.02291
  Beta virt. eigenvalues --    0.02946   0.03476   0.03993   0.04769   0.04880

 Mulliken charges and spin densities:
               1          2
     1  C   -0.682488   0.000000
     2  C    0.260600  -0.000000
     3  C   -0.681745   0.000000
     4  C    1.209453   0.000000
     5  C    0.181807  -0.000000
     6  Br  -0.021905   0.000000
     7  C   -1.264621  -0.000000
     8  O   -0.188466  -0.000000
     9  C    0.908130   0.000000
    10  C    0.116384   0.000000
    11  Br  -0.084731   0.000000
    12  C   -1.029090   0.000000
    13  O   -0.180038  -0.000000
    14  C   -0.304819  -0.000000
    15  H    0.155187  -0.000000
    16  H    0.157852  -0.000000
    17  H    0.162654  -0.000000
    18  H    0.228286  -0.000000
    19  H    0.154875   0.000000
    20  H    0.157164   0.000000
    21  H    0.162808  -0.000000
    22  H    0.192447  -0.000000
    23  H    0.197407   0.000000
    24  H    0.192850  -0.000000
 Sum of Mulliken charges =  -0.00000  -0.00000

 Dipole moment (field-independent basis, Debye):
    X=             -0.1915    Y=             -0.1797    Z=              0.0364  Tot=              0.2651
 Quadrupole moment (field-independent basis, Debye-Ang):
   XX=            -98.8381   YY=           -124.1025   ZZ=           -106.8405
   XY=             -6.2183   XZ=              4.1239   YZ=              4.0570

  Exact polarizability: 232.146  13.614 300.107  18.840 -47.200 164.566
 Approx polarizability: 251.797  44.705 381.733   8.804 -59.174 185.012

                      1                      2                      3
                      A                      A                      A
 Frequencies --     26.7512                35.5785                49.7828
 Red. masses --      9.5171                 2.4899                 2.3141
 Frc consts  --      0.0040                 0.0019                 0.0034
 IR Inten    --      5.3091                 1.4945                 0.1563

                      4                      5                      6
                      A                      A                      A
 Frequencies --     56.5458                86.0107               149.4851
 Red. masses --      2.8368                 2.0555                 3.0455
 Frc consts  --      0.0053                 0.0090                 0.0401
 IR Inten    --      0.8553                 2.9696                 2.1080

                      7                      8                      9
                      A                      A                      A
 Frequencies --    153.4557               165.5927               193.8385
 Red. masses --      8.2706                 6.1499                45.5479
 Frc consts  --      0.1148                 0.0994                 1.0083
 IR Inten    --      0.2104                 0.6810                 0.1112

                     10                     11                     12
                      A                      A                      A
 Frequencies --    207.0492               209.8002               234.6073
 Red. masses --      1.1572                 1.3151                 4.0477
 Frc consts  --      0.0292                 0.0341                 0.1313
 IR Inten    --      0.2743                 0.5623                 3.1096

                     13                     14                     15
                      A                      A                      A
 Frequencies --    236.4844               258.2732               324.8379
 Red. masses --      3.2955                 2.7406                 5.7326
 Frc consts  --      0.1086                 0.1077                 0.3564
 IR Inten    --      0.0779                 0.7617                 1.5034

                     16                     17                     18
                      A                      A                      A
 Frequencies --    336.4283               375.5995               417.6238
 Red. masses --      8.1418                 5.2409                 3.4815
 Frc consts  --      0.5429                 0.4356                 0.3578
 IR Inten    --      0.0576                 3.5277                 0.3668

                     19                     20                     21
                      A                      A                      A
 Frequencies --    452.4316               454.1850               497.2748
 Red. masses --      4.9545                 5.3355                 9.1225
 Frc consts  --      0.5975                 0.6485                 1.3291
 IR Inten    --      0.5477                26.1684                26.6203

                     22                     23                     24
                      A                      A                      A
 Frequencies --    533.1082               590.1445               704.0464
 Red. masses --      3.7719                 7.3815                 7.4153
 Frc consts  --      0.6316                 1.5147                 2.1656
 IR Inten    --     20.4007                 1.4105               157.8811

                     25                     26                     27
                      A                      A                      A
 Frequencies --    719.5193               730.3903               788.8812
 Red. masses --      4.6414                 7.7928                 9.5991
 Frc consts  --      1.4157                 2.4494                 3.5197
 IR Inten    --     32.9209                30.7703                 1.8114

                     28                     29                     30
                      A                      A                      A
 Frequencies --    804.4846               869.1126               902.0107
 Red. masses --      7.3126                 3.3160                 3.2470
 Frc consts  --      2.7884                 1.4758                 1.5565
 IR Inten    --     25.3864                17.3721                72.1241

                     31                     32                     33
                      A                      A                      A
 Frequencies --    940.3942               968.4434              1019.7182
 Red. masses --      1.1780                 1.4783                 3.5463
 Frc consts  --      0.6138                 0.8169                 2.1726
 IR Inten    --      2.3901                 0.0295               129.5516

                     34                     35                     36
                      A                      A                      A
 Frequencies --   1039.0526              1053.0835              1112.8331
 Red. masses --      1.4915                 2.3668                 2.6674
 Frc consts  --      0.9488                 1.5465                 1.9462
 IR Inten    --      0.8589                73.3164               144.8055

                     37                     38                     39
                      A                      A                      A
 Frequencies --   1115.1703              1142.6370              1199.2841
 Red. masses --      2.6362                 2.2576                 2.2338
 Frc consts  --      1.9316                 1.7366                 1.8929
 IR Inten    --      7.1245               181.6855                30.5131

                     40                     41                     42
                      A                      A                      A
 Frequencies --   1216.2234              1257.1696              1363.3159
 Red. masses --      6.9110                 6.3603                 1.2589
 Frc consts  --      6.0231                 5.9226                 1.3786
 IR Inten    --    233.9498               162.7448                 0.9494

                     43                     44                     45
                      A                      A                      A
 Frequencies --   1394.6308              1395.0405              1397.4276
 Red. masses --      1.3063                 1.2052                 1.2157
 Frc consts  --      1.4970                 1.3820                 1.3987
 IR Inten    --     14.2708                 7.6865                12.8334

                     46                     47                     48
                      A                      A                      A
 Frequencies --   1416.2789              1466.4312              1475.1930
 Red. masses --      1.2323                 1.0795                 1.0422
 Frc consts  --      1.4563                 1.3678                 1.3363
 IR Inten    --      2.0604                35.1821                18.4990

                     49                     50                     51
                      A                      A                      A
 Frequencies --   1478.8375              1489.7835              1490.8316
 Red. masses --      1.0401                 1.0473                 1.0409
 Frc consts  --      1.3402                 1.3696                 1.3631
 IR Inten    --      0.5656                 2.9663                25.7040

                     52                     53                     54
                      A                      A                      A
 Frequencies --   1504.1989              1619.8285              1659.0319
 Red. masses --      1.0647                 8.7304                10.3633
 Frc consts  --      1.4193                13.4965                16.8058
 IR Inten    --     16.4824               207.1436                22.4533

                     55                     56                     57
                      A                      A                      A
 Frequencies --   1700.2132              1710.2965              3032.0926
 Red. masses --     12.9702                12.7691                 1.0361
 Frc consts  --     22.0904                22.0066                 5.6124
 IR Inten    --   1079.8658                 5.1286                52.0319

                     58                     59                     60
                      A                      A                      A
 Frequencies --   3035.2378              3040.8172              3087.0108
 Red. masses --      1.0369                 1.0392                 1.0859
 Frc consts  --      5.6280                 5.6612                 6.0968
 IR Inten    --     38.2094                 3.7309                 3.3843

                     61                     62                     63
                      A                      A                      A
 Frequencies --   3091.0126              3091.5357              3092.8631
 Red. masses --      1.0999                 1.1024                 1.1013
 Frc consts  --      6.1917                 6.2080                 6.2069
 IR Inten    --      6.9369                24.7336                64.2612

                     64                     65                     66
                      A                      A                      A
 Frequencies --   3118.4100              3124.8959              3154.7629
 Red. masses --      1.1005                 1.0975                 1.0983
 Frc consts  --      6.3055                 6.3143                 6.4404
 IR Inten    --      1.3750                48.8357                 8.6102

 - Thermochemistry -
 -------------------
 Temperature   298.150 Kelvin.  Pressure   1.00000 Atm.
 Atom     1 has atomic number  6 and mass  12.00000

 Molecular mass:   319.90475 amu.
 Principal axes and moments of inertia in atomic units:
                           1         2         3
     Eigenvalues --  2627.241017705.786469921.01489
           X           -0.59078   0.76912  -0.24380
           Y            0.70814   0.63909   0.30017
           Z           -0.38668  -0.00469   0.92220
 This molecule is an asymmetric top.
 Rotational symmetry number  1.
 Warning -- assumption of classical behavior for rotation
           may cause significant error
 Rotational temperatures (Kelvin)      0.03297     0.01124     0.00873
 Rotational constants (GHZ):           0.68693     0.23421     0.18191
 Zero-point vibrational energy     460905.1 (Joules/Mol)
                                  110.15897 (Kcal/Mol)
 Warning -- explicit consideration of  23 degrees of freedom as
           vibrations may cause significant error
 Vibrational temperatures:     38.49    51.19    71.63    81.36   123.75
          (Kelvin)            215.08   220.79   238.25   278.89   297.90
                              301.86   337.55   340.25   371.60   467.37
                              484.05   540.40   600.87   650.95   653.47
                              715.47   767.02   849.09  1012.97  1035.23
                             1050.87  1135.02  1157.47  1250.46  1297.79
                             1353.02  1393.37  1467.15  1494.97  1515.15
                             1601.12  1604.48  1644.00  1725.50  1749.87
                             1808.79  1961.51  2006.56  2007.15  2010.59
                             2037.71  2109.87  2122.47  2127.72  2143.47
                             2144.97  2164.21  2330.57  2386.98  2446.23
                             2460.74  4362.51  4367.03  4375.06  4441.52
                             4447.28  4448.03  4449.94  4486.70  4496.03
                             4539.00

 Zero-point correction=                           0.175549 (Hartree/Particle)
 Thermal correction to Energy=                    0.191078
 Thermal correction to Enthalpy=                  0.192022
 Thermal correction to Gibbs Free Energy=         0.129658
 Sum of electronic and zero-point Energies=          -5685.776172
 Sum of electronic and thermal Energies=             -5685.760643
 Sum of electronic and thermal Enthalpies=           -5685.759699
 Sum of electronic and thermal Free Energies=        -5685.822064

                     E (Thermal)             CV                S
                      KCal/Mol        Cal/Mol-Kelvin    Cal/Mol-Kelvin
 Total                  119.903             53.877            131.258
 Electronic               0.000              0.000              0.000
 Translational            0.889              2.981             43.184
 Rotational               0.889              2.981             33.662
 Vibrational            118.126             47.915             54.412
 Vibration     1          0.593              1.984              6.057
 Vibration     2          0.594              1.982              5.491
 Vibration     3          0.595              1.978              4.826
 Vibration     4          0.596              1.975              4.574
 Vibration     5          0.601              1.959              3.749
 Vibration     6          0.618              1.903              2.679
 Vibration     7          0.619              1.899              2.629
 Vibration     8          0.624              1.885              2.485
 Vibration     9          0.635              1.848              2.191
 Vibration    10          0.641              1.830              2.070
 Vibration    11          0.642              1.826              2.045
 Vibration    12          0.654              1.788              1.843
 Vibration    13          0.655              1.785              1.829
 Vibration    14          0.667              1.749              1.673
 Vibration    15          0.709              1.626              1.286
 Vibration    16          0.717              1.603              1.229
 Vibration    17          0.746              1.522              1.057
 Vibration    18          0.781              1.432              0.900
 Vibration    19          0.811              1.356              0.788
 Vibration    20          0.813              1.352              0.783
 Vibration    21          0.853              1.256              0.665
 Vibration    22          0.888              1.177              0.580
 Vibration    23          0.947              1.053              0.467

                           ! Non-Optimized Parameters !
 Normal termination of Gaussian 16 at Sat Feb 10 10:47:30 2024.
