 Q-Chem 5.4, Q-Chem, Inc., Pleasanton, CA (2021)
 Q-Chem 5.4.0 for Intel X86 EM64T Linux

User input:
--------------------------------------------------------------
$molecule
-1 2
C                  3.7130260000      2.2247790000     -0.4577410000
O                  2.3683140000      1.8137190000     -0.3760710000
C                  2.0892050000      0.4831960000     -0.2391580000
C                  3.1006510000     -0.4670170000     -0.1792070000
C                  2.7859640000     -1.8340770000     -0.0376500000
C                  1.4756660000     -2.2362420000      0.0422640000
C                  0.4231840000     -1.2937850000     -0.0155060000
C                 -0.9405730000     -1.8197440000      0.0785510000
O                 -1.1683690000     -3.0515540000      0.2049300000
C                 -2.0214020000     -0.8425150000      0.0186520000
C                 -3.3628170000     -1.2795730000      0.1040550000
C                 -4.4094200000     -0.3816910000      0.0506300000
C                 -4.1445930000      0.9979970000     -0.0916660000
C                 -2.8395280000      1.4431250000     -0.1766970000
C                 -1.7531010000      0.5437610000     -0.1242780000
C                 -0.3841370000      1.0875930000     -0.2207860000
O                 -0.2160200000      2.3208220000     -0.3464570000
C                  0.7076650000      0.1052920000     -0.1596420000
H                  4.2243630000      1.7942820000     -1.3294060000
H                  4.2798730000      1.9655930000      0.4467370000
H                  3.6822210000      3.3101350000     -0.5614720000
H                  4.1384420000     -0.1692400000     -0.2401760000
H                  3.5910680000     -2.5617160000      0.0071110000
H                  1.1999150000     -3.2775680000      0.1514190000
H                 -3.5324830000     -2.3446140000      0.2127460000
H                 -5.4348990000     -0.7337640000      0.1176860000
H                 -4.9662860000      1.7071120000     -0.1340690000
H                 -2.6059310000      2.4956910000     -0.2863140000
$end
$rem
MAX_SCF_CYCLES=200
BASIS  =  6-311++G(d,p)
GUI  =  2
JOB_TYPE  =  SP
METHOD  =  B3LYP
SOLVENT_METHOD = COSMO
$end
$solvent
dielectric 37.219
opticaldielectric 1.43
$end

--------------------------------------------------------------

             Standard Nuclear Orientation (Angstroms)
    I     Atom           X                Y                Z
 ----------------------------------------------------------------
    1      C       4.1568734196     1.7817825525     0.0013067820
    2      O       2.7680636208     1.5470535028     0.0007669538
    3      C       2.3137530295     0.2584340506     0.0002660095
    4      C       3.1904240893    -0.8190490016     0.0003297479
    5      C       2.6959463392    -2.1394318355    -0.0001825327
    6      C       1.3424546422    -2.3697878365    -0.0005323973
    7      C       0.4240338040    -1.2947138441    -0.0004618875
    8      C      -0.9990226660    -1.6414457412    -0.0003251950
    9      O      -1.3892912241    -2.8384875043    -0.0002013744
   10      C      -1.9409423363    -0.5280981287     0.0000798569
   11      C      -3.3300065538    -0.7892639093     0.0008576132
   12      C      -4.2485496228     0.2406403102     0.0011494119
   13      C      -3.8018031577     1.5801692323     0.0005736453
   14      C      -2.4477236289     1.8540887314    -0.0002005196
   15      C      -1.4898758327     0.8175297374    -0.0003839863
   16      C      -0.0592456977     1.1814341319    -0.0010768336
   17      O       0.2720534807     2.3877300343    -0.0022355617
   18      C       0.8928350227     0.0615112439    -0.0003860975
   19      H       4.6460033512     1.3685535444    -0.8912103123
   20      H       4.6453603400     1.3682798533     0.8940382101
   21      H       4.2710526506     2.8665266603     0.0015043175
   22      H       4.2596445581    -0.6572906776     0.0009248382
   23      H       3.3976091999    -2.9684817283    -0.0003141846
   24      H       0.9300307850    -3.3708971149    -0.0007350778
   25      H      -3.6403782759    -1.8278118663     0.0012472209
   26      H      -5.3128509682     0.0231056296     0.0017761219
   27      H      -4.5223953748     2.3929227681     0.0007485925
   28      H      -2.0755883906     2.8719265096    -0.0007015723
 ----------------------------------------------------------------

   10    -803.5606738011      8.89e-06  Convergence criterion met
 Total energy in the final basis set =     -803.5606738011
    5    -803.6497346018      5.48e-06  Convergence criterion met
 Total energy in the final basis set =     -803.6497346018

                    Orbital Energies (a.u.)
 --------------------------------------------------------------

 Alpha MOs
 -- Occupied --
-19.1514 -19.0768 -19.0753 -10.2390 -10.2302 -10.2237 -10.2132 -10.1790
-10.1753 -10.1726 -10.1724 -10.1717 -10.1716 -10.1710 -10.1688 -10.1683
-10.1673 -10.1613  -1.0703  -1.0060  -1.0029  -0.8605  -0.8493  -0.7844
 -0.7591  -0.7493  -0.7399  -0.6956  -0.6672  -0.6329  -0.6188  -0.5810
 -0.5582  -0.5380  -0.5307  -0.4910  -0.4801  -0.4684  -0.4675  -0.4589
 -0.4512  -0.4275  -0.4229  -0.4225  -0.4169  -0.4097  -0.3976  -0.3840
 -0.3795  -0.3728  -0.3597  -0.3482  -0.3458  -0.3360  -0.3335  -0.3197
 -0.2696  -0.2566  -0.2497  -0.2468  -0.2336  -0.2319  -0.1419

 Beta MOs
 -- Occupied --
-19.1514 -19.0713 -19.0700 -10.2391 -10.2288 -10.2216 -10.2132 -10.1783
-10.1744 -10.1721 -10.1716 -10.1714 -10.1711 -10.1705 -10.1687 -10.1685
-10.1665 -10.1612  -1.0702  -0.9968  -0.9931  -0.8579  -0.8481  -0.7805
 -0.7575  -0.7475  -0.7379  -0.6945  -0.6599  -0.6312  -0.6163  -0.5803
 -0.5564  -0.5357  -0.5294  -0.4889  -0.4790  -0.4669  -0.4665  -0.4575
 -0.4502  -0.4263  -0.4225  -0.4112  -0.4101  -0.4084  -0.3957  -0.3782
 -0.3709  -0.3607  -0.3589  -0.3470  -0.3359  -0.3348  -0.3329  -0.3143
 -0.2504  -0.2494  -0.2443  -0.2418  -0.2288  -0.2250

          Ground-State Mulliken Net Atomic Charges

     Atom                 Charge (a.u.)    Spin (a.u.)
  --------------------------------------------------------
      1 C                    -0.308651      -0.000293
      2 O                    -0.157298      -0.000105
      3 C                    -0.058462       0.010022
      4 C                    -0.032446       0.068840
      5 C                    -0.451259       0.039903
      6 C                    -0.019866       0.040333
      7 C                     0.463594       0.040104
      8 C                    -0.451396       0.126575
      9 O                    -0.498541       0.202570
     10 C                    -0.076565       0.001131
     11 C                     0.066799       0.041535
     12 C                    -0.528217       0.017878
     13 C                    -0.496465       0.050772
     14 C                     0.088215       0.016963
     15 C                     0.279964       0.052850
     16 C                    -0.375978       0.076072
     17 O                    -0.491731       0.195598
     18 C                     0.172590       0.037008
     19 H                     0.166328       0.000280
     20 H                     0.166264       0.000277
     21 H                     0.202871      -0.000160
     22 H                     0.208290      -0.004362
     23 H                     0.213513      -0.003101
     24 H                     0.165677      -0.002322
     25 H                     0.177042      -0.002198
     26 H                     0.201163      -0.001867
     27 H                     0.202800      -0.003760
     28 H                     0.171764      -0.000539
  --------------------------------------------------------
  Sum of atomic charges =    -1.000000

                    Cartesian Multipole Moments
 -----------------------------------------------------------------
    Charge (ESU x 10^10)
                -4.8032
    Dipole Moment (Debye)
         X       4.7293      Y       1.4369      Z       0.0075
       Tot       4.9427
    Quadrupole Moments (Debye-Ang)
        XX     -92.1390     XY     -10.3294     YY    -138.8146
        XZ      -0.0000     YZ       0.0135     ZZ    -111.4954

 Total job time:  96.62s(wall), 732.93s(cpu)
        *  Thank you very much for using Q-Chem.  Have a nice day.  *
