 Q-Chem 5.4, Q-Chem, Inc., Pleasanton, CA (2021)
 Q-Chem 5.4.0 for Intel X86 EM64T Linux

User input:
--------------------------------------------------------------
$molecule
-1 2
C                  3.0916320000     -2.4897160000     -2.3576020000
C                  2.6629170000     -3.5710240000     -3.1068680000
C                  1.3422500000     -3.6075730000     -3.5963880000
C                  2.2257680000     -1.4151800000     -2.0721320000
C                  0.8972230000     -1.4524820000     -2.5651540000
C                  0.4777470000     -2.5617260000     -3.3259800000
C                  2.7098050000     -0.2798460000     -1.2715600000
C                  1.7627870000      0.7880650000     -1.0142390000
C                  0.4647120000      0.7532010000     -1.5108930000
C                 -0.0407450000     -0.3545580000     -2.2923600000
O                  3.8952010000     -0.2537080000     -0.8372980000
O                 -1.2281300000     -0.3850290000     -2.7229450000
H                  3.3427450000     -4.3915530000     -3.3180360000
H                  1.0046870000     -4.4560040000     -4.1847900000
C                  2.2635430000      1.9456360000     -0.1833910000
H                  4.1016770000     -2.4342460000     -1.9679780000
H                 -0.5440860000     -2.5617850000     -3.6880620000
H                  2.3260390000      2.8714470000     -0.7705540000
H                  3.2633620000      1.7131300000      0.1837960000
H                  1.6066810000      2.1481720000      0.6688360000
C                 -0.5243140000      1.8786420000     -1.2506930000
C                 -1.3793370000      1.6095270000     -0.0375160000
C                 -1.6100150000      2.3864610000      1.0307840000
C                 -2.4954560000      1.8869890000      2.1561300000
C                 -1.0494070000      3.7764970000      1.2178860000
C                 -1.7219250000      1.5116240000      3.4462720000
C                 -2.6342590000      1.0901280000      4.5637020000
C                 -2.7423680000     -0.1092600000      5.1515610000
C                 -1.9165480000     -1.3199700000      4.7956000000
C                 -3.7434800000     -0.3424050000      6.2582750000
H                 -1.1902690000      1.9237400000     -2.1199470000
H                 -0.0060450000      2.8354780000     -1.1701220000
H                 -1.8640690000      0.6354690000     -0.0662530000
H                 -3.0514970000      1.0069710000      1.8200390000
H                 -3.2429810000      2.6531100000      2.4098470000
H                 -0.4106410000      4.0845980000      0.3907280000
H                 -0.4575310000      3.8546400000      2.1376650000
H                 -1.8620330000      4.5100550000      1.3058490000
H                 -1.1409750000      2.3809460000      3.7789250000
H                 -0.9960240000      0.7339220000      3.2010760000
H                 -3.3064130000      1.8736110000      4.9168670000
H                 -1.2150320000     -1.1383860000      3.9827060000
H                 -2.5653090000     -2.1526190000      4.4981200000
H                 -1.3443390000     -1.6664230000      5.6652550000
H                 -4.3179360000      0.5595760000      6.4816900000
H                 -3.2442830000     -0.6664410000      7.1803460000
H                 -4.4489950000     -1.1387210000      5.9898080000
$end
$rem
MAX_SCF_CYCLES=200
BASIS  =  6-311++G(d,p)
GUI  =  2
JOB_TYPE  =  SP
METHOD  =  B3LYP
SOLVENT_METHOD = PCM
$end
$pcm
theory = CPCM
$end
$solvent
dielectric 37.219
opticaldielectric 1.43
$end

--------------------------------------------------------------

             Standard Nuclear Orientation (Angstroms)
    I     Atom           X                Y                Z
 ----------------------------------------------------------------
    1      C       3.0916320000    -2.4897160000    -2.3576020000
    2      C       2.6629170000    -3.5710240000    -3.1068680000
    3      C       1.3422500000    -3.6075730000    -3.5963880000
    4      C       2.2257680000    -1.4151800000    -2.0721320000
    5      C       0.8972230000    -1.4524820000    -2.5651540000
    6      C       0.4777470000    -2.5617260000    -3.3259800000
    7      C       2.7098050000    -0.2798460000    -1.2715600000
    8      C       1.7627870000     0.7880650000    -1.0142390000
    9      C       0.4647120000     0.7532010000    -1.5108930000
   10      C      -0.0407450000    -0.3545580000    -2.2923600000
   11      O       3.8952010000    -0.2537080000    -0.8372980000
   12      O      -1.2281300000    -0.3850290000    -2.7229450000
   13      H       3.3427450000    -4.3915530000    -3.3180360000
   14      H       1.0046870000    -4.4560040000    -4.1847900000
   15      C       2.2635430000     1.9456360000    -0.1833910000
   16      H       4.1016770000    -2.4342460000    -1.9679780000
   17      H      -0.5440860000    -2.5617850000    -3.6880620000
   18      H       2.3260390000     2.8714470000    -0.7705540000
   19      H       3.2633620000     1.7131300000     0.1837960000
   20      H       1.6066810000     2.1481720000     0.6688360000
   21      C      -0.5243140000     1.8786420000    -1.2506930000
   22      C      -1.3793370000     1.6095270000    -0.0375160000
   23      C      -1.6100150000     2.3864610000     1.0307840000
   24      C      -2.4954560000     1.8869890000     2.1561300000
   25      C      -1.0494070000     3.7764970000     1.2178860000
   26      C      -1.7219250000     1.5116240000     3.4462720000
   27      C      -2.6342590000     1.0901280000     4.5637020000
   28      C      -2.7423680000    -0.1092600000     5.1515610000
   29      C      -1.9165480000    -1.3199700000     4.7956000000
   30      C      -3.7434800000    -0.3424050000     6.2582750000
   31      H      -1.1902690000     1.9237400000    -2.1199470000
   32      H      -0.0060450000     2.8354780000    -1.1701220000
   33      H      -1.8640690000     0.6354690000    -0.0662530000
   34      H      -3.0514970000     1.0069710000     1.8200390000
   35      H      -3.2429810000     2.6531100000     2.4098470000
   36      H      -0.4106410000     4.0845980000     0.3907280000
   37      H      -0.4575310000     3.8546400000     2.1376650000
   38      H      -1.8620330000     4.5100550000     1.3058490000
   39      H      -1.1409750000     2.3809460000     3.7789250000
   40      H      -0.9960240000     0.7339220000     3.2010760000
   41      H      -3.3064130000     1.8736110000     4.9168670000
   42      H      -1.2150320000    -1.1383860000     3.9827060000
   43      H      -2.5653090000    -2.1526190000     4.4981200000
   44      H      -1.3443390000    -1.6664230000     5.6652550000
   45      H      -4.3179360000     0.5595760000     6.4816900000
   46      H      -3.2442830000    -0.6664410000     7.1803460000
   47      H      -4.4489950000    -1.1387210000     5.9898080000
 ----------------------------------------------------------------

    8    -965.5275697919      4.76e-06  Convergence criterion met
 Total energy in the final basis set =     -965.5275697919

                    Orbital Energies (a.u.)
 --------------------------------------------------------------

 Alpha MOs
 -- Occupied --
-19.0736 -19.0733 -10.2181 -10.2177 -10.1724 -10.1705 -10.1700 -10.1696
-10.1691 -10.1679 -10.1674 -10.1674 -10.1673 -10.1654 -10.1616 -10.1612
-10.1592 -10.1561 -10.1560 -10.1560 -10.1555 -10.1549 -10.1493  -0.9989
 -0.9963  -0.8555  -0.8245  -0.8144  -0.7999  -0.7609  -0.7477  -0.7465
 -0.7261  -0.6870  -0.6864  -0.6769  -0.6566  -0.6424  -0.6058  -0.5936
 -0.5799  -0.5502  -0.5182  -0.5131  -0.5043  -0.4885  -0.4689  -0.4632
 -0.4607  -0.4424  -0.4366  -0.4320  -0.4265  -0.4229  -0.4182  -0.4146
 -0.4115  -0.4062  -0.3973  -0.3946  -0.3873  -0.3795  -0.3780  -0.3729
 -0.3720  -0.3669  -0.3651  -0.3601  -0.3588  -0.3532  -0.3465  -0.3399
 -0.3337  -0.3322  -0.3236  -0.3143  -0.2668  -0.2549  -0.2457  -0.2445
 -0.2396  -0.2339  -0.2231  -0.1493

 Beta MOs
 -- Occupied --
-19.0677 -19.0677 -10.2162 -10.2158 -10.1724 -10.1701 -10.1696 -10.1690
-10.1686 -10.1679 -10.1674 -10.1672 -10.1660 -10.1641 -10.1616 -10.1612
-10.1593 -10.1561 -10.1560 -10.1559 -10.1555 -10.1549 -10.1494  -0.9887
 -0.9859  -0.8535  -0.8233  -0.8126  -0.7986  -0.7594  -0.7457  -0.7454
 -0.7244  -0.6870  -0.6843  -0.6766  -0.6519  -0.6396  -0.6052  -0.5925
 -0.5770  -0.5474  -0.5174  -0.5126  -0.5032  -0.4862  -0.4685  -0.4607
 -0.4602  -0.4415  -0.4357  -0.4294  -0.4256  -0.4220  -0.4165  -0.4100
 -0.4059  -0.4044  -0.3962  -0.3888  -0.3853  -0.3795  -0.3765  -0.3713
 -0.3677  -0.3665  -0.3600  -0.3583  -0.3542  -0.3454  -0.3405  -0.3346
 -0.3321  -0.3303  -0.3235  -0.3137  -0.2484  -0.2460  -0.2431  -0.2401
 -0.2343  -0.2277  -0.2208

          Ground-State Mulliken Net Atomic Charges

     Atom                 Charge (a.u.)    Spin (a.u.)
  --------------------------------------------------------
      1 C                     0.064467       0.031184
      2 C                    -0.506414       0.025082
      3 C                    -0.469471       0.026895
      4 C                    -0.103456       0.000032
      5 C                     0.151065       0.013612
      6 C                    -0.021839       0.030100
      7 C                    -0.659970       0.118691
      8 C                     0.681624       0.096041
      9 C                     0.828032       0.101074
     10 C                    -0.838609       0.108212
     11 O                    -0.500825       0.220387
     12 O                    -0.484044       0.215067
     13 H                     0.191311      -0.002184
     14 H                     0.195853      -0.002232
     15 C                    -0.514144       0.002134
     16 H                     0.176157      -0.002468
     17 H                     0.172017      -0.002321
     18 H                     0.190139       0.006263
     19 H                     0.173063      -0.001826
     20 H                     0.184677       0.004419
     21 C                     0.152872       0.000915
     22 C                    -0.756070      -0.012746
     23 C                     0.669412       0.023500
     24 C                    -0.672372       0.000642
     25 C                    -0.775371      -0.001810
     26 C                    -0.204114       0.000458
     27 C                    -0.056105      -0.000304
     28 C                     0.286757       0.000294
     29 C                    -0.698424      -0.000063
     30 C                    -0.647458       0.000010
     31 H                     0.192399       0.003066
     32 H                     0.213050      -0.000242
     33 H                     0.215991      -0.002227
     34 H                     0.169563       0.000063
     35 H                     0.146517      -0.000032
     36 H                     0.123348       0.000294
     37 H                     0.169380       0.000076
     38 H                     0.169805      -0.000037
     39 H                     0.144798      -0.000021
     40 H                     0.122962      -0.000103
     41 H                     0.198045      -0.000017
     42 H                     0.150957       0.000099
     43 H                     0.154778       0.000001
     44 H                     0.151614       0.000004
     45 H                     0.157654       0.000004
     46 H                     0.152851       0.000005
     47 H                     0.157510       0.000010
  --------------------------------------------------------
  Sum of atomic charges =    -1.000019

                    Cartesian Multipole Moments
 -----------------------------------------------------------------
    Charge (ESU x 10^10)
                -4.8033
    Dipole Moment (Debye)
         X      -6.2307      Y       2.1764      Z       8.9658
       Tot      11.1330
    Quadrupole Moments (Debye-Ang)
        XX    -186.8679     XY       2.3882     YY    -137.0371
        XZ      -1.4020     YZ      -2.8408     ZZ    -163.8900

 Total job time:  148.39s(wall), 985.76s(cpu)
        *  Thank you very much for using Q-Chem.  Have a nice day.  *
