 Gaussian 16, Revision A.03,
 Gaussian 16:  ES64L-G16RevA.03 25-Dec-2016

 ----------------------------------------------------------------------
 #P UB3LYP/6-311++G(d,p) nosym opt freq SCRF=(PCM,Solvent=n,n-DiMethylF
 ormamide)
 ----------------------------------------------------------------------

 -------
 Reduced
 -------
 Symbolic Z-matrix:
 Charge = -2 Multiplicity = 1

 SCF Done:  E(UB3LYP) =  -1004.51670558     A.U. after   20 cycles
 SCF Done:  E(UB3LYP) =  -1004.51686574     A.U. after   16 cycles
 SCF Done:  E(UB3LYP) =  -1004.51600777     A.U. after   16 cycles
 SCF Done:  E(UB3LYP) =  -1004.51870954     A.U. after   16 cycles
 SCF Done:  E(UB3LYP) =  -1004.51955107     A.U. after   15 cycles
 SCF Done:  E(UB3LYP) =  -1004.51993472     A.U. after   16 cycles
 SCF Done:  E(UB3LYP) =  -1004.52039302     A.U. after   16 cycles
 SCF Done:  E(UB3LYP) =  -1004.52057268     A.U. after   16 cycles
 SCF Done:  E(UB3LYP) =  -1004.52073348     A.U. after   19 cycles
 SCF Done:  E(UB3LYP) =  -1004.52078317     A.U. after   14 cycles
 SCF Done:  E(UB3LYP) =  -1004.52080904     A.U. after   14 cycles
 SCF Done:  E(UB3LYP) =  -1004.52081789     A.U. after   18 cycles
 SCF Done:  E(UB3LYP) =  -1004.52082025     A.U. after   12 cycles
 SCF Done:  E(UB3LYP) =  -1004.52082086     A.U. after   12 cycles
 Optimization completed.
    -- Stationary point found.
 Normal termination of Gaussian 16 at Sat Feb 10 21:03:17 2024.

 ----------------------------------------------------------------------
 #P Geom=AllCheck Guess=TCheck SCRF=Check GenChk UB3LYP/6-311++G(d,p) F
 req
 ----------------------------------------------------------------------

 Structure from the checkpoint file:  "176-an.chk"
 -------
 Reduced
 -------
 Charge = -2 Multiplicity = 1

                          Input orientation:
 ---------------------------------------------------------------------
 Center     Atomic      Atomic             Coordinates (Angstroms)
 Number     Number       Type             X           Y           Z
 ---------------------------------------------------------------------
      1          7           0       -2.885230   -2.598393    0.054694
      2          6           0       -2.573071   -1.256087    0.221061
      3          6           0       -3.596263   -0.366058    0.565572
      4          6           0       -3.357637    0.998590    0.621732
      5          6           0       -2.096092    1.548268    0.367244
      6          7           0       -1.971894    2.949298    0.364746
      7          6           0       -1.000672    0.679244    0.093384
      8          6           0        0.370994    1.227247   -0.047297
      9          8           0        0.566676    2.501809   -0.094401
     10          6           0        1.438928    0.304936   -0.135695
     11          6           0        1.183344   -1.074916   -0.455313
     12          6           0        2.176536   -1.863888   -1.019361
     13          6           0        3.459993   -1.340147   -1.278958
     14          6           0        3.793138   -0.078624   -0.822133
     15          6           0        2.850119    0.708743   -0.123727
     16          7           0        3.332089    1.721078    0.677140
     17          8           0        2.636182    2.168064    1.648772
     18          8           0        4.522669    2.206457    0.473823
     19          6           0       -0.158496   -1.656656   -0.297416
     20          8           0       -0.325683   -2.903752   -0.430423
     21          6           0       -1.254779   -0.742150    0.000817
     22          1           0       -3.689869   -2.931940    0.564921
     23          1           0       -2.077470   -3.211433    0.002549
     24          1           0       -4.593688   -0.751029    0.753160
     25          1           0       -4.176600    1.672139    0.858490
     26          1           0       -2.534983    3.411777    1.066392
     27          1           0       -0.984996    3.219279    0.349720
     28          1           0        1.935878   -2.885771   -1.285134
     29          1           0        4.205440   -1.948037   -1.779833
     30          1           0        4.805433    0.291956   -0.914527
 ---------------------------------------------------------------------

 SCF Done:  E(UB3LYP) =  -1004.52082086     A.U. after    1 cycles

 Alpha  occ. eigenvalues --  -19.08154 -19.07397 -19.07254 -19.03683 -14.45160
 Alpha  occ. eigenvalues --  -14.30026 -14.28389 -10.22889 -10.20610 -10.19388
 Alpha  occ. eigenvalues --  -10.19343 -10.18474 -10.16697 -10.16659 -10.16495
 Alpha  occ. eigenvalues --  -10.16137 -10.16017 -10.15960 -10.15697 -10.15668
 Alpha  occ. eigenvalues --  -10.14226  -1.11886  -0.99994  -0.95793  -0.94549
 Alpha  occ. eigenvalues --   -0.90676  -0.88788  -0.84598  -0.81357  -0.77738
 Alpha  occ. eigenvalues --   -0.76414  -0.72819  -0.70579  -0.67451  -0.64695
 Alpha  occ. eigenvalues --   -0.61423  -0.60969  -0.56196  -0.53780  -0.52535
 Alpha  occ. eigenvalues --   -0.52124  -0.50112  -0.48044  -0.47095  -0.46464
 Alpha  occ. eigenvalues --   -0.46012  -0.45563  -0.44988  -0.43295  -0.43126
 Alpha  occ. eigenvalues --   -0.42162  -0.40868  -0.39757  -0.39312  -0.38053
 Alpha  occ. eigenvalues --   -0.37302  -0.36635  -0.36108  -0.35418  -0.34065
 Alpha  occ. eigenvalues --   -0.33137  -0.32547  -0.31572  -0.26350  -0.26272
 Alpha  occ. eigenvalues --   -0.25332  -0.24464  -0.23900  -0.23637  -0.22951
 Alpha  occ. eigenvalues --   -0.21936  -0.20767  -0.18018  -0.12109
 Alpha virt. eigenvalues --   -0.07243  -0.01110  -0.00538   0.00061   0.00770
 Alpha virt. eigenvalues --    0.01161   0.02137   0.02612   0.02765   0.03966
 Alpha virt. eigenvalues --    0.04484   0.04971   0.05089   0.06084   0.06160

  Beta  occ. eigenvalues --  -19.08154 -19.07397 -19.07254 -19.03683 -14.45160
  Beta  occ. eigenvalues --  -14.30026 -14.28389 -10.22889 -10.20610 -10.19388
  Beta  occ. eigenvalues --  -10.19343 -10.18474 -10.16697 -10.16659 -10.16495
  Beta  occ. eigenvalues --  -10.16137 -10.16017 -10.15960 -10.15697 -10.15668
  Beta  occ. eigenvalues --  -10.14226  -1.11886  -0.99994  -0.95793  -0.94549
  Beta  occ. eigenvalues --   -0.90676  -0.88788  -0.84598  -0.81357  -0.77738
  Beta  occ. eigenvalues --   -0.76414  -0.72819  -0.70579  -0.67451  -0.64695
  Beta  occ. eigenvalues --   -0.61423  -0.60969  -0.56196  -0.53780  -0.52535
  Beta  occ. eigenvalues --   -0.52124  -0.50112  -0.48044  -0.47095  -0.46464
  Beta  occ. eigenvalues --   -0.46012  -0.45563  -0.44988  -0.43295  -0.43126
  Beta  occ. eigenvalues --   -0.42162  -0.40868  -0.39757  -0.39312  -0.38053
  Beta  occ. eigenvalues --   -0.37302  -0.36635  -0.36108  -0.35418  -0.34065
  Beta  occ. eigenvalues --   -0.33137  -0.32547  -0.31572  -0.26350  -0.26272
  Beta  occ. eigenvalues --   -0.25332  -0.24464  -0.23900  -0.23637  -0.22951
  Beta  occ. eigenvalues --   -0.21936  -0.20767  -0.18018  -0.12109
  Beta virt. eigenvalues --   -0.07243  -0.01110  -0.00538   0.00061   0.00770
  Beta virt. eigenvalues --    0.01161   0.02137   0.02612   0.02765   0.03966
  Beta virt. eigenvalues --    0.04484   0.04971   0.05089   0.06084   0.06160

 Mulliken charges and spin densities:
               1          2
     1  N   -0.424402   0.000000
     2  C   -0.025976   0.000000
     3  C   -0.388446   0.000000
     4  C   -0.432493   0.000000
     5  C   -0.159618   0.000000
     6  N   -0.437255   0.000000
     7  C    0.503500   0.000000
     8  C   -0.607566   0.000000
     9  O   -0.538075   0.000000
    10  C    0.080179  -0.000000
    11  C    0.607256   0.000000
    12  C    0.087460  -0.000000
    13  C   -0.735857   0.000000
    14  C   -0.057349  -0.000000
    15  C   -0.297195   0.000000
    16  N   -0.206536  -0.000000
    17  O   -0.262511  -0.000000
    18  O   -0.327498  -0.000000
    19  C   -0.399604   0.000000
    20  O   -0.444713   0.000000
    21  C    0.445483   0.000000
    22  H    0.261884  -0.000000
    23  H    0.308917  -0.000000
    24  H    0.162888  -0.000000
    25  H    0.169476  -0.000000
    26  H    0.243134  -0.000000
    27  H    0.307327  -0.000000
    28  H    0.173637   0.000000
    29  H    0.166669  -0.000000
    30  H    0.227283   0.000000
 Sum of Mulliken charges =  -2.00000  -0.00000

 Dipole moment (field-independent basis, Debye):
    X=            -16.8648    Y=            -11.5141    Z=             -1.3312  Tot=             20.4638
 Quadrupole moment (field-independent basis, Debye-Ang):
   XX=           -189.8019   YY=           -180.3849   ZZ=           -138.7066
   XY=            -39.0991   XZ=            -23.2534   YZ=            -10.6029

  Exact polarizability: 930.741 136.269 451.948 -21.752  70.286 220.578
 Approx polarizability:1154.927 201.390 560.218  -1.239  97.834 263.934

                      1                      2                      3
                      A                      A                      A
 Frequencies --     31.6745                53.8637                76.5350
 Red. masses --      6.3525                 7.2714                 9.5123
 Frc consts  --      0.0038                 0.0124                 0.0328
 IR Inten    --     66.7080                 2.0174                68.0846

                      4                      5                      6
                      A                      A                      A
 Frequencies --    116.7193               119.8830               155.9130
 Red. masses --     11.1068                 4.3132                 6.4416
 Frc consts  --      0.0892                 0.0365                 0.0923
 IR Inten    --     40.8558                 6.9038                58.6447

                      7                      8                      9
                      A                      A                      A
 Frequencies --    174.2315               200.8577               231.3866
 Red. masses --      5.6568                 9.0206                 5.9642
 Frc consts  --      0.1012                 0.2144                 0.1881
 IR Inten    --     22.6451                 3.5749                10.1433

                     10                     11                     12
                      A                      A                      A
 Frequencies --    271.7888               316.0790               327.9945
 Red. masses --      5.3386                 5.9641                 3.0145
 Frc consts  --      0.2324                 0.3511                 0.1911
 IR Inten    --     21.2164               119.9488               254.4986

                     13                     14                     15
                      A                      A                      A
 Frequencies --    342.0750               369.8208               375.1396
 Red. masses --      4.2610                 5.3062                 4.1505
 Frc consts  --      0.2938                 0.4276                 0.3441
 IR Inten    --     59.6737               490.1663                20.3668

                     16                     17                     18
                      A                      A                      A
 Frequencies --    396.1630               411.9636               412.6235
 Red. masses --      3.4670                 2.6025                 1.8973
 Frc consts  --      0.3206                 0.2602                 0.1903
 IR Inten    --    600.5016               318.2080                96.4204

                     19                     20                     21
                      A                      A                      A
 Frequencies --    419.6038               435.1331               438.4169
 Red. masses --      4.5120                 5.5266                 3.2464
 Frc consts  --      0.4681                 0.6165                 0.3676
 IR Inten    --    274.7009               144.9872                79.6380

                     22                     23                     24
                      A                      A                      A
 Frequencies --    470.5478               488.6372               493.4223
 Red. masses --      6.3143                 5.2219                 3.5808
 Frc consts  --      0.8237                 0.7346                 0.5136
 IR Inten    --     93.4117                44.9804               144.5318

                     25                     26                     27
                      A                      A                      A
 Frequencies --    522.5446               563.2977               585.7983
 Red. masses --      5.9010                 6.6024                 2.9517
 Frc consts  --      0.9493                 1.2343                 0.5968
 IR Inten    --     17.7486                29.0578               176.4384

                     28                     29                     30
                      A                      A                      A
 Frequencies --    605.9978               625.7590               638.1049
 Red. masses --      5.4064                 3.7089                 1.8517
 Frc consts  --      1.1698                 0.8557                 0.4442
 IR Inten    --    157.4841                20.8223               131.9628

                     31                     32                     33
                      A                      A                      A
 Frequencies --    655.6108               686.1498               714.2363
 Red. masses --      3.6405                 8.2759                 5.6348
 Frc consts  --      0.9220                 2.2956                 1.6936
 IR Inten    --    299.3600                34.5357                59.3826

                     34                     35                     36
                      A                      A                      A
 Frequencies --    719.6595               749.9031               762.8037
 Red. masses --      3.2717                 4.4784                 3.4857
 Frc consts  --      0.9983                 1.4838                 1.1950
 IR Inten    --     17.2273                45.7874                79.8729

                     37                     38                     39
                      A                      A                      A
 Frequencies --    769.7440               793.9661               810.3040
 Red. masses --      2.1390                 2.4324                 2.5508
 Frc consts  --      0.7467                 0.9034                 0.9868
 IR Inten    --    182.7302               554.2182               301.5545

                     40                     41                     42
                      A                      A                      A
 Frequencies --    817.4949               828.7467               888.5968
 Red. masses --      3.8834                 2.2843                 5.7284
 Frc consts  --      1.5291                 0.9244                 2.6650
 IR Inten    --      9.7015               405.6913                85.7824

                     43                     44                     45
                      A                      A                      A
 Frequencies --    924.3550               926.8028               942.6937
 Red. masses --      1.4804                 1.3740                 5.6959
 Frc consts  --      0.7453                 0.6954                 2.9823
 IR Inten    --     65.2772                 3.4369               167.4370

                     46                     47                     48
                      A                      A                      A
 Frequencies --    956.6904               967.0710              1032.0996
 Red. masses --      5.5106                 1.3778                 6.7249
 Frc consts  --      2.9716                 0.7592                 4.2207
 IR Inten    --    396.8139               261.6346              8886.8972

                     49                     50                     51
                      A                      A                      A
 Frequencies --   1043.5514              1072.6429              1127.9446
 Red. masses --      2.5280                 1.7431                 1.8421
 Frc consts  --      1.6220                 1.1816                 1.3808
 IR Inten    --    682.0219               453.6662                48.0690

                     52                     53                     54
                      A                      A                      A
 Frequencies --   1151.2611              1169.8347              1186.6849
 Red. masses --      1.3023                 1.8980                 1.4455
 Frc consts  --      1.0170                 1.5304                 1.1994
 IR Inten    --    237.8073               333.1082               293.8995

                     55                     56                     57
                      A                      A                      A
 Frequencies --   1208.3368              1227.1697              1257.4628
 Red. masses --      2.3658                 3.3383                 7.1215
 Frc consts  --      2.0351                 2.9620                 6.6346
 IR Inten    --    904.5064              1078.6201               338.4904

                     58                     59                     60
                      A                      A                      A
 Frequencies --   1271.1240              1284.4645              1295.9560
 Red. masses --      6.4954                 3.8144                 2.7338
 Frc consts  --      6.1835                 3.7079                 2.7052
 IR Inten    --    141.6918              1379.3353               197.8949

                     61                     62                     63
                      A                      A                      A
 Frequencies --   1336.2565              1365.8007              1384.7049
 Red. masses --      4.1520                 6.1734                 6.1683
 Frc consts  --      4.3680                 6.7850                 6.9684
 IR Inten    --    283.4858               714.3656               574.6308

                     64                     65                     66
                      A                      A                      A
 Frequencies --   1399.2369              1415.8137              1426.1477
 Red. masses --      6.4002                 3.1996                 3.2226
 Frc consts  --      7.3828                 3.7788                 3.8618
 IR Inten    --     29.9318                64.5073               217.6727

                     67                     68                     69
                      A                      A                      A
 Frequencies --   1451.1403              1493.6429              1515.0229
 Red. masses --      2.7921                 3.3720                 4.2688
 Frc consts  --      3.4641                 4.4324                 5.7729
 IR Inten    --    195.8036               117.1891               843.3166

                     70                     71                     72
                      A                      A                      A
 Frequencies --   1532.8276              1576.4724              1581.5616
 Red. masses --      4.8841                 1.4544                 1.7744
 Frc consts  --      6.7612                 2.1296                 2.6151
 IR Inten    --    504.0748                55.6224                90.5239

                     73                     74                     75
                      A                      A                      A
 Frequencies --   1595.6563              1602.5607              1618.3505
 Red. masses --      2.8561                 3.6906                 6.4901
 Frc consts  --      4.2845                 5.5844                10.0149
 IR Inten    --    267.3872                16.2385               700.6875

                     76                     77                     78
                      A                      A                      A
 Frequencies --   3142.0244              3161.0389              3163.4963
 Red. masses --      1.0863                 1.0942                 1.0875
 Frc consts  --      6.3186                 6.4419                 6.4122
 IR Inten    --     39.5325                96.5769                45.6806

                     79                     80                     81
                      A                      A                      A
 Frequencies --   3190.7605              3201.5816              3334.0140
 Red. masses --      1.0902                 1.0927                 1.0635
 Frc consts  --      6.5398                 6.5992                 6.9650
 IR Inten    --     14.9277                19.9953               317.1858

                     82                     83                     84
                      A                      A                      A
 Frequencies --   3458.1534              3589.4679              3635.7131
 Red. masses --      1.0552                 1.0845                 1.0936
 Frc consts  --      7.4346                 8.2323                 8.5171
 IR Inten    --    120.2290                65.3540               113.8656

 - Thermochemistry -
 -------------------
 Temperature   298.150 Kelvin.  Pressure   1.00000 Atm.
 Atom     1 has atomic number  7 and mass  14.00307

 Molecular mass:   283.05931 amu.
 Principal axes and moments of inertia in atomic units:
                           1         2         3
     Eigenvalues --  3406.993756931.087789892.41267
           X            0.96846  -0.23104   0.09336
           Y            0.24736   0.93666  -0.24795
           Z           -0.03016   0.26322   0.96426
 This molecule is an asymmetric top.
 Rotational symmetry number  1.
 Warning -- assumption of classical behavior for rotation
           may cause significant error
 Rotational temperatures (Kelvin)      0.02542     0.01250     0.00876
 Rotational constants (GHZ):           0.52972     0.26038     0.18244
 Zero-point vibrational energy     550801.3 (Joules/Mol)
                                  131.64467 (Kcal/Mol)
 Warning -- explicit consideration of  28 degrees of freedom as
           vibrations may cause significant error
 Vibrational temperatures:     45.57    77.50   110.12   167.93   172.48
          (Kelvin)            224.32   250.68   288.99   332.91   391.04
                              454.77   471.91   492.17   532.09   539.74
                              569.99   592.72   593.67   603.72   626.06
                              630.78   677.01   703.04   709.92   751.83
                              810.46   842.83   871.90   900.33   918.09
                              943.28   987.22  1027.63  1035.43  1078.94
                             1097.50  1107.49  1142.34  1165.85  1176.19
                             1192.38  1278.49  1329.94  1333.46  1356.33
                             1376.46  1391.40  1484.96  1501.44  1543.29
                             1622.86  1656.41  1683.13  1707.37  1738.53
                             1765.62  1809.21  1828.86  1848.06  1864.59
                             1922.58  1965.08  1992.28  2013.19  2037.04
                             2051.91  2087.87  2149.02  2179.78  2205.40
                             2268.19  2275.51  2295.79  2305.73  2328.45
                             4520.67  4548.03  4551.57  4590.79  4606.36
                             4796.90  4975.51  5164.44  5230.98

 Zero-point correction=                           0.209789 (Hartree/Particle)
 Thermal correction to Energy=                    0.226211
 Thermal correction to Enthalpy=                  0.227155
 Thermal correction to Gibbs Free Energy=         0.166143
 Sum of electronic and zero-point Energies=          -1004.311032
 Sum of electronic and thermal Energies=             -1004.294610
 Sum of electronic and thermal Enthalpies=           -1004.293665
 Sum of electronic and thermal Free Energies=        -1004.354678

                     E (Thermal)             CV                S
                      KCal/Mol        Cal/Mol-Kelvin    Cal/Mol-Kelvin
 Total                  141.950             66.495            128.411
 Electronic               0.000              0.000              0.000
 Translational            0.889              2.981             42.819
 Rotational               0.889              2.981             33.812
 Vibrational            140.172             60.533             51.779
 Vibration     1          0.594              1.983              5.722
 Vibration     2          0.596              1.976              4.670
 Vibration     3          0.599              1.965              3.978
 Vibration     4          0.608              1.935              3.154
 Vibration     5          0.609              1.933              3.102
 Vibration     6          0.620              1.896              2.599
 Vibration     7          0.627              1.874              2.389
 Vibration     8          0.638              1.839              2.125
 Vibration     9          0.653              1.793              1.868
 Vibration    10          0.675              1.725              1.585
 Vibration    11          0.703              1.643              1.330
 Vibration    12          0.711              1.620              1.270
 Vibration    13          0.721              1.591              1.202
 Vibration    14          0.742              1.534              1.081
 Vibration    15          0.746              1.523              1.059
 Vibration    16          0.763              1.478              0.977
 Vibration    17          0.776              1.444              0.920
 Vibration    18          0.776              1.443              0.917
 Vibration    19          0.782              1.428              0.893
 Vibration    20          0.796              1.394              0.842
 Vibration    21          0.799              1.386              0.832
 Vibration    22          0.828              1.315              0.736
 Vibration    23          0.845              1.275              0.687
 Vibration    24          0.849              1.265              0.675
 Vibration    25          0.878              1.200              0.604
 Vibration    26          0.919              1.111              0.517
 Vibration    27          0.943              1.062              0.475
 Vibration    28          0.965              1.019              0.439

                           ! Non-Optimized Parameters !
 Normal termination of Gaussian 16 at Sat Feb 10 23:00:52 2024.
