 Gaussian 16, Revision A.03,
 Gaussian 16:  ES64L-G16RevA.03 25-Dec-2016

 ----------------------------------------------------------------
 #P UB3LYP/6-311++G(d,p) SCRF=(PCM,Solvent=n,n-DiMethylFormamide)
 ----------------------------------------------------------------

 -------
 Reduced
 -------
 Symbolic Z-matrix:
 Charge = -2 Multiplicity = 1

                         Standard orientation:
 ---------------------------------------------------------------------
 Center     Atomic      Atomic             Coordinates (Angstroms)
 Number     Number       Type             X           Y           Z
 ---------------------------------------------------------------------
      1          6           0       -2.504333   -1.833214    1.087478
      2          6           0       -2.261730   -1.095820   -0.248327
      3          6           0       -3.583043   -0.528080   -0.786031
      4          6           0       -1.134885   -0.082097   -0.112125
      5          6           0       -1.371469    1.289295    0.001051
      6          6           0       -0.338351    2.276202    0.130418
      7          8           0       -0.574770    3.543890    0.245520
      8          6           0        0.984161    1.722345    0.116098
      9          6           0        1.261765    0.358944   -0.001462
     10          6           0        2.715503   -0.098793   -0.006332
     11          6           0        3.042747   -1.018500    1.188760
     12          6           0        3.103420   -0.783685   -1.333512
     13          6           0        0.208267   -0.618801   -0.114505
     14          8           0        0.443922   -1.894539   -0.224636
     15          1           0       -3.260104   -2.628086    0.978195
     16          1           0       -2.859624   -1.130873    1.852056
     17          1           0       -1.569064   -2.281797    1.427888
     18          1           0       -1.900490   -1.858563   -0.951676
     19          1           0       -4.315244   -1.329287   -0.948998
     20          1           0       -3.432977   -0.002805   -1.735025
     21          1           0       -4.031739    0.186688   -0.086173
     22          1           0       -2.389983    1.672590    0.000815
     23          1           0        1.809974    2.430738    0.206027
     24          1           0        3.334610    0.805086    0.093131
     25          1           0        2.401613   -1.902297    1.141707
     26          1           0        4.099297   -1.331039    1.177101
     27          1           0        2.850327   -0.498671    2.133772
     28          1           0        4.157874   -1.103120   -1.327712
     29          1           0        2.959510   -0.095271   -2.173660
     30          1           0        2.460496   -1.654865   -1.483598
 ---------------------------------------------------------------------

 SCF Done:  E(UB3LYP) =  -617.762805100     A.U. after   18 cycles

 The electronic state is 1-A.
 Alpha  occ. eigenvalues --  -19.00483 -18.99530 -10.15488 -10.14954 -10.14636
 Alpha  occ. eigenvalues --  -10.14501 -10.13944 -10.13583 -10.13170 -10.13167
 Alpha  occ. eigenvalues --  -10.11549 -10.11467 -10.10595 -10.10555  -0.91706
 Alpha  occ. eigenvalues --   -0.90934  -0.78487  -0.77559  -0.73623  -0.67577
 Alpha  occ. eigenvalues --   -0.66292  -0.65715  -0.62849  -0.57880  -0.56327
 Alpha  occ. eigenvalues --   -0.50683  -0.49418  -0.44512  -0.42314  -0.42138
 Alpha  occ. eigenvalues --   -0.40768  -0.40531  -0.39790  -0.38495  -0.37614
 Alpha  occ. eigenvalues --   -0.36650  -0.36300  -0.35062  -0.33633  -0.33114
 Alpha  occ. eigenvalues --   -0.33024  -0.31714  -0.31456  -0.31307  -0.30246
 Alpha  occ. eigenvalues --   -0.29323  -0.28846  -0.28170  -0.20908  -0.19492
 Alpha  occ. eigenvalues --   -0.18433  -0.17267  -0.10250
 Alpha virt. eigenvalues --   -0.00041   0.00777   0.01482   0.01771   0.02744
 Alpha virt. eigenvalues --    0.02801   0.03165   0.03575   0.04177   0.04641
 Alpha virt. eigenvalues --    0.04982   0.05337   0.05886   0.06336   0.06882

  Beta  occ. eigenvalues --  -19.00483 -18.99530 -10.15488 -10.14954 -10.14636
  Beta  occ. eigenvalues --  -10.14501 -10.13944 -10.13583 -10.13170 -10.13167
  Beta  occ. eigenvalues --  -10.11549 -10.11467 -10.10595 -10.10555  -0.91706
  Beta  occ. eigenvalues --   -0.90934  -0.78487  -0.77559  -0.73623  -0.67577
  Beta  occ. eigenvalues --   -0.66292  -0.65715  -0.62849  -0.57880  -0.56327
  Beta  occ. eigenvalues --   -0.50683  -0.49418  -0.44512  -0.42314  -0.42138
  Beta  occ. eigenvalues --   -0.40768  -0.40531  -0.39790  -0.38495  -0.37614
  Beta  occ. eigenvalues --   -0.36650  -0.36300  -0.35062  -0.33633  -0.33114
  Beta  occ. eigenvalues --   -0.33024  -0.31714  -0.31456  -0.31307  -0.30246
  Beta  occ. eigenvalues --   -0.29323  -0.28846  -0.28170  -0.20908  -0.19492
  Beta  occ. eigenvalues --   -0.18433  -0.17267  -0.10250
  Beta virt. eigenvalues --   -0.00041   0.00777   0.01482   0.01771   0.02744
  Beta virt. eigenvalues --    0.02801   0.03165   0.03575   0.04177   0.04641
  Beta virt. eigenvalues --    0.04982   0.05337   0.05886   0.06336   0.06882

 Mulliken charges and spin densities:
               1          2
     1  C   -0.707626  -0.000000
     2  C    0.200461  -0.000000
     3  C   -0.548561   0.000000
     4  C    1.173802   0.000000
     5  C   -0.198291  -0.000000
     6  C   -0.762862   0.000000
     7  O   -0.745595  -0.000000
     8  C   -0.197455  -0.000000
     9  C    0.662813   0.000000
    10  C    0.300287  -0.000000
    11  C   -0.662665   0.000000
    12  C   -0.674429   0.000000
    13  C   -1.368214  -0.000000
    14  O   -0.650089   0.000000
    15  H    0.112424  -0.000000
    16  H    0.129065  -0.000000
    17  H    0.177664   0.000000
    18  H    0.161869   0.000000
    19  H    0.150561   0.000000
    20  H    0.124644  -0.000000
    21  H    0.128943   0.000000
    22  H    0.111733  -0.000000
    23  H    0.112556  -0.000000
    24  H    0.143172   0.000000
    25  H    0.181104   0.000000
    26  H    0.119278  -0.000000
    27  H    0.112615  -0.000000
    28  H    0.119100  -0.000000
    29  H    0.112404  -0.000000
    30  H    0.181290   0.000000
 Sum of Mulliken charges =  -2.00000   0.00000

 Dipole moment (field-independent basis, Debye):
    X=              0.6688    Y=             -8.7225    Z=             -0.3023  Tot=              8.7533
 Quadrupole moment (field-independent basis, Debye-Ang):
   XX=           -107.4680   YY=           -165.8826   ZZ=           -100.0945
   XY=             11.6474   XZ=              1.3844   YZ=             -4.5565

 Normal termination of Gaussian 16 at Sun Jan 21 07:46:04 2024.
