 Q-Chem 5.4, Q-Chem, Inc., Pleasanton, CA (2021)
 Q-Chem 5.4.0 for Intel X86 EM64T Linux

User input:
--------------------------------------------------------------
$molecule
0 1
C                 -0.3365480000     -2.0504070000      0.9207560000
C                 -0.2303360000     -0.9456840000     -0.1679430000
C                 -0.5423870000     -1.5588010000     -1.5621150000
C                 -1.2730230000      0.1352760000      0.1324330000
C                 -2.6325420000     -0.2124130000      0.1767370000
C                 -3.6155930000      0.7309710000      0.4448630000
C                 -3.2678910000      2.0641490000      0.6792500000
C                 -1.9338990000      2.4285140000      0.6403070000
C                 -0.9360980000      1.4771670000      0.3695410000
C                  0.4736550000      1.9449750000      0.3451770000
O                  0.7589220000      3.1163740000      0.5530770000
C                  1.5231510000      0.9335020000      0.0582900000
C                  2.8587290000      1.3689730000      0.0337570000
C                  3.8880520000      0.4821850000     -0.2268510000
C                  3.5840470000     -0.8605780000     -0.4671800000
C                  2.2653690000     -1.2950900000     -0.4438220000
C                  1.2054420000     -0.4125630000     -0.1814930000
H                  0.3698660000     -2.8597050000      0.7268570000
H                 -1.3390650000     -2.4816620000      0.9436630000
H                 -0.1202180000     -1.6393460000      1.9094490000
H                 -1.5489820000     -1.9803030000     -1.5874160000
H                 -0.4724580000     -0.7975690000     -2.3424490000
H                  0.1599560000     -2.3588220000     -1.8034780000
H                 -2.9343910000     -1.2375310000     -0.0008900000
H                 -4.6563470000      0.4269740000      0.4713520000
H                 -4.0335810000      2.8021780000      0.8886700000
H                 -1.6213560000      3.4504120000      0.8161940000
H                  3.0504400000      2.4175330000      0.2252120000
H                  4.9166470000      0.8235070000     -0.2445930000
H                  4.3779630000     -1.5701590000     -0.6732840000
H                  2.0624760000     -2.3420570000     -0.6340690000
$end

$rem
BASIS  =  6-311++G(d,p)
GUI  =  2
JOB_TYPE  =  SP
METHOD  =  B3LYP
SCF_CONVERGENCE  = 8
SOLVENT_METHOD = sm12
$end

$smx
solvent dimethylformamide
charges CM5
$end

--------------------------------------------------------------

             Standard Nuclear Orientation (Angstroms)
    I     Atom           X                Y                Z
 ----------------------------------------------------------------
    1      C      -0.3365480000    -2.0504070000     0.9207560000
    2      C      -0.2303360000    -0.9456840000    -0.1679430000
    3      C      -0.5423870000    -1.5588010000    -1.5621150000
    4      C      -1.2730230000     0.1352760000     0.1324330000
    5      C      -2.6325420000    -0.2124130000     0.1767370000
    6      C      -3.6155930000     0.7309710000     0.4448630000
    7      C      -3.2678910000     2.0641490000     0.6792500000
    8      C      -1.9338990000     2.4285140000     0.6403070000
    9      C      -0.9360980000     1.4771670000     0.3695410000
   10      C       0.4736550000     1.9449750000     0.3451770000
   11      O       0.7589220000     3.1163740000     0.5530770000
   12      C       1.5231510000     0.9335020000     0.0582900000
   13      C       2.8587290000     1.3689730000     0.0337570000
   14      C       3.8880520000     0.4821850000    -0.2268510000
   15      C       3.5840470000    -0.8605780000    -0.4671800000
   16      C       2.2653690000    -1.2950900000    -0.4438220000
   17      C       1.2054420000    -0.4125630000    -0.1814930000
   18      H       0.3698660000    -2.8597050000     0.7268570000
   19      H      -1.3390650000    -2.4816620000     0.9436630000
   20      H      -0.1202180000    -1.6393460000     1.9094490000
   21      H      -1.5489820000    -1.9803030000    -1.5874160000
   22      H      -0.4724580000    -0.7975690000    -2.3424490000
   23      H       0.1599560000    -2.3588220000    -1.8034780000
   24      H      -2.9343910000    -1.2375310000    -0.0008900000
   25      H      -4.6563470000     0.4269740000     0.4713520000
   26      H      -4.0335810000     2.8021780000     0.8886700000
   27      H      -1.6213560000     3.4504120000     0.8161940000
   28      H       3.0504400000     2.4175330000     0.2252120000
   29      H       4.9166470000     0.8235070000    -0.2445930000
   30      H       4.3779630000    -1.5701590000    -0.6732840000
   31      H       2.0624760000    -2.3420570000    -0.6340690000
 ----------------------------------------------------------------

   14    -693.5535261286      5.59e-09  Convergence criterion met
 Total energy in the final basis set =     -693.5724045006

                    Orbital Energies (a.u.)
 --------------------------------------------------------------

 Alpha MOs
 -- Occupied --
-19.1127 -10.2666 -10.2132 -10.2042 -10.2042 -10.1936 -10.1936 -10.1907
-10.1907 -10.1871 -10.1871 -10.1861 -10.1861 -10.1850 -10.1850 -10.1688
-10.1688  -1.0483  -0.8924  -0.8711  -0.8276  -0.7869  -0.7663  -0.7590
 -0.7407  -0.6961  -0.6635  -0.6474  -0.6305  -0.6084  -0.5769  -0.5510
 -0.5456  -0.4994  -0.4785  -0.4758  -0.4729  -0.4520  -0.4493  -0.4465
 -0.4360  -0.4288  -0.4286  -0.4148  -0.4071  -0.3966  -0.3843  -0.3776
 -0.3745  -0.3681  -0.3651  -0.3507  -0.3417  -0.3302  -0.2727  -0.2688
 -0.2665  -0.2664  -0.2609

          Ground-State Mulliken Net Atomic Charges

     Atom                 Charge (a.u.)
  ----------------------------------------
      1 C                    -0.362335
      2 C                    -0.132884
      3 C                    -0.366188
      4 C                    -0.104288
      5 C                     0.104921
      6 C                     0.331346
      7 C                    -0.283919
      8 C                    -0.319707
      9 C                    -0.179917
     10 C                    -1.038341
     11 O                    -0.329303
     12 C                    -0.180225
     13 C                    -0.318305
     14 C                    -0.284208
     15 C                     0.332671
     16 C                     0.107826
     17 C                    -0.107047
     18 H                     0.206996
     19 H                     0.207304
     20 H                     0.126866
     21 H                     0.207042
     22 H                     0.127027
     23 H                     0.207270
     24 H                     0.280962
     25 H                     0.323604
     26 H                     0.256421
     27 H                     0.162755
     28 H                     0.162713
     29 H                     0.256426
     30 H                     0.323713
     31 H                     0.280801
  ----------------------------------------
  Sum of atomic charges =     0.000000

                    Cartesian Multipole Moments
 -----------------------------------------------------------------
    Charge (ESU x 10^10)
                 0.0000
    Dipole Moment (Debye)
         X      -1.2146      Y      -4.9900      Z      -0.8843
       Tot       5.2113
    Quadrupole Moments (Debye-Ang)
        XX     -83.1576     XY      -5.3573     YY    -105.9485
        XZ      -2.8368     YZ       0.1747     ZZ    -104.3188

 Total job time:  870.25s(wall), 6532.36s(cpu)
        *  Thank you very much for using Q-Chem.  Have a nice day.  *
