 Q-Chem 5.4, Q-Chem, Inc., Pleasanton, CA (2021)
 Q-Chem 5.4.0 for Intel X86 EM64T Linux

User input:
--------------------------------------------------------------
$molecule
0 1
C                 -2.8936440000      3.9400150000      0.4130980000
C                 -4.1745740000      3.4237290000      0.5461570000
C                 -4.3514820000      2.0383270000      0.5311460000
C                 -1.7903890000      3.0919100000      0.2709310000
C                 -1.9857700000      1.6999200000      0.2637880000
C                 -3.2729410000      1.1773430000      0.3942290000
C                 -0.4314080000      3.6833230000      0.1330320000
C                  0.7154830000      2.7365370000     -0.0120890000
C                  0.5201040000      1.3445400000     -0.0192360000
C                 -0.8389000000      0.7531350000      0.1185070000
C                  2.0026660000      3.2591090000     -0.1423890000
C                  3.0812230000      2.3981150000     -0.2791450000
C                  2.9043200000      1.0127230000     -0.2941710000
C                  1.6233670000      0.4964340000     -0.1612730000
O                 -0.2567640000      4.8908730000      0.1382550000
O                 -1.0135690000     -0.4544100000      0.1130650000
H                 -3.4194610000      0.1049290000      0.3913880000
H                  1.4557560000     -0.5733140000     -0.1678350000
H                 -2.7260260000      5.0097620000      0.4196350000
H                  2.1491900000      4.3315240000     -0.1395800000
H                  3.7552790000      0.3546870000     -0.4010390000
O                 -5.5935050000      1.4486730000      0.7355750000
O                  4.3233050000      2.9877260000     -0.4834000000
C                  5.4215340000      2.5972090000      0.2527800000
C                  6.6234450000      3.3943060000     -0.1706550000
O                  5.3849040000      1.7530380000      1.1027770000
H                 -5.0255120000      4.0817750000      0.6531210000
H                  6.4508430000      4.4545820000      0.0285280000
H                  6.7860500000      3.2858790000     -1.2450580000
H                  7.4965970000      3.0511250000      0.3796860000
C                 -6.6920080000      1.8394480000     -0.0000630000
C                 -7.8940240000      1.0430920000      0.4244600000
O                 -6.6555890000      2.6835750000     -0.8501120000
H                 -7.7195980000     -0.0181970000      0.2326420000
H                 -8.7660930000      1.3820190000     -0.1302090000
H                 -8.0598310000      1.1582300000      1.4977240000
$end

$rem
BASIS  =  6-311++G(d,p)
GUI  =  2
JOB_TYPE  =  SP
METHOD  =  B3LYP
SCF_CONVERGENCE  = 8
SOLVENT_METHOD = sm12
$end

$smx
solvent dimethylformamide
charges CM5
$end

--------------------------------------------------------------

             Standard Nuclear Orientation (Angstroms)
    I     Atom           X                Y                Z
 ----------------------------------------------------------------
    1      C      -2.8936440000     3.9400150000     0.4130980000
    2      C      -4.1745740000     3.4237290000     0.5461570000
    3      C      -4.3514820000     2.0383270000     0.5311460000
    4      C      -1.7903890000     3.0919100000     0.2709310000
    5      C      -1.9857700000     1.6999200000     0.2637880000
    6      C      -3.2729410000     1.1773430000     0.3942290000
    7      C      -0.4314080000     3.6833230000     0.1330320000
    8      C       0.7154830000     2.7365370000    -0.0120890000
    9      C       0.5201040000     1.3445400000    -0.0192360000
   10      C      -0.8389000000     0.7531350000     0.1185070000
   11      C       2.0026660000     3.2591090000    -0.1423890000
   12      C       3.0812230000     2.3981150000    -0.2791450000
   13      C       2.9043200000     1.0127230000    -0.2941710000
   14      C       1.6233670000     0.4964340000    -0.1612730000
   15      O      -0.2567640000     4.8908730000     0.1382550000
   16      O      -1.0135690000    -0.4544100000     0.1130650000
   17      H      -3.4194610000     0.1049290000     0.3913880000
   18      H       1.4557560000    -0.5733140000    -0.1678350000
   19      H      -2.7260260000     5.0097620000     0.4196350000
   20      H       2.1491900000     4.3315240000    -0.1395800000
   21      H       3.7552790000     0.3546870000    -0.4010390000
   22      O      -5.5935050000     1.4486730000     0.7355750000
   23      O       4.3233050000     2.9877260000    -0.4834000000
   24      C       5.4215340000     2.5972090000     0.2527800000
   25      C       6.6234450000     3.3943060000    -0.1706550000
   26      O       5.3849040000     1.7530380000     1.1027770000
   27      H      -5.0255120000     4.0817750000     0.6531210000
   28      H       6.4508430000     4.4545820000     0.0285280000
   29      H       6.7860500000     3.2858790000    -1.2450580000
   30      H       7.4965970000     3.0511250000     0.3796860000
   31      C      -6.6920080000     1.8394480000    -0.0000630000
   32      C      -7.8940240000     1.0430920000     0.4244600000
   33      O      -6.6555890000     2.6835750000    -0.8501120000
   34      H      -7.7195980000    -0.0181970000     0.2326420000
   35      H      -8.7660930000     1.3820190000    -0.1302090000
   36      H      -8.0598310000     1.1582300000     1.4977240000
 ----------------------------------------------------------------

   15   -1144.8408988657      5.85e-09  Convergence criterion met
 Total energy in the final basis set =    -1144.8701149152

                    Orbital Energies (a.u.)
 --------------------------------------------------------------

 Alpha MOs
 -- Occupied --
-19.1930 -19.1930 -19.1319 -19.1319 -19.1314 -19.1314 -10.3230 -10.3230
-10.2848 -10.2848 -10.2675 -10.2675 -10.2159 -10.2159 -10.2115 -10.2115
-10.2055 -10.2055 -10.2043 -10.2043 -10.2037 -10.2037 -10.1795 -10.1795
 -1.1319  -1.1319  -1.0674  -1.0656  -1.0513  -1.0513  -0.9012  -0.8905
 -0.8239  -0.7964  -0.7907  -0.7861  -0.7594  -0.7498  -0.7013  -0.6803
 -0.6712  -0.6365  -0.6285  -0.6049  -0.5812  -0.5698  -0.5312  -0.5227
 -0.5084  -0.5069  -0.5039  -0.4984  -0.4981  -0.4885  -0.4715  -0.4675
 -0.4596  -0.4592  -0.4568  -0.4565  -0.4532  -0.4389  -0.4282  -0.4212
 -0.4191  -0.4164  -0.4037  -0.4026  -0.4009  -0.3923  -0.3870  -0.3844
 -0.3753  -0.3684  -0.3463  -0.3432  -0.3031  -0.3030  -0.2898  -0.2889
 -0.2820  -0.2783  -0.2773  -0.2691

          Ground-State Mulliken Net Atomic Charges

     Atom                 Charge (a.u.)
  ----------------------------------------
      1 C                     0.333505
      2 C                     0.505897
      3 C                    -0.226685
      4 C                     0.004819
      5 C                     0.072068
      6 C                     0.052569
      7 C                    -1.292933
      8 C                     0.072766
      9 C                     0.005735
     10 C                    -1.293903
     11 C                     0.052872
     12 C                    -0.228015
     13 C                     0.506095
     14 C                     0.334120
     15 O                    -0.252728
     16 O                    -0.252707
     17 H                     0.224819
     18 H                     0.232559
     19 H                     0.232537
     20 H                     0.224846
     21 H                     0.276761
     22 O                     0.019385
     23 O                     0.019435
     24 C                    -0.151421
     25 C                    -0.153184
     26 O                    -0.324145
     27 H                     0.276773
     28 H                     0.230816
     29 H                     0.239844
     30 H                     0.207779
     31 C                    -0.151564
     32 C                    -0.152845
     33 O                    -0.324174
     34 H                     0.230528
     35 H                     0.207751
     36 H                     0.240022
  ----------------------------------------
  Sum of atomic charges =     0.000000

                    Cartesian Multipole Moments
 -----------------------------------------------------------------
    Charge (ESU x 10^10)
                 0.0000
    Dipole Moment (Debye)
         X      -0.0004      Y       0.0017      Z       0.0030
       Tot       0.0035
    Quadrupole Moments (Debye-Ang)
        XX     -86.8406     XY      16.2473     YY    -143.8187
        XZ     -21.8894     YZ       4.6937     ZZ    -142.1311

 Total job time:  1126.88s(wall), 8817.87s(cpu)
        *  Thank you very much for using Q-Chem.  Have a nice day.  *
