 Q-Chem 5.4, Q-Chem, Inc., Pleasanton, CA (2021)
 Q-Chem 5.4.0 for Intel X86 EM64T Linux

User input:
--------------------------------------------------------------
$molecule
0 1
Cl                 2.3036300000     -2.0604200000      0.0548880000
C                  1.0518560000     -0.8772180000      0.0239180000
C                  1.2928540000      0.4520720000      0.0020060000
Cl                 2.8808390000      1.1207340000      0.0024780000
C                  0.1648900000      1.4446470000     -0.0245980000
O                  0.3670920000      2.6401820000     -0.0444800000
C                 -1.2139150000      0.8985850000     -0.0255640000
C                 -1.4523420000     -0.4150840000     -0.0038960000
C                 -0.3535300000     -1.4104280000      0.0224910000
O                 -0.5842350000     -2.6007630000      0.0419890000
H                 -2.0044010000      1.6398340000     -0.0450010000
H                 -2.4527400000     -0.8321410000     -0.0042310000
$end

$rem
BASIS  =  6-311++G(d,p)
GUI  =  2
JOB_TYPE  =  SP
METHOD  =  B3LYP
SCF_CONVERGENCE  = 8
SOLVENT_METHOD = sm12
$end

$smx
solvent dimethylformamide
charges CM5
$end

--------------------------------------------------------------

             Standard Nuclear Orientation (Angstroms)
    I     Atom           X                Y                Z
 ----------------------------------------------------------------
    1      Cl      2.3036300000    -2.0604200000     0.0548880000
    2      C       1.0518560000    -0.8772180000     0.0239180000
    3      C       1.2928540000     0.4520720000     0.0020060000
    4      Cl      2.8808390000     1.1207340000     0.0024780000
    5      C       0.1648900000     1.4446470000    -0.0245980000
    6      O       0.3670920000     2.6401820000    -0.0444800000
    7      C      -1.2139150000     0.8985850000    -0.0255640000
    8      C      -1.4523420000    -0.4150840000    -0.0038960000
    9      C      -0.3535300000    -1.4104280000     0.0224910000
   10      O      -0.5842350000    -2.6007630000     0.0419890000
   11      H      -2.0044010000     1.6398340000    -0.0450010000
   12      H      -2.4527400000    -0.8321410000    -0.0042310000
 ----------------------------------------------------------------

   14   -1300.7958658455      4.04e-09  Convergence criterion met
 Total energy in the final basis set =    -1300.8110047276

                    Orbital Energies (a.u.)
 --------------------------------------------------------------

 Alpha MOs
 -- Occupied --
********-101.5848 -19.1554 -19.1554 -10.3063 -10.3063 -10.2853 -10.2846
-10.2236 -10.2227  -9.4995  -9.4995  -7.2645  -7.2643  -7.2547  -7.2547
 -7.2532  -7.2531  -1.0910  -1.0889  -0.9390  -0.8850  -0.8600  -0.7763
 -0.7202  -0.6414  -0.6256  -0.5517  -0.5218  -0.4983  -0.4798  -0.4790
 -0.4660  -0.4520  -0.4403  -0.4296  -0.4021  -0.3644  -0.3538  -0.3329
 -0.3224  -0.3069  -0.2988  -0.2873

          Ground-State Mulliken Net Atomic Charges

     Atom                 Charge (a.u.)
  ----------------------------------------
      1 Cl                    0.331411
      2 C                     0.190057
      3 C                     0.188043
      4 Cl                    0.330854
      5 C                    -1.359368
      6 O                    -0.247717
      7 C                     0.721310
      8 C                     0.722646
      9 C                    -1.357186
     10 O                    -0.247209
     11 H                     0.363749
     12 H                     0.363410
  ----------------------------------------
  Sum of atomic charges =     0.000000

                    Cartesian Multipole Moments
 -----------------------------------------------------------------
    Charge (ESU x 10^10)
                -0.0000
    Dipole Moment (Debye)
         X      -2.3035      Y       0.4143      Z      -0.0255
       Tot       2.3406
    Quadrupole Moments (Debye-Ang)
        XX     -64.7619     XY      -4.0662     YY     -86.3985
        XZ       0.1065     YZ       0.2771     ZZ     -69.1776

 Total job time:  104.91s(wall), 541.26s(cpu)
        *  Thank you very much for using Q-Chem.  Have a nice day.  *
