 Gaussian 16, Revision A.03,
 Gaussian 16:  ES64L-G16RevA.03 25-Dec-2016

 --------------------------------------
 #P UB3LYP/6-311++G(d,p) nosym opt freq
 --------------------------------------

 --------
 Oxidized
 --------
 Symbolic Z-matrix:
 Charge =  0 Multiplicity = 1

 SCF Done:  E(UB3LYP) =  -1300.79724163     A.U. after   15 cycles
 Optimization completed.
    -- Stationary point found.
 Normal termination of Gaussian 16 at Sat Jan  6 05:38:04 2024.

 ----------------------------------------------------------------------
 #P Geom=AllCheck Guess=TCheck SCRF=Check GenChk UB3LYP/6-311++G(d,p) F
 req
 ----------------------------------------------------------------------

 Structure from the checkpoint file:  "009.chk"
 --------
 Oxidized
 --------
 Charge =  0 Multiplicity = 1

                          Input orientation:
 ---------------------------------------------------------------------
 Center     Atomic      Atomic             Coordinates (Angstroms)
 Number     Number       Type             X           Y           Z
 ---------------------------------------------------------------------
      1         17           0        2.303630   -2.060420    0.054888
      2          6           0        1.051856   -0.877218    0.023918
      3          6           0        1.292854    0.452072    0.002006
      4         17           0        2.880839    1.120734    0.002478
      5          6           0        0.164890    1.444647   -0.024598
      6          8           0        0.367092    2.640182   -0.044480
      7          6           0       -1.213915    0.898585   -0.025564
      8          6           0       -1.452342   -0.415084   -0.003896
      9          6           0       -0.353530   -1.410428    0.022491
     10          8           0       -0.584235   -2.600763    0.041989
     11          1           0       -2.004401    1.639834   -0.045001
     12          1           0       -2.452740   -0.832141   -0.004231
 ---------------------------------------------------------------------

 SCF Done:  E(UB3LYP) =  -1300.79724163     A.U. after    2 cycles

 Alpha  occ. eigenvalues -- -101.58895-101.58889 -19.16285 -19.16283 -10.31395
 Alpha  occ. eigenvalues --  -10.31393 -10.29074 -10.29001 -10.23914 -10.23830
 Alpha  occ. eigenvalues --   -9.50340  -9.50333  -7.26834  -7.26827  -7.25852
 Alpha  occ. eigenvalues --   -7.25846  -7.25716  -7.25710  -1.09807  -1.09592
 Alpha  occ. eigenvalues --   -0.94445  -0.88931  -0.87118  -0.78448  -0.73012
 Alpha  occ. eigenvalues --   -0.65098  -0.63447  -0.56116  -0.53195  -0.50671
 Alpha  occ. eigenvalues --   -0.49024  -0.48605  -0.47242  -0.46072  -0.44631
 Alpha  occ. eigenvalues --   -0.44193  -0.40739  -0.36747  -0.35738  -0.33639
 Alpha  occ. eigenvalues --   -0.33541  -0.31310  -0.30530  -0.29239
 Alpha virt. eigenvalues --   -0.15703  -0.05824  -0.02977  -0.02417  -0.01349
 Alpha virt. eigenvalues --    0.01135   0.01666   0.01793   0.03843   0.04324
 Alpha virt. eigenvalues --    0.05782   0.05932   0.06941   0.06966   0.07841

  Beta  occ. eigenvalues -- -101.58895-101.58889 -19.16285 -19.16283 -10.31395
  Beta  occ. eigenvalues --  -10.31393 -10.29074 -10.29001 -10.23914 -10.23830
  Beta  occ. eigenvalues --   -9.50340  -9.50333  -7.26834  -7.26827  -7.25852
  Beta  occ. eigenvalues --   -7.25846  -7.25716  -7.25710  -1.09807  -1.09592
  Beta  occ. eigenvalues --   -0.94445  -0.88931  -0.87118  -0.78448  -0.73012
  Beta  occ. eigenvalues --   -0.65098  -0.63447  -0.56116  -0.53195  -0.50671
  Beta  occ. eigenvalues --   -0.49024  -0.48605  -0.47242  -0.46072  -0.44631
  Beta  occ. eigenvalues --   -0.44193  -0.40739  -0.36747  -0.35738  -0.33639
  Beta  occ. eigenvalues --   -0.33541  -0.31310  -0.30530  -0.29239
  Beta virt. eigenvalues --   -0.15703  -0.05824  -0.02977  -0.02417  -0.01349
  Beta virt. eigenvalues --    0.01135   0.01666   0.01793   0.03843   0.04324
  Beta virt. eigenvalues --    0.05782   0.05932   0.06941   0.06966   0.07841

 Mulliken charges and spin densities:
               1          2
     1  Cl   0.436892  -0.000000
     2  C    0.429364   0.000000
     3  C    0.429001   0.000000
     4  Cl   0.436684  -0.000000
     5  C   -1.037891  -0.000000
     6  O   -0.168481  -0.000000
     7  C    0.105943  -0.000000
     8  C    0.106190  -0.000000
     9  C   -1.036239   0.000000
    10  O   -0.168548  -0.000000
    11  H    0.233556   0.000000
    12  H    0.233531  -0.000000
 Sum of Mulliken charges =  -0.00000   0.00000

 Dipole moment (field-independent basis, Debye):
    X=             -1.7293    Y=              0.3115    Z=             -0.0190  Tot=              1.7573
 Quadrupole moment (field-independent basis, Debye-Ang):
   XX=            -64.9651   YY=            -85.2685   ZZ=            -69.1718
   XY=             -3.8145   XZ=              0.1011   YZ=              0.2588

  Exact polarizability: 107.036   6.906 143.810   0.311  -1.601  51.420
 Approx polarizability: 149.911  27.305 295.480   0.069  -3.673  78.550

                      1                      2                      3
                      A                      A                      A
 Frequencies --     75.7271                76.7805               207.0003
 Red. masses --     21.9254                 8.0430                30.8441
 Frc consts  --      0.0741                 0.0279                 0.7787
 IR Inten    --      0.0038                10.6161                 0.0503

                      4                      5                      6
                      A                      A                      A
 Frequencies --    229.3275               252.1822               252.6320
 Red. masses --      8.5646                 4.6252                18.9114
 Frc consts  --      0.2654                 0.1733                 0.7111
 IR Inten    --      0.5315                 0.0000                 0.7877

                      7                      8                      9
                      A                      A                      A
 Frequencies --    354.2342               356.0716               455.3266
 Red. masses --     19.2857                15.8712                11.8195
 Frc consts  --      1.4258                 1.1856                 1.4438
 IR Inten    --      2.4081                 2.5316                 3.0434

                     10                     11                     12
                      A                      A                      A
 Frequencies --    509.9147               542.0614               583.9513
 Red. masses --      9.5156                10.2328                 4.7690
 Frc consts  --      1.4577                 1.7715                 0.9581
 IR Inten    --      0.0000                48.7574                 0.0725

                     13                     14                     15
                      A                      A                      A
 Frequencies --    604.6771               707.7181               780.2371
 Red. masses --      2.3278                 9.1122                10.5904
 Frc consts  --      0.5015                 2.6890                 3.7985
 IR Inten    --      0.9397                 0.4299                 0.0000

                     16                     17                     18
                      A                      A                      A
 Frequencies --    858.2258               861.5015               918.1335
 Red. masses --      2.0310                 9.1690                10.1613
 Frc consts  --      0.8814                 4.0094                 5.0468
 IR Inten    --     47.8773                 5.8941                60.4539

                     19                     20                     21
                      A                      A                      A
 Frequencies --   1000.4948              1044.4785              1114.5405
 Red. masses --      1.2298                 5.6863                 1.5284
 Frc consts  --      0.7253                 3.6549                 1.1186
 IR Inten    --      0.0000               153.5865                33.0612

                     22                     23                     24
                      A                      A                      A
 Frequencies --   1236.9495              1281.1991              1381.2654
 Red. masses --      4.6243                 2.6929                 1.7190
 Frc consts  --      4.1687                 2.6044                 1.9323
 IR Inten    --     98.0285                86.6193                 0.0060

                     25                     26                     27
                      A                      A                      A
 Frequencies --   1592.4359              1681.9973              1737.8538
 Red. masses --     11.7636                 7.8319                11.6359
 Frc consts  --     17.5758                13.0548                20.7050
 IR Inten    --    137.5947                 0.1894                 9.3705

                     28                     29                     30
                      A                      A                      A
 Frequencies --   1741.5939              3184.7352              3201.7351
 Red. masses --     12.1955                 1.0875                 1.0998
 Frc consts  --     21.7943                 6.4984                 6.6428
 IR Inten    --    434.1016                 0.0807                 0.4247

 - Thermochemistry -
 -------------------
 Temperature   298.150 Kelvin.  Pressure   1.00000 Atm.
 Atom     1 has atomic number 17 and mass  34.96885

 Molecular mass:   175.94318 amu.
 Principal axes and moments of inertia in atomic units:
                           1         2         3
     Eigenvalues --  1465.556701732.490293198.04699
           X            0.17875   0.98386  -0.00782
           Y            0.98376  -0.17859   0.01790
           Z           -0.01622   0.01089   0.99981
 This molecule is an asymmetric top.
 Rotational symmetry number  1.
 Warning -- assumption of classical behavior for rotation
           may cause significant error
 Rotational temperatures (Kelvin)      0.05910     0.04999     0.02708
 Rotational constants (GHZ):           1.23144     1.04170     0.56433
 Zero-point vibrational energy     172411.7 (Joules/Mol)
                                   41.20738 (Kcal/Mol)
 Warning -- explicit consideration of  13 degrees of freedom as
           vibrations may cause significant error
 Vibrational temperatures:    108.95   110.47   297.83   329.95   362.83
          (Kelvin)            363.48   509.66   512.31   655.11   733.65
                              779.91   840.18   870.00  1018.25  1122.59
                             1234.80  1239.51  1320.99  1439.49  1502.77
                             1603.58  1779.69  1843.36  1987.33  2291.16
                             2420.02  2500.38  2505.77  4582.12  4606.58

 Zero-point correction=                           0.065668 (Hartree/Particle)
 Thermal correction to Energy=                    0.074309
 Thermal correction to Enthalpy=                  0.075253
 Thermal correction to Gibbs Free Energy=         0.030722
 Sum of electronic and zero-point Energies=          -1300.731573
 Sum of electronic and thermal Energies=             -1300.722933
 Sum of electronic and thermal Enthalpies=           -1300.721989
 Sum of electronic and thermal Free Energies=        -1300.766520

                     E (Thermal)             CV                S
                      KCal/Mol        Cal/Mol-Kelvin    Cal/Mol-Kelvin
 Total                   46.629             30.659             93.724
 Electronic               0.000              0.000              0.000
 Translational            0.889              2.981             41.402
 Rotational               0.889              2.981             30.475
 Vibrational             44.852             24.698             21.848
 Vibration     1          0.599              1.965              3.999
 Vibration     2          0.599              1.965              3.972
 Vibration     3          0.641              1.830              2.070
 Vibration     4          0.652              1.796              1.884
 Vibration     5          0.664              1.759              1.715
 Vibration     6          0.664              1.758              1.712
 Vibration     7          0.730              1.567              1.147
 Vibration     8          0.732              1.563              1.139
 Vibration     9          0.814              1.349              0.780
 Vibration    10          0.865              1.228              0.634
 Vibration    11          0.897              1.157              0.561
 Vibration    12          0.941              1.066              0.478
 Vibration    13          0.963              1.022              0.442

 Optimization completed.
    -- Stationary point found.
 Normal termination of Gaussian 16 at Sat Jan  6 05:41:28 2024.
