 Gaussian 16, Revision A.03,
 Gaussian 16:  ES64L-G16RevA.03 25-Dec-2016

 ----------------------------------------------------------------
 #P UB3LYP/6-311++G(d,p) SCRF=(PCM,Solvent=n,n-DiMethylFormamide)
 ----------------------------------------------------------------

 ------------------
 Radical PCM in DMF
 ------------------
 Symbolic Z-matrix:
 Charge = -1 Multiplicity = 2

                         Standard orientation:
 ---------------------------------------------------------------------
 Center     Atomic      Atomic             Coordinates (Angstroms)
 Number     Number       Type             X           Y           Z
 ---------------------------------------------------------------------
      1          6           0        2.897183   -2.261088    0.000809
      2          6           0        2.507305   -0.799333    0.000060
      3          6           0        3.530660    0.138148   -0.000400
      4          6           0        3.274619    1.522513   -0.000597
      5          6           0        1.974051    1.971682   -0.000227
      6          6           0        0.894291    1.063156    0.000129
      7          6           0       -0.457783    1.631526    0.000448
      8          8           0       -0.654406    2.873732    0.000163
      9          6           0       -1.562741    0.678968    0.000281
     10          6           0       -2.893588    1.153744    0.000280
     11          6           0       -3.962394    0.280855   -0.000016
     12          6           0       -3.731117   -1.113062   -0.000320
     13          6           0       -2.438002   -1.596761   -0.000304
     14          6           0       -1.327925   -0.722749    0.000007
     15          6           0        0.023868   -1.295473    0.000050
     16          8           0        0.179632   -2.544100   -0.000488
     17          6           0        1.146243   -0.349423    0.000111
     18          1           0        3.989179   -2.348963    0.001377
     19          1           0        2.494331   -2.786709   -0.866941
     20          1           0        2.493479   -2.785983    0.868578
     21          1           0        4.559003   -0.213080   -0.000481
     22          1           0        4.102081    2.226211   -0.000928
     23          1           0        1.731479    3.027580   -0.000267
     24          1           0       -3.037716    2.228097    0.000474
     25          1           0       -4.979342    0.662485   -0.000041
     26          1           0       -4.570676   -1.802219   -0.000570
     27          1           0       -2.231654   -2.660686   -0.000473
 ---------------------------------------------------------------------

 SCF Done:  E(UB3LYP) =  -728.414323793     A.U. after   19 cycles

 The electronic state is 2-A.
 Alpha  occ. eigenvalues --  -19.07266 -19.07125 -10.22326 -10.22032 -10.18273
 Alpha  occ. eigenvalues --  -10.17432 -10.17190 -10.17135 -10.17062 -10.17024
 Alpha  occ. eigenvalues --  -10.16962 -10.16925 -10.16853 -10.16807 -10.16537
 Alpha  occ. eigenvalues --  -10.16383 -10.15331  -1.00061  -0.99811  -0.85936
 Alpha  occ. eigenvalues --   -0.84994  -0.78343  -0.76773  -0.74870  -0.73579
 Alpha  occ. eigenvalues --   -0.68621  -0.65817  -0.63006  -0.61449  -0.57594
 Alpha  occ. eigenvalues --   -0.54556  -0.53135  -0.51780  -0.47008  -0.46251
 Alpha  occ. eigenvalues --   -0.45678  -0.45390  -0.42592  -0.42255  -0.41526
 Alpha  occ. eigenvalues --   -0.40931  -0.40339  -0.40124  -0.39903  -0.37592
 Alpha  occ. eigenvalues --   -0.37550  -0.36559  -0.35645  -0.34361  -0.34173
 Alpha  occ. eigenvalues --   -0.33624  -0.33058  -0.26561  -0.25544  -0.24700
 Alpha  occ. eigenvalues --   -0.24640  -0.24222  -0.23174  -0.13864
 Alpha virt. eigenvalues --   -0.05052  -0.02042  -0.00319  -0.00187   0.00469
 Alpha virt. eigenvalues --    0.01049   0.02017   0.02272   0.03700   0.04028
 Alpha virt. eigenvalues --    0.04214   0.04476   0.05065   0.05305   0.06242

  Beta  occ. eigenvalues --  -19.06719 -19.06564 -10.22169 -10.21842 -10.18274
  Beta  occ. eigenvalues --  -10.17363 -10.17150 -10.17081 -10.16983 -10.16940
  Beta  occ. eigenvalues --  -10.16895 -10.16880 -10.16838 -10.16814 -10.16472
  Beta  occ. eigenvalues --  -10.16371 -10.15331  -0.99096  -0.98823  -0.85673
  Beta  occ. eigenvalues --   -0.84878  -0.77954  -0.76623  -0.74668  -0.73392
  Beta  occ. eigenvalues --   -0.68362  -0.65221  -0.62833  -0.61189  -0.57503
  Beta  occ. eigenvalues --   -0.54334  -0.52895  -0.51632  -0.46702  -0.46173
  Beta  occ. eigenvalues --   -0.45502  -0.45318  -0.42217  -0.41785  -0.41272
  Beta  occ. eigenvalues --   -0.40547  -0.40118  -0.39769  -0.39428  -0.37403
  Beta  occ. eigenvalues --   -0.36478  -0.35811  -0.34815  -0.34283  -0.34067
  Beta  occ. eigenvalues --   -0.32911  -0.32468  -0.25016  -0.24499  -0.24131
  Beta  occ. eigenvalues --   -0.23833  -0.23719  -0.22671
  Beta virt. eigenvalues --   -0.07996  -0.04098  -0.01012  -0.00305   0.00053
  Beta virt. eigenvalues --    0.00468   0.01055   0.02028   0.02270   0.03752
  Beta virt. eigenvalues --    0.04039   0.04218   0.04486   0.05405   0.05782

 Mulliken charges and spin densities:
               1          2
     1  C   -0.517973   0.005789
     2  C    0.756055   0.015399
     3  C   -0.427334   0.054125
     4  C   -0.350035   0.035811
     5  C   -0.040533   0.035616
     6  C    0.414492   0.038211
     7  C   -0.592403   0.106624
     8  O   -0.461473   0.203936
     9  C    0.083689   0.013829
    10  C    0.031919   0.032964
    11  C   -0.462021   0.027408
    12  C   -0.479741   0.043495
    13  C    0.127045   0.018552
    14  C    0.053601   0.042234
    15  C   -0.770341   0.083611
    16  O   -0.418536   0.206159
    17  C    0.431880   0.054929
    18  H    0.144019  -0.000361
    19  H    0.160051  -0.000166
    20  H    0.160041  -0.000166
    21  H    0.121376  -0.004333
    22  H    0.193320  -0.002830
    23  H    0.154584  -0.002080
    24  H    0.161750  -0.001861
    25  H    0.178910  -0.002420
    26  H    0.180138  -0.003607
    27  H    0.167520  -0.000865
 Sum of Mulliken charges =  -1.00000   1.00000

 Dipole moment (field-independent basis, Debye):
    X=              1.3004    Y=             -1.6233    Z=              0.0011  Tot=              2.0799
 Quadrupole moment (field-independent basis, Debye-Ang):
   XX=            -98.9169   YY=           -134.0560   ZZ=           -106.3679
   XY=              5.0416   XZ=              0.0010   YZ=             -0.0049

 Normal termination of Gaussian 16 at Sun Jan 14 01:13:07 2024.
