 Q-Chem 5.4, Q-Chem, Inc., Pleasanton, CA (2021)
 Q-Chem 5.4.0 for Intel X86 EM64T Linux

User input:
--------------------------------------------------------------
$molecule
-2 1
C                  2.9981910000     -2.4719480000     -3.4581330000
C                  2.4830520000     -3.2224560000     -4.5002500000
C                  1.1660580000     -2.9781160000     -4.9564860000
C                  2.2417940000     -1.4594900000     -2.8279630000
C                  0.9077010000     -1.2150490000     -3.2881940000
C                  0.4045610000     -1.9923450000     -4.3539240000
C                  2.8309510000     -0.6888390000     -1.7337740000
C                  1.9793760000      0.3134490000     -1.1477570000
C                  0.6746410000      0.5588400000     -1.6092490000
C                  0.0706950000     -0.1817260000     -2.6834650000
O                  4.0284380000     -0.9058950000     -1.3383770000
O                 -1.1177890000      0.0489120000     -3.0978610000
H                  3.0866580000     -3.9978980000     -4.9671990000
H                  0.7547290000     -3.5644560000     -5.7753690000
C                  2.5667360000      1.1099340000     -0.0061950000
H                  4.0046290000     -2.6337160000     -3.0860130000
H                 -0.6092130000     -1.7809900000     -4.6783590000
H                  2.7848200000      2.1500520000     -0.2936960000
H                  3.5086730000      0.6462630000      0.2924950000
H                  1.8929690000      1.1531330000      0.8576450000
C                 -0.1813740000      1.6674000000     -1.0161000000
C                 -1.0797460000      1.2110840000      0.1084350000
C                 -1.3094640000      1.7839070000      1.3009160000
C                 -2.3044870000      1.1768750000      2.2740260000
C                 -0.6576550000      3.0665170000      1.7653170000
C                 -1.7000200000      0.6983490000      3.6188860000
C                 -2.7245700000      0.0649150000      4.5207200000
C                 -3.1321130000      0.4495450000      5.7391290000
C                 -2.6093250000      1.6508070000      6.4888170000
C                 -4.1978300000     -0.3173170000      6.4866960000
H                 -0.8393160000      2.0080160000     -1.8268150000
H                  0.4410600000      2.5099800000     -0.7048470000
H                 -1.6248840000      0.2984320000     -0.1260620000
H                 -2.8043630000      0.3305790000      1.7917570000
H                 -3.0893830000      1.9126690000      2.5041630000
H                 -0.0254640000      3.5104060000      0.9966310000
H                 -0.0334110000      2.9081390000      2.6538580000
H                 -1.4182700000      3.8075470000      2.0475950000
H                 -1.2052500000      1.5331180000      4.1196140000
H                 -0.9160960000     -0.0356860000      3.3913340000
H                 -3.2016440000     -0.8225860000      4.1034030000
H                 -1.8533620000      2.2129180000      5.9386430000
H                 -2.1726400000      1.3453160000      7.4486350000
H                 -3.4304390000      2.3372670000      6.7356580000
H                 -4.5536690000     -1.1863280000      5.9259310000
H                 -5.0635770000      0.3220290000      6.7086110000
H                 -3.8260430000     -0.6685770000      7.4581720000
$end
$rem
MAX_SCF_CYCLES=200
BASIS  =  6-311++G(d,p)
GUI  =  2
JOB_TYPE  =  SP
METHOD  =  B3LYP
SCF_CONVERGENCE  = 6
SOLVENT_METHOD = COSMO
$end
$solvent
dielectric 37.219
opticaldielectric 1.43
$end

--------------------------------------------------------------

             Standard Nuclear Orientation (Angstroms)
    I     Atom           X                Y                Z
 ----------------------------------------------------------------
    1      C       5.0379552068     0.0598956902    -1.5566007506
    2      C       5.8712651721     1.1486066915    -1.3696752402
    3      C       5.5778840011     2.0904017028    -0.3551427545
    4      C       3.8905535007    -0.1421449919    -0.7584962838
    5      C       3.5925237817     0.8133426018     0.2659986423
    6      C       4.4583097797     1.9149968828     0.4388911373
    7      C       3.0426628952    -1.3107770279    -0.9900976388
    8      C       1.8906783416    -1.4249746253    -0.1339039476
    9      C       1.6072057908    -0.4918483498     0.8782441127
   10      C       2.4235433790     0.6647207246     1.1293809363
   11      O       3.3245402655    -2.1658640570    -1.8993822646
   12      O       2.1584431930     1.5089428663     2.0537309874
   13      H       6.7481488401     1.2815401428    -1.9998304572
   14      H       6.2287539413     2.9487043945    -0.2026949937
   15      C       0.9952427717    -2.6190203365    -0.3684117401
   16      H       5.2358881179    -0.6806081882    -2.3247388872
   17      H       4.2038596426     2.6194618256     1.2241624282
   18      H       1.0724895666    -3.3620057351     0.4403333002
   19      H       1.3028258884    -3.1073375951    -1.2949055099
   20      H      -0.0614474933    -2.3357033240    -0.4404174604
   21      C       0.4197466412    -0.6701709398     1.8118577972
   22      C      -0.8337962962     0.0321848937     1.3479592138
   23      C      -2.0969686770    -0.4209144959     1.3031935605
   24      C      -3.2288969945     0.4818285702     0.8457059296
   25      C      -2.5149356418    -1.8107861868     1.7264806647
   26      C      -3.9598611129     0.0187013884    -0.4404591366
   27      C      -5.0385450205     0.9761746817    -0.8693318665
   28      C      -6.3583728931     0.7673979684    -0.9834313654
   29      C      -7.0569507372    -0.5399178517    -0.6983276558
   30      C      -7.2915322258     1.8735032697    -1.4175179845
   31      H       0.7096154216    -0.2027236156     2.7624548913
   32      H       0.2308325131    -1.7305678938     1.9965557206
   33      H      -0.6555656599     1.0604853609     1.0382336180
   34      H      -2.8370998831     1.4912770954     0.6838880632
   35      H      -3.9801784962     0.5634570003     1.6452873730
   36      H      -1.6835817158    -2.3862513163     2.1330167713
   37      H      -2.9332989673    -2.3834941772     0.8890757706
   38      H      -3.3002876336    -1.7624871879     2.4934428307
   39      H      -4.3666847914    -0.9839609452    -0.2937352268
   40      H      -3.2116728433    -0.0638735439    -1.2395334921
   41      H      -4.6803817485     1.9792685320    -1.1037095599
   42      H      -6.3828728582    -1.3312519203    -0.3673447727
   43      H      -7.5854430160    -0.8967392198    -1.5919962499
   44      H      -7.8265952086    -0.4043040772     0.0734510065
   45      H      -6.7601307996     2.8066242790    -1.6252596596
   46      H      -8.0488525465     2.0775039388    -0.6478576037
   47      H      -7.8484579136     1.5911541348    -2.3205614629
 ----------------------------------------------------------------

   74    -965.3679129284      7.83e-07  Convergence criterion met
 Total energy in the final basis set =     -965.3679129284
    8    -965.6272660743      5.59e-07  Convergence criterion met
 Total energy in the final basis set =     -965.6272660743

                    Orbital Energies (a.u.)
 --------------------------------------------------------------

 Alpha MOs
 -- Occupied --
-19.0166 -19.0163 -10.1723 -10.1653 -10.1653 -10.1599 -10.1596 -10.1579
-10.1561 -10.1556 -10.1550 -10.1504 -10.1469 -10.1465 -10.1464 -10.1438
-10.1435 -10.1409 -10.1327 -10.1323 -10.1314 -10.1238 -10.1225  -0.9402
 -0.9371  -0.8242  -0.8163  -0.8005  -0.7768  -0.7460  -0.7242  -0.7204
 -0.7072  -0.6856  -0.6743  -0.6621  -0.6338  -0.6175  -0.5947  -0.5673
 -0.5519  -0.5191  -0.5137  -0.4997  -0.4781  -0.4649  -0.4621  -0.4477
 -0.4343  -0.4299  -0.4281  -0.4235  -0.4098  -0.4042  -0.3985  -0.3957
 -0.3849  -0.3826  -0.3774  -0.3711  -0.3672  -0.3644  -0.3636  -0.3618
 -0.3606  -0.3546  -0.3493  -0.3438  -0.3312  -0.3296  -0.3233  -0.3169
 -0.3126  -0.3066  -0.3013  -0.3012  -0.2364  -0.2291  -0.2263  -0.2214
 -0.2026  -0.2014  -0.1903  -0.1065

          Ground-State Mulliken Net Atomic Charges

     Atom                 Charge (a.u.)
  ----------------------------------------
      1 C                     0.038879
      2 C                    -0.535451
      3 C                    -0.490595
      4 C                    -0.005044
      5 C                     0.111663
      6 C                    -0.080307
      7 C                    -0.613391
      8 C                     0.561457
      9 C                     0.886974
     10 C                    -0.843471
     11 O                    -0.730410
     12 O                    -0.704405
     13 H                     0.170610
     14 H                     0.174289
     15 C                    -0.532879
     16 H                     0.157334
     17 H                     0.155049
     18 H                     0.158075
     19 H                     0.160446
     20 H                     0.156184
     21 C                    -0.059945
     22 C                    -0.736319
     23 C                     0.946332
     24 C                    -0.938097
     25 C                    -0.843661
     26 C                    -0.259817
     27 C                    -0.106885
     28 C                     0.412345
     29 C                    -0.688197
     30 C                    -0.642540
     31 H                     0.164921
     32 H                     0.180115
     33 H                     0.221303
     34 H                     0.133931
     35 H                     0.169125
     36 H                     0.119677
     37 H                     0.165507
     38 H                     0.163516
     39 H                     0.120915
     40 H                     0.169747
     41 H                     0.182004
     42 H                     0.144947
     43 H                     0.153740
     44 H                     0.157992
     45 H                     0.162700
     46 H                     0.159744
     47 H                     0.151891
  ----------------------------------------
  Sum of atomic charges =    -2.000001

                    Cartesian Multipole Moments
 -----------------------------------------------------------------
    Charge (ESU x 10^10)
                -9.6064
    Dipole Moment (Debye)
         X     -28.2953      Y       1.3811      Z       0.1152
       Tot      28.3292
    Quadrupole Moments (Debye-Ang)
        XX    -237.1853     XY      12.2597     YY    -177.4766
        XZ      10.6328     YZ     -27.2355     ZZ    -183.0547

 Total job time:  973.91s(wall), 7630.16s(cpu)
        *  Thank you very much for using Q-Chem.  Have a nice day.  *
