 Gaussian 16, Revision A.03,
 Gaussian 16:  ES64L-G16RevA.03 25-Dec-2016

 ----------------------------------------------------------------------
 #P UB3LYP/6-311++G(d,p) nosym opt freq SCRF=(PCM,Solvent=n,n-DiMethylF
 ormamide)
 ----------------------------------------------------------------------

 --------
 Oxidized
 --------
 Symbolic Z-matrix:
 Charge =  0 Multiplicity = 1

 SCF Done:  E(UB3LYP) =  -3301.83263867     A.U. after   15 cycles
 SCF Done:  E(UB3LYP) =  -3301.83271710     A.U. after   10 cycles
 SCF Done:  E(UB3LYP) =  -3301.83272709     A.U. after   10 cycles
 SCF Done:  E(UB3LYP) =  -3301.83272723     A.U. after    8 cycles
 Optimization completed.
    -- Stationary point found.
 Normal termination of Gaussian 16 at Sat Feb 10 16:13:37 2024.

 ----------------------------------------------------------------------
 #P Geom=AllCheck Guess=TCheck SCRF=Check GenChk UB3LYP/6-311++G(d,p) F
 req
 ----------------------------------------------------------------------

 Structure from the checkpoint file:  "120.chk"
 --------
 Oxidized
 --------
 Charge =  0 Multiplicity = 1

                          Input orientation:
 ---------------------------------------------------------------------
 Center     Atomic      Atomic             Coordinates (Angstroms)
 Number     Number       Type             X           Y           Z
 ---------------------------------------------------------------------
      1          6           0       -3.376942    3.686511    0.036469
      2          6           0       -4.593159    3.012459    0.058215
      3          6           0       -4.618694    1.615623    0.082129
      4          6           0       -2.174379    2.973017    0.038396
      5          6           0       -2.199884    1.565041    0.062519
      6          6           0       -3.428048    0.896954    0.084245
      7          6           0       -0.886829    3.721232    0.014971
      8          6           0        0.369477    2.921674    0.018483
      9          6           0        0.346785    1.517659    0.042456
     10          6           0       -0.940559    0.768721    0.065386
     11          6           0        1.596917    3.585890   -0.002553
     12          6           0        2.776076    2.855314    0.000377
     13          6           0        2.792209    1.449374    0.023955
     14          6           0        1.549849    0.810515    0.044742
     15          8           0       -0.859533    4.944871   -0.005643
     16          8           0       -0.961821   -0.455219    0.086668
     17         35           0        4.428386    3.832648   -0.029366
     18          6           0        4.063567    0.647818    0.027133
     19          1           0       -3.342768    4.768304    0.017908
     20          1           0       -5.521088    3.571947    0.056608
     21          1           0       -5.566566    1.090868    0.099097
     22          1           0       -3.433832   -0.185375    0.102636
     23          1           0        1.610650    4.667111   -0.020898
     24          1           0        1.510962   -0.271655    0.063299
     25          1           0        4.679698    0.893025    0.896567
     26          1           0        4.664054    0.861468   -0.861399
     27          1           0        3.844512   -0.419542    0.048162
 ---------------------------------------------------------------------

 SCF Done:  E(UB3LYP) =  -3301.83272723     A.U. after    1 cycles

 Alpha  occ. eigenvalues -- -482.84490 -62.49772 -56.31805 -56.31430 -56.31402
 Alpha  occ. eigenvalues --  -19.13488 -19.13444 -10.28762 -10.28704 -10.25558
 Alpha  occ. eigenvalues --  -10.22271 -10.21538 -10.21391 -10.21249 -10.21199
 Alpha  occ. eigenvalues --  -10.20984 -10.20387 -10.20124 -10.20085 -10.20041
 Alpha  occ. eigenvalues --  -10.20027 -10.18005  -8.70742  -6.53872  -6.52621
 Alpha  occ. eigenvalues --   -6.52546  -2.64968  -2.64621  -2.64566  -2.63570
 Alpha  occ. eigenvalues --   -2.63569  -1.06840  -1.06646  -0.90857  -0.89058
 Alpha  occ. eigenvalues --   -0.84130  -0.81039  -0.79269  -0.78157  -0.76140
 Alpha  occ. eigenvalues --   -0.72406  -0.68681  -0.66179  -0.63580  -0.62558
 Alpha  occ. eigenvalues --   -0.59176  -0.55757  -0.55381  -0.51370  -0.50029
 Alpha  occ. eigenvalues --   -0.48318  -0.47683  -0.46219  -0.46158  -0.45992
 Alpha  occ. eigenvalues --   -0.45360  -0.45180  -0.43932  -0.43757  -0.42245
 Alpha  occ. eigenvalues --   -0.40524  -0.39550  -0.39395  -0.38287  -0.37656
 Alpha  occ. eigenvalues --   -0.37462  -0.36973  -0.33275  -0.30730  -0.29216
 Alpha  occ. eigenvalues --   -0.28901  -0.28238  -0.27949  -0.27932  -0.26723
 Alpha virt. eigenvalues --   -0.12297  -0.07962  -0.04200  -0.03245  -0.02578
 Alpha virt. eigenvalues --   -0.00823   0.00013   0.00935   0.01684   0.02099
 Alpha virt. eigenvalues --    0.02476   0.02853   0.03403   0.03679   0.03743

  Beta  occ. eigenvalues -- -482.84490 -62.49772 -56.31805 -56.31430 -56.31402
  Beta  occ. eigenvalues --  -19.13488 -19.13444 -10.28762 -10.28704 -10.25558
  Beta  occ. eigenvalues --  -10.22271 -10.21538 -10.21391 -10.21249 -10.21199
  Beta  occ. eigenvalues --  -10.20984 -10.20387 -10.20124 -10.20085 -10.20041
  Beta  occ. eigenvalues --  -10.20027 -10.18005  -8.70742  -6.53872  -6.52621
  Beta  occ. eigenvalues --   -6.52546  -2.64968  -2.64621  -2.64566  -2.63570
  Beta  occ. eigenvalues --   -2.63569  -1.06840  -1.06646  -0.90857  -0.89058
  Beta  occ. eigenvalues --   -0.84130  -0.81039  -0.79269  -0.78157  -0.76140
  Beta  occ. eigenvalues --   -0.72406  -0.68681  -0.66179  -0.63580  -0.62558
  Beta  occ. eigenvalues --   -0.59176  -0.55757  -0.55381  -0.51370  -0.50029
  Beta  occ. eigenvalues --   -0.48318  -0.47683  -0.46219  -0.46158  -0.45992
  Beta  occ. eigenvalues --   -0.45360  -0.45180  -0.43932  -0.43757  -0.42245
  Beta  occ. eigenvalues --   -0.40524  -0.39550  -0.39395  -0.38287  -0.37656
  Beta  occ. eigenvalues --   -0.37462  -0.36973  -0.33275  -0.30730  -0.29216
  Beta  occ. eigenvalues --   -0.28901  -0.28238  -0.27949  -0.27932  -0.26723
  Beta virt. eigenvalues --   -0.12297  -0.07962  -0.04200  -0.03245  -0.02578
  Beta virt. eigenvalues --   -0.00823   0.00013   0.00935   0.01684   0.02099
  Beta virt. eigenvalues --    0.02476   0.02853   0.03403   0.03679   0.03743

 Mulliken charges and spin densities:
               1          2
     1  C    0.216229   0.000000
     2  C   -0.473572   0.000000
     3  C   -0.446902  -0.000000
     4  C    0.066536  -0.000000
     5  C    0.296769   0.000000
     6  C    0.112007  -0.000000
     7  C   -0.862589  -0.000000
     8  C    0.274737  -0.000000
     9  C    0.274768   0.000000
    10  C   -0.610069  -0.000000
    11  C    0.015100  -0.000000
    12  C   -0.290269   0.000000
    13  C    0.601254   0.000000
    14  C   -0.029138  -0.000000
    15  O   -0.266411   0.000000
    16  O   -0.267980   0.000000
    17  Br  -0.176327   0.000000
    18  C   -0.177517   0.000000
    19  H    0.188831   0.000000
    20  H    0.209417  -0.000000
    21  H    0.211276  -0.000000
    22  H    0.184588  -0.000000
    23  H    0.239747   0.000000
    24  H    0.151223  -0.000000
    25  H    0.186482   0.000000
    26  H    0.186793   0.000000
    27  H    0.185015   0.000000
 Sum of Mulliken charges =  -0.00000  -0.00000

 Dipole moment (field-independent basis, Debye):
    X=             -1.1493    Y=             -1.4133    Z=              0.0329  Tot=              1.8220
 Quadrupole moment (field-independent basis, Debye-Ang):
   XX=            -87.8151   YY=           -135.3927   ZZ=           -118.1740
   XY=             -9.3220   XZ=             -0.1770   YZ=              0.2661

  Exact polarizability: 429.158  15.800 320.477  -2.664  -3.235 136.737
 Approx polarizability: 443.873  16.022 411.577  -2.584  -4.348 162.347

                      1                      2                      3
                      A                      A                      A
 Frequencies --     30.6017                56.1804               111.3984
 Red. masses --      8.2852                 5.6258                 4.9470
 Frc consts  --      0.0046                 0.0105                 0.0362
 IR Inten    --      6.3379                 2.7276                 0.6698

                      4                      5                      6
                      A                      A                      A
 Frequencies --    114.5873               124.7580               150.1530
 Red. masses --      5.9346                10.7630                 1.0587
 Frc consts  --      0.0459                 0.0987                 0.0141
 IR Inten    --      2.6068                 0.1630                 1.0696

                      7                      8                      9
                      A                      A                      A
 Frequencies --    184.0357               202.2147               217.0898
 Red. masses --      6.1013                 3.9470                10.4730
 Frc consts  --      0.1218                 0.0951                 0.2908
 IR Inten    --      0.4754                 0.2361                 0.2433

                     10                     11                     12
                      A                      A                      A
 Frequencies --    233.9646               282.0073               314.7600
 Red. masses --      4.1803                 5.9028                 5.8603
 Frc consts  --      0.1348                 0.2766                 0.3421
 IR Inten    --      3.7386                 0.7118                 4.3425

                     13                     14                     15
                      A                      A                      A
 Frequencies --    345.6755               387.1403               423.0199
 Red. masses --      6.9210                11.0908                 3.3242
 Frc consts  --      0.4873                 0.9794                 0.3505
 IR Inten    --      1.8072                44.1222                 5.4134

                     16                     17                     18
                      A                      A                      A
 Frequencies --    444.9253               452.2370               455.2486
 Red. masses --      3.0789                 4.8249                 8.4956
 Frc consts  --      0.3591                 0.5814                 1.0374
 IR Inten    --      1.5962                 0.0360                12.2713

                     19                     20                     21
                      A                      A                      A
 Frequencies --    456.1494               484.0472               562.4211
 Red. masses --      4.4937                 8.8727                 5.8345
 Frc consts  --      0.5509                 1.2249                 1.0874
 IR Inten    --     10.8027                 4.9482                 0.0443

                     22                     23                     24
                      A                      A                      A
 Frequencies --    605.6006               661.5633               670.6961
 Red. masses --      6.5073                 6.6029                 4.6170
 Frc consts  --      1.4061                 1.7027                 1.2237
 IR Inten    --     52.9346                 6.8034                 0.1081

                     25                     26                     27
                      A                      A                      A
 Frequencies --    681.9850               704.6358               719.2408
 Red. masses --      6.3582                 7.0950                 4.4147
 Frc consts  --      1.7423                 2.0756                 1.3456
 IR Inten    --      7.9719                 8.1634                 1.3801

                     28                     29                     30
                      A                      A                      A
 Frequencies --    730.4900               747.1451               809.5242
 Red. masses --      2.1093                 6.3536                 3.6789
 Frc consts  --      0.6632                 2.0897                 1.4205
 IR Inten    --    131.3065                 9.2949                 1.8496

                     31                     32                     33
                      A                      A                      A
 Frequencies --    811.4345               862.3610               912.7213
 Red. masses --      2.1647                 6.3486                 1.3447
 Frc consts  --      0.8397                 2.7817                 0.6600
 IR Inten    --      8.4100                 4.4296                 0.0565

                     34                     35                     36
                      A                      A                      A
 Frequencies --    923.3825               934.7245               959.8021
 Red. masses --      1.4605                 1.4366                 7.0951
 Frc consts  --      0.7337                 0.7395                 3.8510
 IR Inten    --      0.1165                25.3939                80.8793

                     37                     38                     39
                      A                      A                      A
 Frequencies --    996.7745              1003.0800              1024.2856
 Red. masses --      3.3554                 1.3897                 1.3358
 Frc consts  --      1.9642                 0.8238                 0.8257
 IR Inten    --    221.6699                 2.4926                 0.0006

                     40                     41                     42
                      A                      A                      A
 Frequencies --   1028.6059              1057.4599              1058.8419
 Red. masses --      1.6512                 1.9327                 1.5368
 Frc consts  --      1.0293                 1.2733                 1.0152
 IR Inten    --      1.9858                 0.1204                 7.5509

                     43                     44                     45
                      A                      A                      A
 Frequencies --   1111.3200              1142.9453              1172.8833
 Red. masses --      2.4322                 3.2206                 1.4794
 Frc consts  --      1.7698                 2.4788                 1.1990
 IR Inten    --      5.1314                17.9760                 1.1078

                     46                     47                     48
                      A                      A                      A
 Frequencies --   1183.6905              1226.9421              1228.3482
 Red. masses --      1.3829                 3.9699                 2.0900
 Frc consts  --      1.1416                 3.5211                 1.8579
 IR Inten    --     40.3348                56.9814                 0.3030

                     49                     50                     51
                      A                      A                      A
 Frequencies --   1265.0802              1297.7966              1301.8836
 Red. masses --      1.3031                 5.5900                 2.2591
 Frc consts  --      1.2287                 5.5472                 2.2560
 IR Inten    --     15.3451              1377.4328               154.3664

                     52                     53                     54
                      A                      A                      A
 Frequencies --   1335.7810              1359.0556              1406.6782
 Red. masses --      7.5802                 8.1700                 3.7982
 Frc consts  --      7.9690                 8.8910                 4.4281
 IR Inten    --     95.8772                40.5830                 3.4248

                     55                     56                     57
                      A                      A                      A
 Frequencies --   1412.3483              1470.6135              1477.5175
 Red. masses --      1.3427                 1.0422                 1.7214
 Frc consts  --      1.5780                 1.3280                 2.2141
 IR Inten    --      8.8661                16.0178                 2.4209

                     58                     59                     60
                      A                      A                      A
 Frequencies --   1482.4642              1496.7720              1504.1131
 Red. masses --      1.7125                 2.4309                 2.5696
 Frc consts  --      2.2174                 3.2087                 3.4251
 IR Inten    --      5.8564                10.5707                22.8866

                     61                     62                     63
                      A                      A                      A
 Frequencies --   1581.4529              1607.8543              1611.1057
 Red. masses --      7.7486                 6.6444                 7.2555
 Frc consts  --     11.4179                10.1204                11.0960
 IR Inten    --     85.6906               420.1512               126.0793

                     64                     65                     66
                      A                      A                      A
 Frequencies --   1623.1338              1693.3037              1702.4829
 Red. masses --      5.8697                12.4946                11.6625
 Frc consts  --      9.1112                21.1078                19.9162
 IR Inten    --     35.0228                 7.2317               710.1273

                     67                     68                     69
                      A                      A                      A
 Frequencies --   3034.8365              3085.9296              3125.1076
 Red. masses --      1.0375                 1.1001                 1.1010
 Frc consts  --      5.6300                 6.1724                 6.3356
 IR Inten    --     13.4865                11.3771                23.7650

                     70                     71                     72
                      A                      A                      A
 Frequencies --   3180.0356              3192.2616              3195.9318
 Red. masses --      1.0875                 1.0914                 1.0903
 Frc consts  --      6.4794                 6.5526                 6.5614
 IR Inten    --      3.2051                 9.9178                 4.4125

                     73                     74                     75
                      A                      A                      A
 Frequencies --   3204.3782              3207.4180              3214.4164
 Red. masses --      1.0926                 1.0955                 1.0915
 Frc consts  --      6.6098                 6.6400                 6.6447
 IR Inten    --      2.5801                20.7424                 4.2878

 - Thermochemistry -
 -------------------
 Temperature   298.150 Kelvin.  Pressure   1.00000 Atm.
 Atom     1 has atomic number  6 and mass  12.00000

 Molecular mass:   299.97859 amu.
 Principal axes and moments of inertia in atomic units:
                           1         2         3
     Eigenvalues --  2159.26915********************
           X            0.98776  -0.15577   0.00814
           Y            0.15562   0.98767   0.01687
           Z           -0.01067  -0.01540   0.99982
 This molecule is an asymmetric top.
 Rotational symmetry number  1.
 Warning -- assumption of classical behavior for rotation
           may cause significant error
 Rotational temperatures (Kelvin)      0.04011     0.00809     0.00674
 Rotational constants (GHZ):           0.83581     0.16853     0.14037
 Zero-point vibrational energy     514830.0 (Joules/Mol)
                                  123.04732 (Kcal/Mol)
 Warning -- explicit consideration of  22 degrees of freedom as
           vibrations may cause significant error
 Vibrational temperatures:     44.03    80.83   160.28   164.87   179.50
          (Kelvin)            216.04   264.79   290.94   312.34   336.62
                              405.75   452.87   497.35   557.01   608.63
                              640.15   650.67   655.00   656.30   696.44
                              809.20   871.32   951.84   964.98   981.22
                             1013.81  1034.83  1051.01  1074.98  1164.72
                             1167.47  1240.75  1313.20  1328.54  1344.86
                             1380.94  1434.14  1443.21  1473.72  1479.93
                             1521.45  1523.44  1598.94  1644.44  1687.52
                             1703.07  1765.30  1767.32  1820.17  1867.24
                             1873.12  1921.89  1955.38  2023.90  2032.05
                             2115.88  2125.82  2132.94  2153.52  2164.08
                             2275.36  2313.34  2318.02  2335.33  2436.29
                             2449.49  4366.45  4439.96  4496.33  4575.36
                             4592.95  4598.23  4610.39  4614.76  4624.83

 Zero-point correction=                           0.196088 (Hartree/Particle)
 Thermal correction to Energy=                    0.210614
 Thermal correction to Enthalpy=                  0.211558
 Thermal correction to Gibbs Free Energy=         0.153225
 Sum of electronic and zero-point Energies=          -3301.636639
 Sum of electronic and thermal Energies=             -3301.622113
 Sum of electronic and thermal Enthalpies=           -3301.621169
 Sum of electronic and thermal Free Energies=        -3301.679502

                     E (Thermal)             CV                S
                      KCal/Mol        Cal/Mol-Kelvin    Cal/Mol-Kelvin
 Total                  132.162             56.072            122.773
 Electronic               0.000              0.000              0.000
 Translational            0.889              2.981             42.993
 Rotational               0.889              2.981             34.052
 Vibrational            130.385             50.111             45.728
 Vibration     1          0.594              1.984              5.790
 Vibration     2          0.596              1.975              4.587
 Vibration     3          0.607              1.940              3.244
 Vibration     4          0.608              1.937              3.190
 Vibration     5          0.610              1.928              3.025
 Vibration     6          0.618              1.902              2.670
 Vibration     7          0.631              1.862              2.287
 Vibration     8          0.639              1.837              2.113
 Vibration     9          0.646              1.815              1.983
 Vibration    10          0.654              1.789              1.848
 Vibration    11          0.681              1.707              1.521
 Vibration    12          0.702              1.645              1.337
 Vibration    13          0.724              1.584              1.186
 Vibration    14          0.756              1.498              1.011
 Vibration    15          0.785              1.420              0.882
 Vibration    16          0.804              1.372              0.811
 Vibration    17          0.811              1.356              0.789
 Vibration    18          0.814              1.349              0.780
 Vibration    19          0.814              1.347              0.777
 Vibration    20          0.840              1.285              0.699
 Vibration    21          0.918              1.113              0.519
 Vibration    22          0.964              1.020              0.440

                           ! Non-Optimized Parameters !
 Normal termination of Gaussian 16 at Sat Feb 10 17:43:33 2024.
