 Q-Chem 5.4, Q-Chem, Inc., Pleasanton, CA (2021)
 Q-Chem 5.4.0 for Intel X86 EM64T Linux

User input:
--------------------------------------------------------------
$molecule
0 1
O                  1.9344000000     -3.1205870000      0.5061530000
C                  1.4782670000     -1.9898950000      0.3688080000
C                  0.0527550000     -1.7079720000      0.2899790000
C                 -0.4351130000     -0.4507400000      0.1517390000
O                  0.3851230000      0.6320980000      0.0544960000
C                  1.7463300000      0.4705940000      0.1019060000
C                  2.5162260000      1.6306890000     -0.0073050000
C                  3.8972940000      1.5224510000      0.0395500000
C                  4.5119050000      0.2706190000      0.1945250000
C                  3.7357660000     -0.8704690000      0.3026920000
C                  2.3358320000     -0.7873710000      0.2582900000
C                 -1.8604220000     -0.0800130000      0.0676450000
C                 -2.8552240000     -0.9371410000      0.5621470000
C                 -4.1980460000     -0.5921120000      0.4621030000
C                 -4.5715670000      0.6146900000     -0.1292380000
C                 -3.5905490000      1.4770370000     -0.6147280000
C                 -2.2449570000      1.1370410000     -0.5144880000
H                 -0.6225360000     -2.5508280000      0.3286660000
H                  2.0221320000      2.5873560000     -0.1237610000
H                  4.5045170000      2.4164990000     -0.0441350000
H                  5.5926070000      0.2005100000      0.2297700000
H                  4.1772900000     -1.8524760000      0.4232560000
H                 -2.5793780000     -1.8664060000      1.0449090000
H                 -4.9539920000     -1.2625200000      0.8544800000
H                 -5.6192410000      0.8823510000     -0.2053360000
H                 -3.8725720000      2.4175970000     -1.0739640000
H                 -1.4868510000      1.8089970000     -0.8942120000
$end
$rem
MAX_SCF_CYCLES=200
BASIS  =  6-311++G(d,p)
GUI  =  2
JOB_TYPE  =  SP
METHOD  =  B3LYP
SOLVENT_METHOD = COSMO
$end
$solvent
dielectric 37.219
opticaldielectric 1.43
$end

--------------------------------------------------------------

             Standard Nuclear Orientation (Angstroms)
    I     Atom           X                Y                Z
 ----------------------------------------------------------------
    1      O      -1.9609224921    -2.8539224129     0.2142045334
    2      C      -1.4323734827    -1.7500291299     0.1279437306
    3      C       0.0095090918    -1.5532519710     0.1222479280
    4      C       0.5774624743    -0.3272224868     0.0125280850
    5      O      -0.1715266272     0.8067044855    -0.0769502833
    6      C      -1.5408711867     0.7295629602    -0.0642849974
    7      C      -2.2345326629     1.9381268413    -0.1575287849
    8      C      -3.6204236848     1.9146267525    -0.1538548827
    9      C      -4.3150414135     0.6991709305    -0.0588778118
   10      C      -3.6139582591    -0.4909765366     0.0317041306
   11      C      -2.2108614308    -0.4938270340     0.0299195653
   12      C       2.0247328716    -0.0423871616    -0.0045976152
   13      C       2.9484125345    -1.0401393277    -0.3512071227
   14      C       4.3123588308    -0.7720923339    -0.3461035406
   15      C       4.7782414759     0.4959815426     0.0010494336
   16      C       3.8683309245     1.4962701738     0.3375381373
   17      C       2.5019217046     1.2333046957     0.3313600275
   18      H       0.6304853605    -2.4314552974     0.2274536629
   19      H      -1.6794211862     2.8650151897    -0.2325745563
   20      H      -4.1688776168     2.8468573727    -0.2258905149
   21      H      -5.3985806639     0.6953483606    -0.0573365708
   22      H      -4.1183086046    -1.4469463129     0.1063324391
   23      H       2.6005053638    -2.0224418092    -0.6456999748
   24      H       5.0125432534    -1.5520635748    -0.6222332008
   25      H       5.8422382164     0.7032484155     0.0033959924
   26      H       4.2223061916     2.4848808548     0.6066816333
   27      H       1.7992559146     2.0125927294     0.5948193934
 ----------------------------------------------------------------

    9    -728.2588171605      4.28e-06  Convergence criterion met
 Total energy in the final basis set =     -728.2588171605
    5    -728.2751257532      4.41e-06  Convergence criterion met
 Total energy in the final basis set =     -728.2751257532

                    Orbital Energies (a.u.)
 --------------------------------------------------------------

 Alpha MOs
 -- Occupied --
-19.2113 -19.1099 -10.2792 -10.2692 -10.2651 -10.2065 -10.2001 -10.1952
-10.1927 -10.1926 -10.1914 -10.1899 -10.1874 -10.1873 -10.1870 -10.1858
-10.1855  -1.1328  -1.0454  -0.8878  -0.8753  -0.8281  -0.7940  -0.7705
 -0.7611  -0.7553  -0.6807  -0.6618  -0.6235  -0.6164  -0.6052  -0.5652
 -0.5478  -0.5419  -0.5051  -0.4877  -0.4845  -0.4755  -0.4635  -0.4533
 -0.4483  -0.4436  -0.4369  -0.4283  -0.4129  -0.4027  -0.3938  -0.3816
 -0.3737  -0.3680  -0.3633  -0.3536  -0.3087  -0.2778  -0.2720  -0.2706
 -0.2599  -0.2506

          Ground-State Mulliken Net Atomic Charges

     Atom                 Charge (a.u.)
  ----------------------------------------
      1 O                    -0.426043
      2 C                    -1.392995
      3 C                     0.006586
      4 C                     0.249106
      5 O                     0.030442
      6 C                    -1.396639
      7 C                    -0.403437
      8 C                    -0.489510
      9 C                    -0.250093
     10 C                     0.152149
     11 C                     2.371371
     12 C                     1.117735
     13 C                    -0.504152
     14 C                    -0.429916
     15 C                    -0.286749
     16 C                    -0.329015
     17 C                    -0.147925
     18 H                     0.230860
     19 H                     0.226110
     20 H                     0.227801
     21 H                     0.220254
     22 H                     0.200415
     23 H                     0.169885
     24 H                     0.230058
     25 H                     0.203828
     26 H                     0.228700
     27 H                     0.191172
  ----------------------------------------
  Sum of atomic charges =     0.000000

                    Cartesian Multipole Moments
 -----------------------------------------------------------------
    Charge (ESU x 10^10)
                 0.0000
    Dipole Moment (Debye)
         X       3.0733      Y       5.7505      Z      -0.4044
       Tot       6.5328
    Quadrupole Moments (Debye-Ang)
        XX     -74.9433     XY     -15.7004     YY    -102.3414
        XZ       0.6855     YZ       3.2483     ZZ    -103.0481

 Total job time:  50.70s(wall), 346.67s(cpu)
        *  Thank you very much for using Q-Chem.  Have a nice day.  *
