 Q-Chem 5.4, Q-Chem, Inc., Pleasanton, CA (2021)
 Q-Chem 5.4.0 for Intel X86 EM64T Linux

User input:
--------------------------------------------------------------
$molecule
-1 2
C                 -0.1443940000      1.8367570000      4.9936950000
C                  1.0542350000      1.2551940000      4.4195510000
C                  1.3987690000      1.2838500000      3.0910480000
C                  0.4863750000      1.9377600000      2.1442350000
C                 -0.7253960000      2.4964800000      2.7000260000
C                 -1.0427580000      2.4696340000      4.0366870000
O                 -0.3702950000      1.7761100000      6.2338830000
O                  0.7115640000      2.0135480000      0.8997290000
S                 -2.5093140000      3.3344620000      4.5929530000
C                 -3.3956000000      2.0562040000      5.6089670000
C                 -4.5441090000      2.7614240000      6.3307680000
C                 -3.8792880000      0.8843050000      4.7572830000
C                  2.7014400000      0.6530590000      2.5683130000
C                  3.5378810000      0.0124130000      3.6921580000
C                  3.5720610000      1.7401210000      1.8918660000
C                  2.3692310000     -0.4527740000      1.5368920000
H                  1.6958000000      0.7842530000      5.1552200000
H                 -1.3988250000      2.9578060000      1.9852060000
H                 -2.6526260000      1.7146300000      6.3304370000
H                 -4.1741120000      3.5640840000      6.9735780000
H                 -5.0897100000      2.0464080000      6.9568990000
H                 -5.2567410000      3.1938870000      5.6191280000
H                 -3.0482290000      0.4193520000      4.2230620000
H                 -4.6176580000      1.2121700000      4.0179040000
H                 -4.3431350000      0.1192000000      5.3935890000
H                  2.9943010000     -0.7911780000      4.1976380000
H                  3.8366770000      0.7457640000      4.4468480000
H                  4.4498580000     -0.4182020000      3.2644160000
H                  3.8445910000      2.5158880000      2.6150060000
H                  3.0285900000      2.2050040000      1.0697840000
H                  4.4982160000      1.2969680000      1.5045000000
H                  1.7806120000     -1.2482680000      2.0058530000
H                  3.2935620000     -0.8988850000      1.1485540000
H                  1.7975670000     -0.0387570000      0.7067650000
$end
$rem
MAX_SCF_CYCLES=200
BASIS  =  6-311++G(d,p)
GUI  =  2
JOB_TYPE  =  SP
METHOD  =  B3LYP
SOLVENT_METHOD = COSMO
$end
$solvent
dielectric 37.219
opticaldielectric 1.43
$end

--------------------------------------------------------------

             Standard Nuclear Orientation (Angstroms)
    I     Atom           X                Y                Z
 ----------------------------------------------------------------
    1      C       0.5020044132    -1.0179609984    -0.4398889341
    2      C      -0.9256602322    -1.1472923574    -0.2171437989
    3      C      -1.8069516837    -0.1068711207    -0.0581026338
    4      C      -1.2854084965     1.2654047065    -0.0950852554
    5      C       0.1401338907     1.4068576448    -0.2881671010
    6      C       1.0019687068     0.3506372847    -0.4606236933
    7      O       1.2339859516    -2.0346519500    -0.5925916923
    8      O      -2.0151529188     2.2915791180     0.0452295551
    9      S       2.7196460254     0.6910536664    -0.8372497014
   10      C       3.6386882029    -0.3457214354     0.4005668039
   11      C       5.1174770549    -0.3165220417     0.0136097241
   12      C       3.4049233960     0.1324942978     1.8321151653
   13      C      -3.3132836350    -0.3345537950     0.1592117755
   14      C      -3.6874114835    -1.8288726941     0.1705170248
   15      C      -4.1126639192     0.3444274761    -0.9797530422
   16      C      -3.7424501880     0.2707443356     1.5180675316
   17      H      -1.2639511284    -2.1767437050    -0.1974170440
   18      H       0.5129974310     2.4258031230    -0.2925054669
   19      H       3.2366138151    -1.3509623143     0.2700712669
   20      H       5.2705183447    -0.7088990678    -0.9948466134
   21      H       5.7003413429    -0.9292219612     0.7106293731
   22      H       5.5189156475     0.7027463209     0.0488114962
   23      H       2.3401756108     0.1381597311     2.0740087107
   24      H       3.7918580448     1.1466527259     1.9774811899
   25      H       3.9098854721    -0.5354907658     2.5422097241
   26      H      -3.1805782531    -2.3700912936     0.9748491989
   27      H      -3.4392984274    -2.3185836025    -0.7756662938
   28      H      -4.7668372896    -1.9308300495     0.3271668641
   29      H      -3.8459293182    -0.0934920515    -1.9472744315
   30      H      -3.8990116546     1.4124926542    -1.0095058810
   31      H      -5.1893527685     0.1980827946    -0.8263762535
   32      H      -3.2109855840    -0.2203610429     2.3399971713
   33      H      -4.8186843829     0.1247965818     1.6750020248
   34      H      -3.5198737285     1.3370380998     1.5463158830
 ----------------------------------------------------------------

   11   -1055.1336753465      3.79e-06  Convergence criterion met
 Total energy in the final basis set =    -1055.1336753465
    4   -1055.2142406013      6.11e-06  Convergence criterion met
 Total energy in the final basis set =    -1055.2142406013

                    Orbital Energies (a.u.)
 --------------------------------------------------------------

 Alpha MOs
 -- Occupied --
-88.8355 -19.0811 -19.0781 -10.2253 -10.2217 -10.1944 -10.1923 -10.1810
-10.1729 -10.1640 -10.1594 -10.1584 -10.1549 -10.1483 -10.1443 -10.1442
 -7.9217  -5.8854  -5.8820  -5.8758  -1.0046  -1.0001  -0.8375  -0.8177
 -0.7964  -0.7471  -0.6981  -0.6844  -0.6777  -0.6739  -0.6669  -0.5978
 -0.5792  -0.5532  -0.5217  -0.4821  -0.4689  -0.4590  -0.4420  -0.4347
 -0.4310  -0.4236  -0.4197  -0.4125  -0.4071  -0.4057  -0.3871  -0.3843
 -0.3729  -0.3670  -0.3666  -0.3533  -0.3524  -0.3436  -0.3404  -0.3315
 -0.3248  -0.3183  -0.3174  -0.2799  -0.2610  -0.2450  -0.2367  -0.2209
 -0.1639

 Beta MOs
 -- Occupied --
-88.8355 -19.0746 -19.0711 -10.2238 -10.2202 -10.1944 -10.1911 -10.1811
-10.1719 -10.1627 -10.1586 -10.1584 -10.1549 -10.1483 -10.1442 -10.1442
 -7.9217  -5.8854  -5.8820  -5.8757  -0.9931  -0.9877  -0.8331  -0.8169
 -0.7944  -0.7453  -0.6931  -0.6844  -0.6771  -0.6737  -0.6602  -0.5945
 -0.5766  -0.5519  -0.5190  -0.4801  -0.4662  -0.4581  -0.4409  -0.4315
 -0.4294  -0.4210  -0.4188  -0.4086  -0.4006  -0.3975  -0.3842  -0.3744
 -0.3716  -0.3648  -0.3581  -0.3518  -0.3450  -0.3406  -0.3387  -0.3299
 -0.3233  -0.3178  -0.3126  -0.2611  -0.2467  -0.2389  -0.2309  -0.2163

          Ground-State Mulliken Net Atomic Charges

     Atom                 Charge (a.u.)    Spin (a.u.)
  --------------------------------------------------------
      1 C                    -0.693378       0.138568
      2 C                    -0.500101       0.014001
      3 C                     1.009139       0.117314
      4 C                    -0.897568       0.091173
      5 C                    -0.641553       0.076670
      6 C                     1.739066       0.094114
      7 O                    -0.488403       0.229305
      8 O                    -0.473017       0.248511
      9 S                    -0.553396       0.011351
     10 C                     0.235450       0.007251
     11 C                    -0.677477       0.001552
     12 C                    -0.736049      -0.002610
     13 C                     0.568781      -0.028765
     14 C                    -0.539663      -0.000733
     15 C                    -0.712433       0.011043
     16 C                    -0.701850       0.010493
     17 H                     0.215079      -0.007268
     18 H                     0.220344      -0.010010
     19 H                     0.257499      -0.001310
     20 H                     0.167116       0.000195
     21 H                     0.158439       0.000132
     22 H                     0.155081       0.000122
     23 H                     0.152485       0.000687
     24 H                     0.173684      -0.000127
     25 H                     0.151302       0.000252
     26 H                     0.140604      -0.000191
     27 H                     0.140695      -0.000208
     28 H                     0.178511       0.000016
     29 H                     0.139577       0.001043
     30 H                     0.177758      -0.002080
     31 H                     0.159010       0.000228
     32 H                     0.140950       0.000821
     33 H                     0.157383       0.000160
     34 H                     0.176935      -0.001700
  --------------------------------------------------------
  Sum of atomic charges =    -1.000000

                    Cartesian Multipole Moments
 -----------------------------------------------------------------
    Charge (ESU x 10^10)
                -4.8032
    Dipole Moment (Debye)
         X       0.6405      Y      -2.1258      Z       3.2217
       Tot       3.9127
    Quadrupole Moments (Debye-Ang)
        XX    -121.0462     XY      14.9101     YY    -136.0159
        XZ       8.0193     YZ      -3.4644     ZZ    -113.9126

 Total job time:  117.70s(wall), 894.89s(cpu)
        *  Thank you very much for using Q-Chem.  Have a nice day.  *
