 Q-Chem 5.4, Q-Chem, Inc., Pleasanton, CA (2021)
 Q-Chem 5.4.0 for Intel X86 EM64T Linux

User input:
--------------------------------------------------------------
$molecule
0 1
C                  1.5733050000      1.0836470000     -1.5533840000
C                  0.1133690000      0.8876010000     -1.3357930000
C                 -0.3555930000      0.1921770000     -0.2914930000
C                  0.5789920000     -0.4215020000      0.7076270000
C                  2.0314110000     -0.2172410000      0.4773480000
C                  2.4973620000      0.4784100000     -0.5674930000
O                  1.9776240000      1.7192800000     -2.5102590000
O                  0.1769010000     -1.0566450000      1.6620730000
C                 -1.8424770000     -0.0017850000     -0.0785850000
F                 -2.5614150000      0.6028810000     -1.0504960000
F                 -2.1750950000     -1.3051010000     -0.0917420000
F                 -2.2434210000      0.5203150000      1.0944670000
H                 -0.5411630000      1.3403070000     -2.0709430000
H                  2.6825230000     -0.6719670000      1.2156350000
H                  3.5558180000      0.6329440000     -0.7443600000
$end
$rem
MAX_SCF_CYCLES=200
BASIS  =  6-311++G(d,p)
GUI  =  2
JOB_TYPE  =  SP
METHOD  =  B3LYP
SOLVENT_METHOD = COSMO
$end
$solvent
dielectric 37.219
opticaldielectric 1.43
$end

--------------------------------------------------------------

             Standard Nuclear Orientation (Angstroms)
    I     Atom           X                Y                Z
 ----------------------------------------------------------------
    1      C       2.1818906646     0.7671553165     0.0001497545
    2      C       0.7232925971     1.0666293087     0.0000656952
    3      C      -0.1954712907     0.0919625427     0.0000952684
    4      C       0.2121794909    -1.3509902074    -0.0000181028
    5      C       1.6697093391    -1.6336181887     0.0002843170
    6      C       2.5859197050    -0.6572514915     0.0002452159
    7      O       2.9999812753     1.6692863393    -0.0003984516
    8      O      -0.6029916270    -2.2518491479    -0.0004509644
    9      C      -1.6769598132     0.4065525292     0.0000563100
   10      F      -1.8964545154     1.7403162032     0.0006470630
   11      F      -2.2860473397    -0.0951852775    -1.0893068043
   12      F      -2.2863784014    -0.0962047853     1.0887433921
   13      H       0.4541461792     2.1160865920     0.0000829623
   14      H       1.9342589439    -2.6851902318     0.0003881649
   15      H       3.6522358420    -0.8533680120     0.0003005949
 ----------------------------------------------------------------

    9    -718.7027166283      7.46e-06  Convergence criterion met
 Total energy in the final basis set =     -718.7027166283
    5    -718.7173907881      5.09e-06  Convergence criterion met
 Total energy in the final basis set =     -718.7173907881

                    Orbital Energies (a.u.)
 --------------------------------------------------------------

 Alpha MOs
 -- Occupied --
-24.7342 -24.7342 -24.7341 -19.1587 -19.1585 -10.4564 -10.3078 -10.3028
-10.2476 -10.2365 -10.2217 -10.2201  -1.3429  -1.2546  -1.2532  -1.0926
 -1.0883  -0.8885  -0.8260  -0.7534  -0.7159  -0.6653  -0.6435  -0.6218
 -0.6156  -0.5793  -0.5384  -0.5208  -0.4988  -0.4981  -0.4939  -0.4718
 -0.4688  -0.4559  -0.4542  -0.4477  -0.4382  -0.4338  -0.4337  -0.4173
 -0.3340  -0.3174  -0.3086  -0.2965

          Ground-State Mulliken Net Atomic Charges

     Atom                 Charge (a.u.)
  ----------------------------------------
      1 C                    -0.467851
      2 C                    -0.448830
      3 C                     0.432628
      4 C                    -0.377594
      5 C                     0.021886
      6 C                     0.266289
      7 O                    -0.284832
      8 O                    -0.273193
      9 C                     0.638053
     10 F                    -0.162357
     11 F                    -0.074628
     12 F                    -0.074704
     13 H                     0.259776
     14 H                     0.271549
     15 H                     0.273808
  ----------------------------------------
  Sum of atomic charges =     0.000000

                    Cartesian Multipole Moments
 -----------------------------------------------------------------
    Charge (ESU x 10^10)
                 0.0000
    Dipole Moment (Debye)
         X       3.2242      Y      -0.5915      Z       0.0029
       Tot       3.2780
    Quadrupole Moments (Debye-Ang)
        XX     -73.5375     XY     -14.1284     YY     -72.1688
        XZ       0.0040     YZ       0.0000     ZZ     -66.2271

 Total job time:  18.78s(wall), 128.64s(cpu)
        *  Thank you very much for using Q-Chem.  Have a nice day.  *
