 Gaussian 16, Revision A.03,
 Gaussian 16:  ES64L-G16RevA.03 25-Dec-2016

 --------------------------------------
 #P UB3LYP/6-311++G(d,p) nosym opt freq
 --------------------------------------

 -------
 Reduced
 -------
 Symbolic Z-matrix:
 Charge = -2 Multiplicity = 1

 SCF Done:  E(UB3LYP) =  -846.214593058     A.U. after   42 cycles
 Optimization completed.
    -- Stationary point found.
 Normal termination of Gaussian 16 at Tue Jan  9 22:16:37 2024.

 ----------------------------------------------------------------------
 #P Geom=AllCheck Guess=TCheck SCRF=Check GenChk UB3LYP/6-311++G(d,p) F
 req
 ----------------------------------------------------------------------

 Structure from the checkpoint file:  "330-an.chk"
 -------
 Reduced
 -------
 Charge = -2 Multiplicity = 1

                          Input orientation:
 ---------------------------------------------------------------------
 Center     Atomic      Atomic             Coordinates (Angstroms)
 Number     Number       Type             X           Y           Z
 ---------------------------------------------------------------------
      1          6           0        4.734180    0.156029    0.986255
      2          6           0        3.947782   -0.612391   -0.096427
      3          6           0        4.612889   -0.426397   -1.474258
      4          6           0        2.468534   -0.249970   -0.105242
      5          6           0        2.028221    1.045045   -0.497136
      6          6           0        0.679239    1.351047   -0.512618
      7          6           0       -0.323417    0.417646   -0.157232
      8          6           0        0.109714   -0.895816    0.224960
      9          6           0        1.504726   -1.174277    0.242493
     10          6           0       -0.810496   -1.956653    0.608487
     11          8           0       -0.389016   -3.105545    0.924349
     12          6           0       -2.261225   -1.641069    0.634850
     13          8           0       -3.086577   -2.530666    0.994537
     14          6           0       -2.690179   -0.297425    0.232271
     15          6           0       -4.090592    0.058098    0.214420
     16          6           0       -5.192877   -0.914993    0.583907
     17          6           0       -4.485774    1.332605   -0.158432
     18          6           0       -3.549136    2.322689   -0.530941
     19          6           0       -2.206362    2.005571   -0.525270
     20          6           0       -1.734570    0.725879   -0.156232
     21          1           0        4.295650   -0.012139    1.974398
     22          1           0        4.716778    1.235071    0.793837
     23          1           0        5.785912   -0.158460    1.017007
     24          1           0        4.007359   -1.678390    0.154312
     25          1           0        4.087645   -1.005964   -2.239675
     26          1           0        5.662203   -0.744347   -1.457723
     27          1           0        4.595207    0.622958   -1.786192
     28          1           0        2.749018    1.810694   -0.771602
     29          1           0        0.395683    2.353450   -0.816755
     30          1           0        1.781717   -2.180701    0.542540
     31          1           0       -5.082617   -1.283980    1.605155
     32          1           0       -6.167452   -0.417490    0.475143
     33          1           0       -5.168347   -1.809584   -0.040978
     34          1           0       -5.547817    1.571281   -0.163979
     35          1           0       -3.881658    3.316799   -0.819624
     36          1           0       -1.494345    2.771394   -0.812058
 ---------------------------------------------------------------------

 SCF Done:  E(UB3LYP) =  -846.214593058     A.U. after   12 cycles

 Alpha  occ. eigenvalues --  -18.80176 -18.80135  -9.98329  -9.97342  -9.97230
 Alpha  occ. eigenvalues --   -9.95935  -9.95844  -9.95504  -9.95135  -9.95059
 Alpha  occ. eigenvalues --   -9.95033  -9.94973  -9.94584  -9.94583  -9.94581
 Alpha  occ. eigenvalues --   -9.94514  -9.94169  -9.93610  -9.93390  -9.92531
 Alpha  occ. eigenvalues --   -0.73704  -0.70710  -0.63931  -0.62530  -0.59636
 Alpha  occ. eigenvalues --   -0.55361  -0.54051  -0.51876  -0.49764  -0.48951
 Alpha  occ. eigenvalues --   -0.46841  -0.43203  -0.41031  -0.38339  -0.36489
 Alpha  occ. eigenvalues --   -0.34960  -0.33315  -0.29362  -0.28015  -0.26413
 Alpha  occ. eigenvalues --   -0.24722  -0.24281  -0.23469  -0.22394  -0.21769
 Alpha  occ. eigenvalues --   -0.20527  -0.20146  -0.19862  -0.19694  -0.18619
 Alpha  occ. eigenvalues --   -0.17816  -0.16790  -0.16348  -0.15428  -0.15045
 Alpha  occ. eigenvalues --   -0.14328  -0.13709  -0.12940  -0.12394  -0.12355
 Alpha  occ. eigenvalues --   -0.11518  -0.10080  -0.09360  -0.06564  -0.05345
 Alpha  occ. eigenvalues --   -0.01982  -0.01415   0.01667   0.01675   0.04201
 Alpha  occ. eigenvalues --    0.11585
 Alpha virt. eigenvalues --    0.12838   0.14594   0.15294   0.15613   0.16057
 Alpha virt. eigenvalues --    0.17575   0.17926   0.18459   0.18567   0.19195
 Alpha virt. eigenvalues --    0.19454   0.19873   0.20457   0.20707   0.21012

  Beta  occ. eigenvalues --  -18.80176 -18.80135  -9.98329  -9.97342  -9.97230
  Beta  occ. eigenvalues --   -9.95935  -9.95844  -9.95504  -9.95135  -9.95059
  Beta  occ. eigenvalues --   -9.95033  -9.94973  -9.94584  -9.94583  -9.94581
  Beta  occ. eigenvalues --   -9.94514  -9.94169  -9.93610  -9.93390  -9.92531
  Beta  occ. eigenvalues --   -0.73704  -0.70710  -0.63931  -0.62530  -0.59636
  Beta  occ. eigenvalues --   -0.55361  -0.54051  -0.51876  -0.49764  -0.48951
  Beta  occ. eigenvalues --   -0.46841  -0.43203  -0.41031  -0.38339  -0.36489
  Beta  occ. eigenvalues --   -0.34960  -0.33315  -0.29362  -0.28015  -0.26413
  Beta  occ. eigenvalues --   -0.24722  -0.24281  -0.23469  -0.22394  -0.21769
  Beta  occ. eigenvalues --   -0.20527  -0.20146  -0.19862  -0.19694  -0.18619
  Beta  occ. eigenvalues --   -0.17816  -0.16790  -0.16348  -0.15428  -0.15045
  Beta  occ. eigenvalues --   -0.14328  -0.13709  -0.12940  -0.12394  -0.12355
  Beta  occ. eigenvalues --   -0.11518  -0.10080  -0.09360  -0.06564  -0.05345
  Beta  occ. eigenvalues --   -0.01982  -0.01415   0.01667   0.01675   0.04201
  Beta  occ. eigenvalues --    0.11585
  Beta virt. eigenvalues --    0.12838   0.14594   0.15294   0.15613   0.16057
  Beta virt. eigenvalues --    0.17575   0.17926   0.18459   0.18567   0.19195
  Beta virt. eigenvalues --    0.19454   0.19873   0.20457   0.20707   0.21012

 Mulliken charges and spin densities:
               1          2
     1  C    0.629160   0.000000
     2  C   -3.054303  -0.000000
     3  C    0.491948  -0.000000
     4  C    2.148156  -0.000000
     5  C   -0.660389  -0.000000
     6  C   -0.115708   0.000000
     7  C    0.700300   0.000000
     8  C    1.135858   0.000000
     9  C   -0.218563   0.000000
    10  C   -0.865111   0.000000
    11  O   -0.423745   0.000000
    12  C   -0.869836  -0.000000
    13  O   -0.408235  -0.000000
    14  C    0.622558   0.000000
    15  C    0.649968   0.000000
    16  C   -0.432244   0.000000
    17  C   -0.484780  -0.000000
    18  C   -0.686928   0.000000
    19  C   -0.419834   0.000000
    20  C    0.618174  -0.000000
    21  H    0.080245  -0.000000
    22  H   -0.038143  -0.000000
    23  H   -0.760041   0.000000
    24  H    0.104847  -0.000000
    25  H    0.143037   0.000000
    26  H   -0.636010   0.000000
    27  H   -0.133832  -0.000000
    28  H    0.256544   0.000000
    29  H   -0.050645  -0.000000
    30  H    0.157554   0.000000
    31  H    0.153370   0.000000
    32  H    0.065806   0.000000
    33  H    0.154309  -0.000000
    34  H    0.022048   0.000000
    35  H    0.108644   0.000000
    36  H    0.015819   0.000000
 Sum of Mulliken charges =  -2.00000   0.00000

 Dipole moment (field-independent basis, Debye):
    X=             -0.8346    Y=              9.5974    Z=             -3.1291  Tot=             10.1291
 Quadrupole moment (field-independent basis, Debye-Ang):
   XX=           -284.6501   YY=           -180.8921   ZZ=           -147.9190
   XY=             -9.9813   XZ=              8.4575   YZ=             13.6558

  Exact polarizability:2431.921 -18.194 505.993-127.672  28.028 810.502
 Approx polarizability:********1170.373 886.800-861.036-176.085 735.714

                      1                      2                      3
                      A                      A                      A
 Frequencies --     31.5526                36.3115                51.1427
 Red. masses --      3.1825                 3.8686                 4.8221
 Frc consts  --      0.0019                 0.0030                 0.0074
 IR Inten    --      0.3610                 1.1397                 0.0417

                      4                      5                      6
                      A                      A                      A
 Frequencies --     61.4320               129.4435               147.9353
 Red. masses --      4.5095                 4.0478                 4.2294
 Frc consts  --      0.0100                 0.0400                 0.0545
 IR Inten    --      1.5006                 7.1346                 0.7425

                      7                      8                      9
                      A                      A                      A
 Frequencies --    154.2179               198.7221               225.0369
 Red. masses --      3.9091                 1.6770                 1.5236
 Frc consts  --      0.0548                 0.0390                 0.0455
 IR Inten    --      6.3105                 0.0149                 0.0545

                     10                     11                     12
                      A                      A                      A
 Frequencies --    231.3332               232.4463               256.8614
 Red. masses --      1.4382                 1.8291                 1.7511
 Frc consts  --      0.0453                 0.0582                 0.0681
 IR Inten    --      2.7362                 2.8798                57.6312

                     13                     14                     15
                      A                      A                      A
 Frequencies --    272.9580               274.1641               320.5981
 Red. masses --      4.4083                 1.8148                 4.9412
 Frc consts  --      0.1935                 0.0804                 0.2992
 IR Inten    --      6.7235                 7.4700                 3.1934

                     16                     17                     18
                      A                      A                      A
 Frequencies --    358.7306               364.0035               379.7258
 Red. masses --      3.6952                 5.2087                 6.1167
 Frc consts  --      0.2802                 0.4066                 0.5196
 IR Inten    --     13.1824                 1.3441                32.4252

                     19                     20                     21
                      A                      A                      A
 Frequencies --    400.9635               405.3710               438.4637
 Red. masses --      6.9128                 4.7726                 3.9210
 Frc consts  --      0.6548                 0.4621                 0.4441
 IR Inten    --     10.9217                12.2088                10.9742

                     22                     23                     24
                      A                      A                      A
 Frequencies --    450.9636               458.9982               502.7650
 Red. masses --      3.2520                 6.5824                 3.7926
 Frc consts  --      0.3897                 0.8171                 0.5648
 IR Inten    --      0.6437               154.7813                 2.5302

                     25                     26                     27
                      A                      A                      A
 Frequencies --    526.2665               556.2745               562.5054
 Red. masses --      4.1044                 5.4161                 4.1300
 Frc consts  --      0.6697                 0.9875                 0.7699
 IR Inten    --      5.3673                37.5074                 9.0442

                     28                     29                     30
                      A                      A                      A
 Frequencies --    588.4077               624.2975               641.6797
 Red. masses --      3.2156                 3.2106                 5.4450
 Frc consts  --      0.6559                 0.7373                 1.3210
 IR Inten    --     24.3859                23.9514                 2.9196

                     31                     32                     33
                      A                      A                      A
 Frequencies --    686.4674               690.7889               717.5612
 Red. masses --      7.1956                 1.9548                 3.0244
 Frc consts  --      1.9978                 0.5496                 0.9175
 IR Inten    --     26.1040                35.3059                22.7763

                     34                     35                     36
                      A                      A                      A
 Frequencies --    719.3859               732.9137               761.1970
 Red. masses --      5.0552                 2.9935                 1.9857
 Frc consts  --      1.5414                 0.9474                 0.6779
 IR Inten    --      0.7193                13.9189                28.2412

                     37                     38                     39
                      A                      A                      A
 Frequencies --    771.0821               804.0145               814.4138
 Red. masses --      5.1516                 5.0821                 1.3093
 Frc consts  --      1.8046                 1.9356                 0.5117
 IR Inten    --      7.7040                46.5560                 3.8565

                     40                     41                     42
                      A                      A                      A
 Frequencies --    867.2567               873.7996               886.5244
 Red. masses --      5.4429                 1.3394                 2.9266
 Frc consts  --      2.4120                 0.6026                 1.3552
 IR Inten    --     98.3998                 0.5676                29.7262

                     43                     44                     45
                      A                      A                      A
 Frequencies --    917.5269               922.4812               936.3616
 Red. masses --      1.2737                 1.2395                 1.3534
 Frc consts  --      0.6318                 0.6215                 0.6991
 IR Inten    --     10.8778                34.6780                 1.1144

                     46                     47                     48
                      A                      A                      A
 Frequencies --    948.5335               956.5320              1007.7454
 Red. masses --      1.5204                 3.8128                 1.7702
 Frc consts  --      0.8059                 2.0554                 1.0592
 IR Inten    --     68.8467                77.7941                 8.5703

                     49                     50                     51
                      A                      A                      A
 Frequencies --   1045.8561              1046.6904              1059.1442
 Red. masses --      2.0616                 1.5069                 2.9032
 Frc consts  --      1.3286                 0.9727                 1.9188
 IR Inten    --      8.5366                 0.7166               215.5044

                     52                     53                     54
                      A                      A                      A
 Frequencies --   1066.5086              1103.9647              1114.7188
 Red. masses --      3.0210                 1.8262                 2.3028
 Frc consts  --      2.0245                 1.3113                 1.6859
 IR Inten    --     59.0055               459.2173                 8.4749

                     55                     56                     57
                      A                      A                      A
 Frequencies --   1144.8164              1166.3186              1176.6608
 Red. masses --      1.6896                 1.3955                 1.6548
 Frc consts  --      1.3047                 1.1184                 1.3499
 IR Inten    --      3.7227                27.0945               399.3489

                     58                     59                     60
                      A                      A                      A
 Frequencies --   1197.6745              1204.7229              1242.7287
 Red. masses --      2.3582                 2.7982                 2.2307
 Frc consts  --      1.9930                 2.3927                 2.0297
 IR Inten    --    130.7002               134.6966                18.9517

                     61                     62                     63
                      A                      A                      A
 Frequencies --   1249.1184              1263.7938              1316.8241
 Red. masses --      2.4729                 3.4565                 2.0635
 Frc consts  --      2.2733                 3.2526                 2.1082
 IR Inten    --    516.9579               461.8593               177.1521

                     64                     65                     66
                      A                      A                      A
 Frequencies --   1321.3704              1342.0539              1343.1536
 Red. masses --      3.1361                 2.0226                 1.6430
 Frc consts  --      3.2262                 2.1464                 1.7464
 IR Inten    --     27.5621                19.8063                 2.5807

                     67                     68                     69
                      A                      A                      A
 Frequencies --   1361.7038              1377.6788              1401.7921
 Red. masses --      2.7632                 1.2267                 1.4223
 Frc consts  --      3.0188                 1.3718                 1.6467
 IR Inten    --    349.5602               325.3937               175.7427

                     70                     71                     72
                      A                      A                      A
 Frequencies --   1403.0655              1407.9727              1427.6321
 Red. masses --      1.9350                 1.4741                 3.4669
 Frc consts  --      2.2443                 1.7217                 4.1632
 IR Inten    --    154.5639               168.7859                98.5500

                     73                     74                     75
                      A                      A                      A
 Frequencies --   1448.6359              1449.3058              1474.1814
 Red. masses --      1.3637                 1.4861                 3.1112
 Frc consts  --      1.6861                 1.8391                 3.9836
 IR Inten    --    752.3607               988.6318               810.3795

                     76                     77                     78
                      A                      A                      A
 Frequencies --   1478.2407              1481.8916              1484.9283
 Red. masses --      1.0850                 1.4539                 1.0645
 Frc consts  --      1.3969                 1.8811                 1.3830
 IR Inten    --     45.5146                68.0133                32.9974

                     79                     80                     81
                      A                      A                      A
 Frequencies --   1491.2822              1503.4900              1507.1988
 Red. masses --      1.0689                 1.2803                 3.4731
 Frc consts  --      1.4006                 1.7051                 4.6485
 IR Inten    --    220.2267               154.5872               129.9489

                     82                     83                     84
                      A                      A                      A
 Frequencies --   1516.8078              1535.9065              1557.6030
 Red. masses --      3.8149                 3.8404                 6.6623
 Frc consts  --      5.1712                 5.3377                 9.5233
 IR Inten    --   3947.7340               997.1010               349.6944

                     85                     86                     87
                      A                      A                      A
 Frequencies --   1586.8900              1610.1201              2968.5330
 Red. masses --      4.4530                 6.1856                 1.0551
 Frc consts  --      6.6069                 9.4481                 5.4779
 IR Inten    --   1319.4755               101.7463               601.1754

                     88                     89                     90
                      A                      A                      A
 Frequencies --   2981.5539              2998.9589              3004.1311
 Red. masses --      1.0402                 1.0412                 1.0795
 Frc consts  --      5.4483                 5.5175                 5.7401
 IR Inten    --     19.7838                40.0764                17.4704

                     91                     92                     93
                      A                      A                      A
 Frequencies --   3042.7675              3055.0077              3071.0873
 Red. masses --      1.0960                 1.0973                 1.1008
 Frc consts  --      5.9787                 6.0340                 6.1171
 IR Inten    --     70.7853               150.9290                 4.2688

                     94                     95                     96
                      A                      A                      A
 Frequencies --   3072.8410              3075.0649              3088.1814
 Red. masses --      1.1006                 1.0787                 1.0989
 Frc consts  --      6.1230                 6.0095                 6.1749
 IR Inten    --     59.8472                17.9897                15.1336

                     97                     98                     99
                      A                      A                      A
 Frequencies --   3100.2760              3121.9187              3127.5467
 Red. masses --      1.0837                 1.0850                 1.0890
 Frc consts  --      6.1372                 6.2303                 6.2759
 IR Inten    --    161.1854                14.0093               199.0014

                    100                    101                    102
                      A                      A                      A
 Frequencies --   3148.3136              3152.9560              3169.0755
 Red. masses --      1.0932                 1.0883                 1.0883
 Frc consts  --      6.3844                 6.3745                 6.4396
 IR Inten    --      3.5350                14.4048               191.0978

 - Thermochemistry -
 -------------------
 Temperature   298.150 Kelvin.  Pressure   1.00000 Atm.
 Atom     1 has atomic number  6 and mass  12.00000

 Molecular mass:   264.11503 amu.
 Principal axes and moments of inertia in atomic units:
                           1         2         3
     Eigenvalues --  2477.510668931.64606**********
           X            0.99822   0.00643   0.05929
           Y           -0.02415   0.95262   0.30319
           Z           -0.05453  -0.30408   0.95108
 This molecule is an asymmetric top.
 Rotational symmetry number  1.
 Warning -- assumption of classical behavior for rotation
           may cause significant error
 Rotational temperatures (Kelvin)      0.03496     0.00970     0.00787
 Rotational constants (GHZ):           0.72845     0.20206     0.16394
 Zero-point vibrational energy     747599.1 (Joules/Mol)
                                  178.68048 (Kcal/Mol)
 Warning -- explicit consideration of  28 degrees of freedom as
           vibrations may cause significant error
 Vibrational temperatures:     45.40    52.24    73.58    88.39   186.24
          (Kelvin)            212.85   221.89   285.92   323.78   332.84
                              334.44   369.57   392.73   394.46   461.27
                              516.13   523.72   546.34   576.90   583.24
                              630.85   648.84   660.40   723.37   757.18
                              800.35   809.32   846.59   898.22   923.23
                              987.67   993.89  1032.41  1035.04  1054.50
                             1095.19  1109.42  1156.80  1171.76  1247.79
                             1257.20  1275.51  1320.12  1327.24  1347.22
                             1364.73  1376.24  1449.92  1504.75  1505.95
                             1523.87  1534.47  1588.36  1603.83  1647.14
                             1678.07  1692.95  1723.19  1733.33  1788.01
                             1797.20  1818.32  1894.62  1901.16  1930.92
                             1932.50  1959.19  1982.17  2016.87  2018.70
                             2025.76  2054.04  2084.26  2085.23  2121.02
                             2126.86  2132.11  2136.48  2145.62  2163.19
                             2168.52  2182.35  2209.83  2241.04  2283.18
                             2316.60  4271.06  4289.79  4314.83  4322.27
                             4377.86  4395.47  4418.61  4421.13  4424.33
                             4443.20  4460.61  4491.74  4499.84  4529.72
                             4536.40  4559.59

 Zero-point correction=                           0.284745 (Hartree/Particle)
 Thermal correction to Energy=                    0.302269
 Thermal correction to Enthalpy=                  0.303213
 Thermal correction to Gibbs Free Energy=         0.239172
 Sum of electronic and zero-point Energies=           -845.929848
 Sum of electronic and thermal Energies=              -845.912324
 Sum of electronic and thermal Enthalpies=            -845.911380
 Sum of electronic and thermal Free Energies=         -845.975421

                     E (Thermal)             CV                S
                      KCal/Mol        Cal/Mol-Kelvin    Cal/Mol-Kelvin
 Total                  189.677             69.588            134.785
 Electronic               0.000              0.000              0.000
 Translational            0.889              2.981             42.613
 Rotational               0.889              2.981             33.854
 Vibrational            187.899             63.626             58.318
 Vibration     1          0.594              1.983              5.729
 Vibration     2          0.594              1.982              5.451
 Vibration     3          0.595              1.977              4.773
 Vibration     4          0.597              1.973              4.411
 Vibration     5          0.612              1.924              2.954
 Vibration     6          0.617              1.905              2.699
 Vibration     7          0.620              1.898              2.620
 Vibration     8          0.637              1.842              2.145
 Vibration     9          0.650              1.803              1.918
 Vibration    10          0.653              1.793              1.869
 Vibration    11          0.653              1.791              1.860
 Vibration    12          0.666              1.751              1.683
 Vibration    13          0.676              1.723              1.577
 Vibration    14          0.676              1.721              1.570
 Vibration    15          0.706              1.634              1.307
 Vibration    16          0.734              1.557              1.128
 Vibration    17          0.738              1.546              1.105
 Vibration    18          0.750              1.513              1.040
 Vibration    19          0.767              1.468              0.959
 Vibration    20          0.770              1.459              0.943
 Vibration    21          0.799              1.386              0.831
 Vibration    22          0.810              1.359              0.793
 Vibration    23          0.817              1.341              0.769
 Vibration    24          0.858              1.244              0.651
 Vibration    25          0.881              1.192              0.596
 Vibration    26          0.912              1.126              0.531
 Vibration    27          0.918              1.112              0.519
 Vibration    28          0.946              1.057              0.470

                           ! Non-Optimized Parameters !
 Normal termination of Gaussian 16 at Wed Jan 10 00:27:54 2024.
