 Q-Chem 5.4, Q-Chem, Inc., Pleasanton, CA (2021)
 Q-Chem 5.4.0 for Intel X86 EM64T Linux

User input:
--------------------------------------------------------------
$molecule
-2 1
C                  4.7341800000      0.1560290000      0.9862550000
C                  3.9477820000     -0.6123910000     -0.0964270000
C                  4.6128890000     -0.4263970000     -1.4742580000
C                  2.4685340000     -0.2499700000     -0.1052420000
C                  2.0282210000      1.0450450000     -0.4971360000
C                  0.6792390000      1.3510470000     -0.5126180000
C                 -0.3234170000      0.4176460000     -0.1572320000
C                  0.1097140000     -0.8958160000      0.2249600000
C                  1.5047260000     -1.1742770000      0.2424930000
C                 -0.8104960000     -1.9566530000      0.6084870000
O                 -0.3890160000     -3.1055450000      0.9243490000
C                 -2.2612250000     -1.6410690000      0.6348500000
O                 -3.0865770000     -2.5306660000      0.9945370000
C                 -2.6901790000     -0.2974250000      0.2322710000
C                 -4.0905920000      0.0580980000      0.2144200000
C                 -5.1928770000     -0.9149930000      0.5839070000
C                 -4.4857740000      1.3326050000     -0.1584320000
C                 -3.5491360000      2.3226890000     -0.5309410000
C                 -2.2063620000      2.0055710000     -0.5252700000
C                 -1.7345700000      0.7258790000     -0.1562320000
H                  4.2956500000     -0.0121390000      1.9743980000
H                  4.7167780000      1.2350710000      0.7938370000
H                  5.7859120000     -0.1584600000      1.0170070000
H                  4.0073590000     -1.6783900000      0.1543120000
H                  4.0876450000     -1.0059640000     -2.2396750000
H                  5.6622030000     -0.7443470000     -1.4577230000
H                  4.5952070000      0.6229580000     -1.7861920000
H                  2.7490180000      1.8106940000     -0.7716020000
H                  0.3956830000      2.3534500000     -0.8167550000
H                  1.7817170000     -2.1807010000      0.5425400000
H                 -5.0826170000     -1.2839800000      1.6051550000
H                 -6.1674520000     -0.4174900000      0.4751430000
H                 -5.1683470000     -1.8095840000     -0.0409780000
H                 -5.5478170000      1.5712810000     -0.1639790000
H                 -3.8816580000      3.3167990000     -0.8196240000
H                 -1.4943450000      2.7713940000     -0.8120580000
$end

$rem
BASIS  =  6-311++G(d,p)
GUI  =  2
JOB_TYPE  =  SP
METHOD  =  B3LYP
SCF_CONVERGENCE  = 8
SOLVENT_METHOD = sm12
$end

$smx
solvent dimethylformamide
charges CM5
$end

--------------------------------------------------------------

             Standard Nuclear Orientation (Angstroms)
    I     Atom           X                Y                Z
 ----------------------------------------------------------------
    1      C       4.7341800000     0.1560290000     0.9862550000
    2      C       3.9477820000    -0.6123910000    -0.0964270000
    3      C       4.6128890000    -0.4263970000    -1.4742580000
    4      C       2.4685340000    -0.2499700000    -0.1052420000
    5      C       2.0282210000     1.0450450000    -0.4971360000
    6      C       0.6792390000     1.3510470000    -0.5126180000
    7      C      -0.3234170000     0.4176460000    -0.1572320000
    8      C       0.1097140000    -0.8958160000     0.2249600000
    9      C       1.5047260000    -1.1742770000     0.2424930000
   10      C      -0.8104960000    -1.9566530000     0.6084870000
   11      O      -0.3890160000    -3.1055450000     0.9243490000
   12      C      -2.2612250000    -1.6410690000     0.6348500000
   13      O      -3.0865770000    -2.5306660000     0.9945370000
   14      C      -2.6901790000    -0.2974250000     0.2322710000
   15      C      -4.0905920000     0.0580980000     0.2144200000
   16      C      -5.1928770000    -0.9149930000     0.5839070000
   17      C      -4.4857740000     1.3326050000    -0.1584320000
   18      C      -3.5491360000     2.3226890000    -0.5309410000
   19      C      -2.2063620000     2.0055710000    -0.5252700000
   20      C      -1.7345700000     0.7258790000    -0.1562320000
   21      H       4.2956500000    -0.0121390000     1.9743980000
   22      H       4.7167780000     1.2350710000     0.7938370000
   23      H       5.7859120000    -0.1584600000     1.0170070000
   24      H       4.0073590000    -1.6783900000     0.1543120000
   25      H       4.0876450000    -1.0059640000    -2.2396750000
   26      H       5.6622030000    -0.7443470000    -1.4577230000
   27      H       4.5952070000     0.6229580000    -1.7861920000
   28      H       2.7490180000     1.8106940000    -0.7716020000
   29      H       0.3956830000     2.3534500000    -0.8167550000
   30      H       1.7817170000    -2.1807010000     0.5425400000
   31      H      -5.0826170000    -1.2839800000     1.6051550000
   32      H      -6.1674520000    -0.4174900000     0.4751430000
   33      H      -5.1683470000    -1.8095840000    -0.0409780000
   34      H      -5.5478170000     1.5712810000    -0.1639790000
   35      H      -3.8816580000     3.3167990000    -0.8196240000
   36      H      -1.4943450000     2.7713940000    -0.8120580000
 ----------------------------------------------------------------

   18    -846.1939819409      5.04e-09  Convergence criterion met
 Total energy in the final basis set =     -846.4802827160

                    Orbital Energies (a.u.)
 --------------------------------------------------------------

 Alpha MOs
 -- Occupied --
-19.0200 -19.0170 -10.1837 -10.1778 -10.1771 -10.1728 -10.1724 -10.1705
-10.1680 -10.1665 -10.1658 -10.1658 -10.1656 -10.1639 -10.1637 -10.1622
-10.1617 -10.1570 -10.1547 -10.1466  -0.9562  -0.9274  -0.8566  -0.8415
 -0.8057  -0.7703  -0.7585  -0.7387  -0.7062  -0.6892  -0.6864  -0.6499
 -0.6224  -0.5986  -0.5815  -0.5664  -0.5510  -0.5102  -0.4925  -0.4769
 -0.4569  -0.4540  -0.4468  -0.4297  -0.4228  -0.4184  -0.4153  -0.4144
 -0.4065  -0.3914  -0.3896  -0.3826  -0.3823  -0.3685  -0.3580  -0.3526
 -0.3521  -0.3433  -0.3390  -0.3349  -0.3338  -0.3190  -0.3136  -0.2877
 -0.2735  -0.2427  -0.2361  -0.2058  -0.2036  -0.1788  -0.1117

          Ground-State Mulliken Net Atomic Charges

     Atom                 Charge (a.u.)
  ----------------------------------------
      1 C                     0.049118
      2 C                     3.926580
      3 C                     0.231749
      4 C                     2.450975
      5 C                     0.511859
      6 C                     0.112128
      7 C                    -3.069435
      8 C                    -2.462242
      9 C                    -0.753269
     10 C                    -2.708294
     11 O                    -0.356809
     12 C                    -2.070662
     13 O                    -0.317148
     14 C                    -0.965187
     15 C                    -1.132729
     16 C                     1.308378
     17 C                     1.008861
     18 C                     1.747637
     19 C                    -0.518550
     20 C                    -2.486408
     21 H                     0.095802
     22 H                     0.234706
     23 H                     0.370984
     24 H                     0.296639
     25 H                     0.073652
     26 H                     0.377501
     27 H                     0.234939
     28 H                     0.266901
     29 H                     0.365340
     30 H                    -0.117927
     31 H                     0.090870
     32 H                     0.303815
     33 H                     0.090553
     34 H                     0.248628
     35 H                     0.439667
     36 H                     0.121378
  ----------------------------------------
  Sum of atomic charges =    -2.000000

                    Cartesian Multipole Moments
 -----------------------------------------------------------------
    Charge (ESU x 10^10)
                -9.6064
    Dipole Moment (Debye)
         X      14.5032      Y      12.1629      Z      -4.4131
       Tot      19.4359
    Quadrupole Moments (Debye-Ang)
        XX    -192.6866     XY     -16.5496     YY    -183.4139
        XZ       8.5850     YZ      15.8612     ZZ    -139.9888

 Total job time:  1451.66s(wall), 11398.40s(cpu)
        *  Thank you very much for using Q-Chem.  Have a nice day.  *
