 Q-Chem 5.4, Q-Chem, Inc., Pleasanton, CA (2021)
 Q-Chem 5.4.0 for Intel X86 EM64T Linux

User input:
--------------------------------------------------------------
$molecule
0 1
N                 -2.5914940000     -2.2768770000      0.4320780000
C                 -2.3339640000     -0.9668800000      0.1610720000
C                 -3.4252490000     -0.0877560000     -0.0322350000
C                 -3.2276540000      1.2454050000     -0.2810160000
C                 -1.9348190000      1.7981520000     -0.3524600000
O                 -1.7898880000      3.1275410000     -0.5966720000
C                 -0.8211970000      0.9673160000     -0.1730040000
C                  0.5558870000      1.5366320000     -0.2484890000
O                  0.7699010000      2.7217590000     -0.4449220000
C                  1.7044970000      0.5980330000     -0.0740590000
C                  3.0071060000      1.1039850000     -0.1500190000
C                  4.0950940000      0.2557860000      0.0064080000
C                  3.8929910000     -1.1085790000      0.2414580000
C                  2.6040040000     -1.6176460000      0.3188540000
C                  1.5023030000     -0.7670190000      0.1614160000
C                  0.1318610000     -1.3325680000      0.2512750000
O                 -0.0035950000     -2.5444500000      0.4626130000
C                 -1.0191410000     -0.4313430000      0.0822120000
H                 -3.5331980000     -2.6215210000      0.3594180000
H                 -1.8060340000     -2.9128360000      0.4938110000
H                 -4.4342790000     -0.4826730000      0.0231430000
H                 -4.0860620000      1.8960310000     -0.4248440000
H                 -2.6631770000      3.5230710000     -0.6943820000
H                  3.1371520000      2.1632750000     -0.3325870000
H                  5.1026480000      0.6518410000     -0.0536440000
H                  4.7437740000     -1.7694800000      0.3636810000
H                  2.4225310000     -2.6691990000      0.5008940000
$end
$rem
MAX_SCF_CYCLES=200
BASIS  =  6-311++G(d,p)
GUI  =  2
JOB_TYPE  =  SP
METHOD  =  B3LYP
SOLVENT_METHOD = PCM
$end
$pcm
theory = CPCM
$end
$solvent
dielectric 37.219
opticaldielectric 1.43
$end

--------------------------------------------------------------

             Standard Nuclear Orientation (Angstroms)
    I     Atom           X                Y                Z
 ----------------------------------------------------------------
    1      N      -2.5914940000    -2.2768770000     0.4320780000
    2      C      -2.3339640000    -0.9668800000     0.1610720000
    3      C      -3.4252490000    -0.0877560000    -0.0322350000
    4      C      -3.2276540000     1.2454050000    -0.2810160000
    5      C      -1.9348190000     1.7981520000    -0.3524600000
    6      O      -1.7898880000     3.1275410000    -0.5966720000
    7      C      -0.8211970000     0.9673160000    -0.1730040000
    8      C       0.5558870000     1.5366320000    -0.2484890000
    9      O       0.7699010000     2.7217590000    -0.4449220000
   10      C       1.7044970000     0.5980330000    -0.0740590000
   11      C       3.0071060000     1.1039850000    -0.1500190000
   12      C       4.0950940000     0.2557860000     0.0064080000
   13      C       3.8929910000    -1.1085790000     0.2414580000
   14      C       2.6040040000    -1.6176460000     0.3188540000
   15      C       1.5023030000    -0.7670190000     0.1614160000
   16      C       0.1318610000    -1.3325680000     0.2512750000
   17      O      -0.0035950000    -2.5444500000     0.4626130000
   18      C      -1.0191410000    -0.4313430000     0.0822120000
   19      H      -3.5331980000    -2.6215210000     0.3594180000
   20      H      -1.8060340000    -2.9128360000     0.4938110000
   21      H      -4.4342790000    -0.4826730000     0.0231430000
   22      H      -4.0860620000     1.8960310000    -0.4248440000
   23      H      -2.6631770000     3.5230710000    -0.6943820000
   24      H       3.1371520000     2.1632750000    -0.3325870000
   25      H       5.1026480000     0.6518410000    -0.0536440000
   26      H       4.7437740000    -1.7694800000     0.3636810000
   27      H       2.4225310000    -2.6691990000     0.5008940000
 ----------------------------------------------------------------

    9    -819.5976293668      2.75e-06  Convergence criterion met
 Total energy in the final basis set =     -819.5976293668

                    Orbital Energies (a.u.)
 --------------------------------------------------------------

 Alpha MOs
 -- Occupied --
-19.1668 -19.1196 -19.1172 -14.3292 -10.2745 -10.2729 -10.2583 -10.2433
-10.2041 -10.2008 -10.2006 -10.1999 -10.1983 -10.1960 -10.1921 -10.1915
-10.1904 -10.1903  -1.0829  -1.0549  -1.0532  -0.9398  -0.8842  -0.8623
 -0.8075  -0.7720  -0.7684  -0.7512  -0.6847  -0.6662  -0.6504  -0.6162
 -0.5908  -0.5761  -0.5684  -0.5380  -0.5215  -0.5030  -0.4888  -0.4794
 -0.4731  -0.4581  -0.4565  -0.4467  -0.4430  -0.4379  -0.4234  -0.4168
 -0.4127  -0.4023  -0.3835  -0.3828  -0.3723  -0.3687  -0.3623  -0.3101
 -0.2855  -0.2779  -0.2729  -0.2729  -0.2639  -0.2140

          Ground-State Mulliken Net Atomic Charges

     Atom                 Charge (a.u.)
  ----------------------------------------
      1 N                    -0.448068
      2 C                     0.185074
      3 C                    -0.159401
      4 C                    -0.290648
      5 C                    -0.189452
      6 O                    -0.239344
      7 C                     0.403961
      8 C                    -0.345089
      9 O                    -0.313806
     10 C                    -0.088167
     11 C                     0.199730
     12 C                    -0.479410
     13 C                    -0.509896
     14 C                     0.279675
     15 C                     0.058302
     16 C                    -0.329517
     17 O                    -0.336500
     18 C                     0.355088
     19 H                     0.318294
     20 H                     0.339981
     21 H                     0.229729
     22 H                     0.220395
     23 H                     0.321607
     24 H                     0.187684
     25 H                     0.217752
     26 H                     0.217334
     27 H                     0.194691
  ----------------------------------------
  Sum of atomic charges =     0.000000

                    Cartesian Multipole Moments
 -----------------------------------------------------------------
    Charge (ESU x 10^10)
                 0.0000
    Dipole Moment (Debye)
         X      -5.3279      Y      -1.8347      Z      -0.1802
       Tot       5.6378
    Quadrupole Moments (Debye-Ang)
        XX     -56.3056     XY      -7.1368     YY    -109.5932
        XZ       3.0751     YZ       0.9143     ZZ    -107.7397

 Total job time:  49.85s(wall), 370.46s(cpu)
        *  Thank you very much for using Q-Chem.  Have a nice day.  *
