 Q-Chem 5.4, Q-Chem, Inc., Pleasanton, CA (2021)
 Q-Chem 5.4.0 for Intel X86 EM64T Linux

User input:
--------------------------------------------------------------
$molecule
-2 1
Br                -2.7276340000     -1.8398210000     -0.0960110000
C                 -1.0827860000     -0.7309210000     -0.0381160000
C                 -1.2659540000      0.6496360000     -0.0287100000
C                 -0.1599400000      1.5614770000      0.0120520000
O                 -0.2918800000      2.8506330000      0.0218180000
C                  1.1081060000      0.8921800000      0.0405470000
C                  1.2086620000     -0.4967080000      0.0287250000
Br                 3.0437340000     -1.2503800000      0.0722890000
C                  0.1502610000     -1.4678530000     -0.0111960000
O                  0.2806080000     -2.7389560000     -0.0210580000
H                 -2.2667080000      1.0672290000     -0.0524500000
H                  2.0035300000      1.5034840000      0.0721100000
$end
$rem
MAX_SCF_CYCLES=200
BASIS  =  6-311++G(d,p)
GUI  =  2
JOB_TYPE  =  SP
METHOD  =  B3LYP
SOLVENT_METHOD = COSMO
$end
$solvent
dielectric 37.219
opticaldielectric 1.43
$end

--------------------------------------------------------------

             Standard Nuclear Orientation (Angstroms)
    I     Atom           X                Y                Z
 ----------------------------------------------------------------
    1      Br      2.9019697176    -0.7243285988     0.0000002318
    2      C       1.1520267144     0.2117459011    -0.0000032244
    3      C       1.1936934145     1.6038092995     0.0000088675
    4      C       0.0000801432     2.3985859160    -0.0000730385
    5      O       0.0000772546     3.6945128871     0.0000536059
    6      C      -1.1937288355     1.6038965322    -0.0000154508
    7      C      -1.1523294534     0.2119384738    -0.0000195393
    8      Br     -2.9018612735    -0.7243023932     0.0000037080
    9      C      -0.0000645862    -0.6466735734    -0.0000669334
   10      O      -0.0003082170    -1.9244804303     0.0000480000
   11      H       2.1471295462     2.1209317327     0.0000479947
   12      H      -2.1471417741     2.1210780385     0.0000171769
 ----------------------------------------------------------------

   10   -5528.6555858948      9.07e-06  Convergence criterion met
 Total energy in the final basis set =    -5528.6555858948
    6   -5528.9411559296      4.73e-06  Convergence criterion met
 Total energy in the final basis set =    -5528.9411559296

                    Orbital Energies (a.u.)
 --------------------------------------------------------------

 Alpha MOs
 -- Occupied --
********-482.8083 -62.4611 -62.4611 -56.2813 -56.2813 -56.2780 -56.2779
-56.2778 -56.2778 -19.0377 -19.0329 -10.2042 -10.1970 -10.1970 -10.1919
-10.1439 -10.1439  -8.6697  -8.6696  -6.4999  -6.4999  -6.4889  -6.4889
 -6.4884  -6.4884  -2.6110  -2.6110  -2.6080  -2.6080  -2.6076  -2.6076
 -2.5988  -2.5988  -2.5988  -2.5988  -0.9596  -0.9453  -0.8211  -0.7869
 -0.7478  -0.6897  -0.6700  -0.5608  -0.5421  -0.4580  -0.4511  -0.4015
 -0.3871  -0.3828  -0.3807  -0.3527  -0.3356  -0.3316  -0.3099  -0.2865
 -0.2779  -0.2734  -0.2422  -0.2209  -0.2201  -0.2138  -0.1407

          Ground-State Mulliken Net Atomic Charges

     Atom                 Charge (a.u.)
  ----------------------------------------
      1 Br                   -0.276524
      2 C                     1.338654
      3 C                    -0.462801
      4 C                    -0.245414
      5 O                    -0.755762
      6 C                    -0.463207
      7 C                     1.337054
      8 Br                   -0.276223
      9 C                    -1.979169
     10 O                    -0.611382
     11 H                     0.197297
     12 H                     0.197478
  ----------------------------------------
  Sum of atomic charges =    -2.000000

                    Cartesian Multipole Moments
 -----------------------------------------------------------------
    Charge (ESU x 10^10)
                -9.6064
    Dipole Moment (Debye)
         X       0.0002      Y      -5.7757      Z      -0.0015
       Tot       5.7757
    Quadrupole Moments (Debye-Ang)
        XX    -107.4815     XY       0.0024     YY    -158.2092
        XZ       0.0023     YZ      -0.0008     ZZ     -91.4324

 Total job time:  16.40s(wall), 121.33s(cpu)
        *  Thank you very much for using Q-Chem.  Have a nice day.  *
