 Q-Chem 5.4, Q-Chem, Inc., Pleasanton, CA (2021)
 Q-Chem 5.4.0 for Intel X86 EM64T Linux

User input:
--------------------------------------------------------------
$molecule
0 1
O                  3.7817280000     -2.4795000000      0.3830730000
C                  3.0009030000     -1.5493650000      0.2512430000
C                  3.4020100000     -0.1567100000      0.5749910000
C                  4.6811310000      0.0983440000      1.0810400000
C                  5.0719070000      1.4021960000      1.3572670000
C                  4.1900770000      2.4607210000      1.1176670000
C                  2.9217140000      2.2134430000      0.6056510000
C                  2.5142260000      0.9020490000      0.3395370000
C                  1.1346480000      0.6691040000     -0.1976700000
O                  0.4883970000      1.6271630000     -0.6100320000
C                  0.6438960000     -0.7251840000     -0.2678300000
C                 -0.7150360000     -1.0436430000     -0.6013150000
C                 -0.9728950000     -2.3382120000     -1.1210780000
C                  0.0066990000     -3.3130450000     -1.1566910000
C                  1.2869250000     -3.0554150000     -0.6684580000
C                  1.6029520000     -1.7746180000     -0.2354680000
N                 -1.7595520000     -0.1729750000     -0.4117820000
C                 -1.7780410000      0.7898170000      0.6994740000
C                 -3.1547400000      0.8092110000      1.3686560000
C                 -4.2539650000      1.2665560000      0.3868980000
C                 -3.8878220000      0.8782790000     -1.0606050000
C                 -3.0372160000     -0.3916230000     -1.1042870000
H                  5.3491010000     -0.7387410000      1.2425380000
H                  6.0619970000      1.5996440000      1.7523830000
H                  4.4970660000      3.4789290000      1.3294280000
H                  2.2291980000      3.0209210000      0.4039330000
H                 -1.9720000000     -2.5940950000     -1.4440380000
H                 -0.2412920000     -4.2991570000     -1.5339600000
H                  2.0496910000     -3.8216950000     -0.6345280000
H                 -1.4984340000      1.7878130000      0.3489590000
H                 -1.0146280000      0.4863780000      1.4194970000
H                 -3.1127900000      1.4701470000      2.2387290000
H                 -3.3796240000     -0.1927050000      1.7490600000
H                 -4.3908580000      2.3498920000      0.4484970000
H                 -5.2096690000      0.8158440000      0.6708340000
H                 -4.7875660000      0.7235320000     -1.6619960000
H                 -3.3234580000      1.6842960000     -1.5385110000
H                 -2.8267020000     -0.6596860000     -2.1422390000
H                 -3.5979780000     -1.2279100000     -0.6576690000
$end

$rem
BASIS  =  6-311++G(d,p)
GUI  =  2
JOB_TYPE  =  SP
METHOD  =  B3LYP
SCF_CONVERGENCE  = 8
SOLVENT_METHOD = sm12
$end

$smx
solvent dimethylformamide
charges CM5
$end

--------------------------------------------------------------

             Standard Nuclear Orientation (Angstroms)
    I     Atom           X                Y                Z
 ----------------------------------------------------------------
    1      O       3.7817280000    -2.4795000000     0.3830730000
    2      C       3.0009030000    -1.5493650000     0.2512430000
    3      C       3.4020100000    -0.1567100000     0.5749910000
    4      C       4.6811310000     0.0983440000     1.0810400000
    5      C       5.0719070000     1.4021960000     1.3572670000
    6      C       4.1900770000     2.4607210000     1.1176670000
    7      C       2.9217140000     2.2134430000     0.6056510000
    8      C       2.5142260000     0.9020490000     0.3395370000
    9      C       1.1346480000     0.6691040000    -0.1976700000
   10      O       0.4883970000     1.6271630000    -0.6100320000
   11      C       0.6438960000    -0.7251840000    -0.2678300000
   12      C      -0.7150360000    -1.0436430000    -0.6013150000
   13      C      -0.9728950000    -2.3382120000    -1.1210780000
   14      C       0.0066990000    -3.3130450000    -1.1566910000
   15      C       1.2869250000    -3.0554150000    -0.6684580000
   16      C       1.6029520000    -1.7746180000    -0.2354680000
   17      N      -1.7595520000    -0.1729750000    -0.4117820000
   18      C      -1.7780410000     0.7898170000     0.6994740000
   19      C      -3.1547400000     0.8092110000     1.3686560000
   20      C      -4.2539650000     1.2665560000     0.3868980000
   21      C      -3.8878220000     0.8782790000    -1.0606050000
   22      C      -3.0372160000    -0.3916230000    -1.1042870000
   23      H       5.3491010000    -0.7387410000     1.2425380000
   24      H       6.0619970000     1.5996440000     1.7523830000
   25      H       4.4970660000     3.4789290000     1.3294280000
   26      H       2.2291980000     3.0209210000     0.4039330000
   27      H      -1.9720000000    -2.5940950000    -1.4440380000
   28      H      -0.2412920000    -4.2991570000    -1.5339600000
   29      H       2.0496910000    -3.8216950000    -0.6345280000
   30      H      -1.4984340000     1.7878130000     0.3489590000
   31      H      -1.0146280000     0.4863780000     1.4194970000
   32      H      -3.1127900000     1.4701470000     2.2387290000
   33      H      -3.3796240000    -0.1927050000     1.7490600000
   34      H      -4.3908580000     2.3498920000     0.4484970000
   35      H      -5.2096690000     0.8158440000     0.6708340000
   36      H      -4.7875660000     0.7235320000    -1.6619960000
   37      H      -3.3234580000     1.6842960000    -1.5385110000
   38      H      -2.8267020000    -0.6596860000    -2.1422390000
   39      H      -3.5979780000    -1.2279100000    -0.6576690000
 ----------------------------------------------------------------

   15    -939.7086578357      4.31e-09  Convergence criterion met
 Total energy in the final basis set =     -939.7353230699

                    Orbital Energies (a.u.)
 --------------------------------------------------------------

 Alpha MOs
 -- Occupied --
-19.1218 -19.1133 -14.3453 -10.2745 -10.2698 -10.2398 -10.2062 -10.2034
-10.2023 -10.2018 -10.2017 -10.1994 -10.1953 -10.1942 -10.1936 -10.1925
-10.1921 -10.1881 -10.1826 -10.1692 -10.1687 -10.1657  -1.0568  -1.0491
 -0.9643  -0.8861  -0.8708  -0.8121  -0.8040  -0.7735  -0.7701  -0.7594
 -0.7538  -0.6861  -0.6740  -0.6542  -0.6481  -0.6276  -0.6041  -0.5793
 -0.5567  -0.5546  -0.5394  -0.5137  -0.5094  -0.4935  -0.4869  -0.4809
 -0.4755  -0.4491  -0.4484  -0.4472  -0.4454  -0.4408  -0.4393  -0.4260
 -0.4203  -0.4110  -0.4088  -0.3933  -0.3890  -0.3826  -0.3817  -0.3709
 -0.3693  -0.3632  -0.3606  -0.3380  -0.3276  -0.3206  -0.2947  -0.2820
 -0.2779  -0.2742  -0.2694  -0.2633  -0.2128

          Ground-State Mulliken Net Atomic Charges

     Atom                 Charge (a.u.)
  ----------------------------------------
      1 O                    -0.269369
      2 C                    -2.012326
      3 C                    -0.434808
      4 C                     0.044441
      5 C                     0.301634
      6 C                     0.427409
      7 C                     0.038295
      8 C                    -0.061722
      9 C                    -1.274538
     10 O                    -0.247545
     11 C                    -0.115516
     12 C                    -0.341063
     13 C                     1.333165
     14 C                     0.268080
     15 C                    -0.456778
     16 C                    -0.362984
     17 N                     0.463420
     18 C                    -0.538348
     19 C                    -0.108313
     20 C                    -0.342711
     21 C                    -0.262828
     22 C                     0.310470
     23 H                     0.199113
     24 H                     0.317139
     25 H                     0.328787
     26 H                     0.210843
     27 H                     0.367603
     28 H                     0.329918
     29 H                     0.148985
     30 H                     0.120641
     31 H                     0.081190
     32 H                     0.224149
     33 H                     0.174066
     34 H                     0.141899
     35 H                     0.189062
     36 H                     0.256805
     37 H                     0.123890
     38 H                     0.226669
     39 H                     0.201176
  ----------------------------------------
  Sum of atomic charges =     0.000000

                    Cartesian Multipole Moments
 -----------------------------------------------------------------
    Charge (ESU x 10^10)
                 0.0000
    Dipole Moment (Debye)
         X      -4.5685      Y       1.3510      Z       0.6292
       Tot       4.8054
    Quadrupole Moments (Debye-Ang)
        XX    -114.9976     XY      16.7628     YY    -127.3227
        XZ       6.5600     YZ       9.4520     ZZ    -128.7092

 Total job time:  1548.48s(wall), 12042.87s(cpu)
        *  Thank you very much for using Q-Chem.  Have a nice day.  *
