 Q-Chem 5.4, Q-Chem, Inc., Pleasanton, CA (2021)
 Q-Chem 5.4.0 for Intel X86 EM64T Linux

User input:
--------------------------------------------------------------
$molecule
-2 1
Br                -2.7276340000     -1.8398210000     -0.0960110000
C                 -1.0827860000     -0.7309210000     -0.0381160000
C                 -1.2659540000      0.6496360000     -0.0287100000
C                 -0.1599400000      1.5614770000      0.0120520000
O                 -0.2918800000      2.8506330000      0.0218180000
C                  1.1081060000      0.8921800000      0.0405470000
C                  1.2086620000     -0.4967080000      0.0287250000
Br                 3.0437340000     -1.2503800000      0.0722890000
C                  0.1502610000     -1.4678530000     -0.0111960000
O                  0.2806080000     -2.7389560000     -0.0210580000
H                 -2.2667080000      1.0672290000     -0.0524500000
H                  2.0035300000      1.5034840000      0.0721100000
$end
$rem
MAX_SCF_CYCLES=200
BASIS  =  6-311++G(d,p)
GUI  =  2
JOB_TYPE  =  SP
METHOD  =  B3LYP
SOLVENT_METHOD = PCM
$end
$pcm
theory = CPCM
$end
$solvent
dielectric 37.219
opticaldielectric 1.43
$end

--------------------------------------------------------------

             Standard Nuclear Orientation (Angstroms)
    I     Atom           X                Y                Z
 ----------------------------------------------------------------
    1      Br     -2.7276340000    -1.8398210000    -0.0960110000
    2      C      -1.0827860000    -0.7309210000    -0.0381160000
    3      C      -1.2659540000     0.6496360000    -0.0287100000
    4      C      -0.1599400000     1.5614770000     0.0120520000
    5      O      -0.2918800000     2.8506330000     0.0218180000
    6      C       1.1081060000     0.8921800000     0.0405470000
    7      C       1.2086620000    -0.4967080000     0.0287250000
    8      Br      3.0437340000    -1.2503800000     0.0722890000
    9      C       0.1502610000    -1.4678530000    -0.0111960000
   10      O       0.2806080000    -2.7389560000    -0.0210580000
   11      H      -2.2667080000     1.0672290000    -0.0524500000
   12      H       2.0035300000     1.5034840000     0.0721100000
 ----------------------------------------------------------------

   10   -5528.9358852531      6.45e-06  Convergence criterion met
 Total energy in the final basis set =    -5528.9358852531

                    Orbital Energies (a.u.)
 --------------------------------------------------------------

 Alpha MOs
 -- Occupied --
********-482.8074 -62.4603 -62.4603 -56.2804 -56.2804 -56.2771 -56.2771
-56.2769 -56.2769 -19.0349 -19.0279 -10.2017 -10.1952 -10.1952 -10.1889
-10.1418 -10.1418  -8.6688  -8.6688  -6.4991  -6.4990  -6.4881  -6.4881
 -6.4876  -6.4876  -2.6103  -2.6101  -2.6071  -2.6070  -2.6067  -2.6067
 -2.5980  -2.5980  -2.5980  -2.5979  -0.9567  -0.9403  -0.8191  -0.7858
 -0.7465  -0.6881  -0.6677  -0.5590  -0.5399  -0.4558  -0.4487  -0.3990
 -0.3847  -0.3793  -0.3788  -0.3488  -0.3315  -0.3299  -0.3087  -0.2847
 -0.2772  -0.2727  -0.2386  -0.2193  -0.2175  -0.2087  -0.1370

          Ground-State Mulliken Net Atomic Charges

     Atom                 Charge (a.u.)
  ----------------------------------------
      1 Br                   -0.281644
      2 C                     1.312488
      3 C                    -0.452061
      4 C                    -0.264598
      5 O                    -0.733188
      6 C                    -0.440930
      7 C                     1.304830
      8 Br                   -0.282098
      9 C                    -1.937950
     10 O                    -0.606582
     11 H                     0.190794
     12 H                     0.190940
  ----------------------------------------
  Sum of atomic charges =    -2.000000

                    Cartesian Multipole Moments
 -----------------------------------------------------------------
    Charge (ESU x 10^10)
                -9.6064
    Dipole Moment (Debye)
         X      -0.2380      Y       2.3488      Z       0.0182
       Tot       2.3609
    Quadrupole Moments (Debye-Ang)
        XX    -108.5679     XY       4.7384     YY    -154.2202
        XZ      -0.4279     YZ      -0.5294     ZZ     -91.5255

 Total job time:  19.21s(wall), 103.83s(cpu)
        *  Thank you very much for using Q-Chem.  Have a nice day.  *
