 Q-Chem 5.4, Q-Chem, Inc., Pleasanton, CA (2021)
 Q-Chem 5.4.0 for Intel X86 EM64T Linux

User input:
--------------------------------------------------------------
$molecule
-2 1
O                 -0.0170490000     -2.5770840000     -0.4867040000
C                 -0.0089410000     -1.3284580000     -0.1542900000
C                  1.2228720000     -0.6194840000      0.0918960000
C                  2.4511710000     -1.3525850000      0.0973480000
C                  3.6499260000     -0.7887220000      0.4735820000
C                  3.7195580000      0.5758080000      0.8651670000
C                  2.5571510000      1.3359570000      0.8053480000
C                  1.3322650000      0.7840680000      0.4087250000
S                  0.0115630000      1.9522440000      0.1592040000
O                  0.0125410000      2.4773590000     -1.3013390000
C                 -1.3224280000      0.8002560000      0.4129420000
C                 -2.5392200000      1.3669820000      0.8135220000
C                 -3.7106480000      0.6211010000      0.8769140000
C                 -3.6589620000     -0.7440880000      0.4848090000
C                 -2.4683940000     -1.3225030000      0.1047130000
C                 -1.2312040000     -0.6045280000      0.0956310000
H                  2.3806440000     -2.3958850000     -0.1923670000
H                  4.5543160000     -1.3958880000      0.4782340000
H                  4.6590180000      1.0206220000      1.1819400000
H                  2.5895790000      2.3964390000      1.0506480000
H                 -2.5579100000      2.4277400000      1.0590820000
H                 -4.6435760000      1.0773100000      1.1967580000
H                 -4.5707020000     -1.3401360000      0.4921140000
H                 -2.4115680000     -2.3665270000     -0.1854230000
$end
$rem
MAX_SCF_CYCLES=200
BASIS  =  6-311++G(d,p)
GUI  =  2
JOB_TYPE  =  SP
METHOD  =  B3LYP
SOLVENT_METHOD = PCM
$end
$pcm
theory = CPCM
$end
$solvent
dielectric 37.219
opticaldielectric 1.43
$end

--------------------------------------------------------------

             Standard Nuclear Orientation (Angstroms)
    I     Atom           X                Y                Z
 ----------------------------------------------------------------
    1      O      -0.0170490000    -2.5770840000    -0.4867040000
    2      C      -0.0089410000    -1.3284580000    -0.1542900000
    3      C       1.2228720000    -0.6194840000     0.0918960000
    4      C       2.4511710000    -1.3525850000     0.0973480000
    5      C       3.6499260000    -0.7887220000     0.4735820000
    6      C       3.7195580000     0.5758080000     0.8651670000
    7      C       2.5571510000     1.3359570000     0.8053480000
    8      C       1.3322650000     0.7840680000     0.4087250000
    9      S       0.0115630000     1.9522440000     0.1592040000
   10      O       0.0125410000     2.4773590000    -1.3013390000
   11      C      -1.3224280000     0.8002560000     0.4129420000
   12      C      -2.5392200000     1.3669820000     0.8135220000
   13      C      -3.7106480000     0.6211010000     0.8769140000
   14      C      -3.6589620000    -0.7440880000     0.4848090000
   15      C      -2.4683940000    -1.3225030000     0.1047130000
   16      C      -1.2312040000    -0.6045280000     0.0956310000
   17      H       2.3806440000    -2.3958850000    -0.1923670000
   18      H       4.5543160000    -1.3958880000     0.4782340000
   19      H       4.6590180000     1.0206220000     1.1819400000
   20      H       2.5895790000     2.3964390000     1.0506480000
   21      H      -2.5579100000     2.4277400000     1.0590820000
   22      H      -4.6435760000     1.0773100000     1.1967580000
   23      H      -4.5707020000    -1.3401360000     0.4921140000
   24      H      -2.4115680000    -2.3665270000    -0.1854230000
 ----------------------------------------------------------------

    9   -1049.2121253884      5.96e-06  Convergence criterion met
 Total energy in the final basis set =    -1049.2121253884

                    Orbital Energies (a.u.)
 --------------------------------------------------------------

 Alpha MOs
 -- Occupied --
-88.9166 -19.0572 -19.0128 -10.1656 -10.1656 -10.1646 -10.1611 -10.1611
-10.1532 -10.1532 -10.1447 -10.1446 -10.1444 -10.1444 -10.1439 -10.1439
 -7.9919  -5.9549  -5.9532  -5.9481  -0.9716  -0.9310  -0.8369  -0.8269
 -0.7637  -0.7349  -0.7289  -0.7127  -0.6690  -0.6164  -0.5915  -0.5657
 -0.5548  -0.5186  -0.5014  -0.4613  -0.4402  -0.4395  -0.4288  -0.4139
 -0.4056  -0.4016  -0.3866  -0.3833  -0.3662  -0.3541  -0.3470  -0.3468
 -0.3268  -0.3227  -0.3148  -0.3084  -0.2568  -0.2484  -0.2374  -0.2232
 -0.2217  -0.2138  -0.1974  -0.1005

          Ground-State Mulliken Net Atomic Charges

     Atom                 Charge (a.u.)
  ----------------------------------------
      1 O                    -0.728997
      2 C                    -0.056559
      3 C                     1.331807
      4 C                     0.033612
      5 C                    -0.640676
      6 C                    -0.247394
      7 C                    -0.280652
      8 C                    -1.039113
      9 S                    -0.372197
     10 O                    -0.523032
     11 C                    -1.040667
     12 C                    -0.280074
     13 C                    -0.247231
     14 C                    -0.640435
     15 C                     0.033401
     16 C                     1.332238
     17 H                     0.162664
     18 H                     0.170918
     19 H                     0.170689
     20 H                     0.178677
     21 H                     0.178650
     22 H                     0.170664
     23 H                     0.170902
     24 H                     0.162803
  ----------------------------------------
  Sum of atomic charges =    -2.000000

                    Cartesian Multipole Moments
 -----------------------------------------------------------------
    Charge (ESU x 10^10)
                -9.6064
    Dipole Moment (Debye)
         X       0.0283      Y       2.4870      Z       4.5901
       Tot       5.2206
    Quadrupole Moments (Debye-Ang)
        XX    -124.4245     XY      -0.1517     YY    -151.3477
        XZ       0.0467     YZ       7.5649     ZZ    -123.0862

 Total job time:  46.17s(wall), 288.77s(cpu)
        *  Thank you very much for using Q-Chem.  Have a nice day.  *
