 Gaussian 16, Revision A.03,
 Gaussian 16:  ES64L-G16RevA.03 25-Dec-2016

 --------------------------------------
 #P UB3LYP/6-311++G(d,p) nosym opt freq
 --------------------------------------

 -------
 Radical
 -------
 Symbolic Z-matrix:
 Charge = -1 Multiplicity = 2

 SCF Done:  E(UB3LYP) =  -803.560654124     A.U. after   22 cycles
 Optimization completed.
    -- Stationary point found.
 Normal termination of Gaussian 16 at Wed Dec 27 19:53:10 2023.

 ----------------------------------------------------------------------
 #P Geom=AllCheck Guess=TCheck SCRF=Check GenChk UB3LYP/6-311++G(d,p) F
 req
 ----------------------------------------------------------------------

 Structure from the checkpoint file:  "137-rad.chk"
 -------
 Radical
 -------
 Charge = -1 Multiplicity = 2

                          Input orientation:
 ---------------------------------------------------------------------
 Center     Atomic      Atomic             Coordinates (Angstroms)
 Number     Number       Type             X           Y           Z
 ---------------------------------------------------------------------
      1          6           0        3.713026    2.224779   -0.457741
      2          8           0        2.368314    1.813719   -0.376071
      3          6           0        2.089205    0.483196   -0.239158
      4          6           0        3.100651   -0.467017   -0.179207
      5          6           0        2.785964   -1.834077   -0.037650
      6          6           0        1.475666   -2.236242    0.042264
      7          6           0        0.423184   -1.293785   -0.015506
      8          6           0       -0.940573   -1.819744    0.078551
      9          8           0       -1.168369   -3.051554    0.204930
     10          6           0       -2.021402   -0.842515    0.018652
     11          6           0       -3.362817   -1.279573    0.104055
     12          6           0       -4.409420   -0.381691    0.050630
     13          6           0       -4.144593    0.997997   -0.091666
     14          6           0       -2.839528    1.443125   -0.176697
     15          6           0       -1.753101    0.543761   -0.124278
     16          6           0       -0.384137    1.087593   -0.220786
     17          8           0       -0.216020    2.320822   -0.346457
     18          6           0        0.707665    0.105292   -0.159642
     19          1           0        4.224363    1.794282   -1.329406
     20          1           0        4.279873    1.965593    0.446737
     21          1           0        3.682221    3.310135   -0.561472
     22          1           0        4.138442   -0.169240   -0.240176
     23          1           0        3.591068   -2.561716    0.007111
     24          1           0        1.199915   -3.277568    0.151419
     25          1           0       -3.532483   -2.344614    0.212746
     26          1           0       -5.434899   -0.733764    0.117686
     27          1           0       -4.966286    1.707112   -0.134069
     28          1           0       -2.605931    2.495691   -0.286314
 ---------------------------------------------------------------------

 SCF Done:  E(UB3LYP) =  -803.560654124     A.U. after    2 cycles

 Alpha  occ. eigenvalues --  -19.03813 -18.94004 -18.93838 -10.12526 -10.12026
 Alpha  occ. eigenvalues --  -10.09581 -10.08950 -10.05679 -10.05526 -10.05444
 Alpha  occ. eigenvalues --  -10.05331 -10.05290 -10.04857 -10.04759 -10.04686
 Alpha  occ. eigenvalues --  -10.04543 -10.04475 -10.04093  -0.95766  -0.86808
 Alpha  occ. eigenvalues --   -0.86485  -0.73634  -0.72809  -0.66164  -0.64527
 Alpha  occ. eigenvalues --   -0.62601  -0.61898  -0.58934  -0.54143  -0.51372
 Alpha  occ. eigenvalues --   -0.49768  -0.46496  -0.44020  -0.42097  -0.41114
 Alpha  occ. eigenvalues --   -0.37136  -0.36753  -0.36548  -0.34875  -0.33863
 Alpha  occ. eigenvalues --   -0.33387  -0.31553  -0.30081  -0.29321  -0.28946
 Alpha  occ. eigenvalues --   -0.27926  -0.27522  -0.26078  -0.25791  -0.24487
 Alpha  occ. eigenvalues --   -0.23890  -0.22947  -0.22168  -0.21906  -0.21130
 Alpha  occ. eigenvalues --   -0.20210  -0.13962  -0.13139  -0.12724  -0.11089
 Alpha  occ. eigenvalues --   -0.10858  -0.09704  -0.01020
 Alpha virt. eigenvalues --    0.07059   0.07530   0.08484   0.09018   0.09770
 Alpha virt. eigenvalues --    0.10432   0.10813   0.10982   0.12095   0.12311
 Alpha virt. eigenvalues --    0.12795   0.13278   0.14590   0.14980   0.15783

  Beta  occ. eigenvalues --  -19.03819 -18.93386 -18.93253 -10.12525 -10.12051
  Beta  occ. eigenvalues --  -10.09490 -10.08799 -10.05619 -10.05497 -10.05382
  Beta  occ. eigenvalues --  -10.05249 -10.05193 -10.04754 -10.04742 -10.04712
  Beta  occ. eigenvalues --  -10.04450 -10.04401 -10.04100  -0.95773  -0.85811
  Beta  occ. eigenvalues --   -0.85416  -0.73375  -0.72693  -0.65753  -0.64427
  Beta  occ. eigenvalues --   -0.62437  -0.61689  -0.58815  -0.53424  -0.51220
  Beta  occ. eigenvalues --   -0.49514  -0.46446  -0.43882  -0.41876  -0.40977
  Beta  occ. eigenvalues --   -0.36976  -0.36742  -0.36464  -0.34716  -0.33675
  Beta  occ. eigenvalues --   -0.33289  -0.31450  -0.30054  -0.28823  -0.28318
  Beta  occ. eigenvalues --   -0.27554  -0.27236  -0.25714  -0.25383  -0.23799
  Beta  occ. eigenvalues --   -0.22863  -0.22601  -0.21813  -0.21176  -0.20928
  Beta  occ. eigenvalues --   -0.19436  -0.12597  -0.12114  -0.11528  -0.10417
  Beta  occ. eigenvalues --   -0.10289  -0.09161
  Beta virt. eigenvalues --    0.04901   0.07056   0.08341   0.08475   0.09009
  Beta virt. eigenvalues --    0.10423   0.10743   0.10811   0.11117   0.12095
  Beta virt. eigenvalues --    0.12519   0.12786   0.13280   0.14576   0.14970

 Mulliken charges and spin densities:
               1          2
     1  C   -0.278226  -0.001308
     2  O   -0.076494  -0.001855
     3  C   -0.062749  -0.001247
     4  C   -0.067462   0.068541
     5  C   -0.417041   0.050862
     6  C   -0.001520   0.020336
     7  C    0.583777   0.064844
     8  C   -0.739485   0.080860
     9  O   -0.367456   0.231452
    10  C   -0.001720   0.015371
    11  C    0.063389   0.029465
    12  C   -0.436304   0.020157
    13  C   -0.457405   0.052858
    14  C    0.106292   0.006970
    15  C    0.374736   0.064355
    16  C   -0.512513   0.032490
    17  O   -0.357473   0.222298
    18  C    0.264771   0.060774
    19  H    0.124297   0.000814
    20  H    0.124223   0.000808
    21  H    0.173049  -0.000206
    22  H    0.127607  -0.004781
    23  H    0.132850  -0.003764
    24  H    0.149954  -0.001580
    25  H    0.157283  -0.002082
    26  H    0.120466  -0.002016
    27  H    0.122251  -0.004099
    28  H    0.150901  -0.000319
 Sum of Mulliken charges =  -1.00000   1.00000

 Dipole moment (field-independent basis, Debye):
    X=              4.2142    Y=              2.1219    Z=              0.2751  Tot=              4.7263
 Quadrupole moment (field-independent basis, Debye-Ang):
   XX=           -115.7508   YY=           -138.2415   ZZ=           -112.1161
   XY=             -2.3589   XZ=             -0.1814   YZ=              2.3670

  Exact polarizability: 346.340  -5.636 237.703  -7.087 -12.619 106.855
 Approx polarizability: 502.836  -9.420 442.181  -9.752 -26.381 169.486

                      1                      2                      3
                      A                      A                      A
 Frequencies --     35.1620                57.3204                86.8567
 Red. masses --      5.7325                 5.3316                 3.8823
 Frc consts  --      0.0042                 0.0103                 0.0173
 IR Inten    --      6.4431                 1.9198                 1.1944

                      4                      5                      6
                      A                      A                      A
 Frequencies --    126.7589               162.6131               170.2343
 Red. masses --      4.5631                 6.2428                 4.4182
 Frc consts  --      0.0432                 0.0973                 0.0754
 IR Inten    --      0.0004                 2.8037                 5.3101

                      7                      8                      9
                      A                      A                      A
 Frequencies --    199.0108               259.0470               274.7339
 Red. masses --      3.1018                 1.8510                 5.0639
 Frc consts  --      0.0724                 0.0732                 0.2252
 IR Inten    --      0.0105                 0.0075                 0.7627

                     10                     11                     12
                      A                      A                      A
 Frequencies --    293.7707               329.2855               337.3275
 Red. masses --      2.1184                 4.0409                 8.1547
 Frc consts  --      0.1077                 0.2582                 0.5467
 IR Inten    --      0.0602                 1.4871                 0.6367

                     13                     14                     15
                      A                      A                      A
 Frequencies --    378.6585               390.8642               414.4235
 Red. masses --      7.5462                12.0122                 6.3545
 Frc consts  --      0.6375                 1.0813                 0.6430
 IR Inten    --      1.1982                 4.2300                 0.0141

                     16                     17                     18
                      A                      A                      A
 Frequencies --    437.9177               481.7801               487.2686
 Red. masses --      3.4024                 7.0337                11.4741
 Frc consts  --      0.3844                 0.9619                 1.6051
 IR Inten    --      0.5668                 0.1744                 0.5074

                     19                     20                     21
                      A                      A                      A
 Frequencies --    497.2938               567.3551               589.8581
 Red. masses --      4.1333                 4.4370                 6.5283
 Frc consts  --      0.6022                 0.8415                 1.3383
 IR Inten    --      0.4026                 4.8408                 8.5725

                     22                     23                     24
                      A                      A                      A
 Frequencies --    621.9842               648.6618               668.5932
 Red. masses --      5.5162                 4.0712                 6.2267
 Frc consts  --      1.2573                 1.0093                 1.6399
 IR Inten    --      8.4287                 5.0658                 3.7630

                     25                     26                     27
                      A                      A                      A
 Frequencies --    696.6116               704.4391               731.4738
 Red. masses --      6.7624                 2.2649                 1.7870
 Frc consts  --      1.9334                 0.6622                 0.5633
 IR Inten    --      1.0945                78.0757                 0.3083

                     28                     29                     30
                      A                      A                      A
 Frequencies --    763.7146               782.2057               788.7720
 Red. masses --      2.4595                 1.9358                 6.2614
 Frc consts  --      0.8452                 0.6978                 2.2952
 IR Inten    --     19.9931                31.9141                10.5241

                     31                     32                     33
                      A                      A                      A
 Frequencies --    821.8138               843.1522               859.8803
 Red. masses --      4.4807                 1.4867                 6.8228
 Frc consts  --      1.7830                 0.6227                 2.9723
 IR Inten    --      3.3500                 1.8432                18.1835

                     34                     35                     36
                      A                      A                      A
 Frequencies --    868.8601               927.9842               969.3217
 Red. masses --      1.5688                 6.6888                 1.2744
 Frc consts  --      0.6978                 3.3938                 0.7055
 IR Inten    --      0.2812                 4.1617                 0.9649

                     37                     38                     39
                      A                      A                      A
 Frequencies --    981.2959               984.0120               984.0530
 Red. masses --      1.3051                 1.3218                 6.1029
 Frc consts  --      0.7405                 0.7541                 3.4820
 IR Inten    --      1.5915                 1.7363                27.9291

                     40                     41                     42
                      A                      A                      A
 Frequencies --   1037.7695              1094.7361              1106.9061
 Red. masses --      2.0352                 2.2664                 3.2050
 Frc consts  --      1.2914                 1.6003                 2.3137
 IR Inten    --     17.4356                19.5295                94.5624

                     43                     44                     45
                      A                      A                      A
 Frequencies --   1109.8754              1139.4234              1161.8515
 Red. masses --      2.5795                 1.5349                 1.2818
 Frc consts  --      1.8721                 1.1741                 1.0195
 IR Inten    --     91.6775                30.8170                 0.7164

                     46                     47                     48
                      A                      A                      A
 Frequencies --   1171.5315              1180.1474              1198.4798
 Red. masses --      2.0140                 1.4982                 1.7537
 Frc consts  --      1.6286                 1.2294                 1.4841
 IR Inten    --      2.1171                 2.5920                14.6653

                     49                     50                     51
                      A                      A                      A
 Frequencies --   1205.7819              1227.2185              1249.5607
 Red. masses --      1.8055                 2.0447                 1.9595
 Frc consts  --      1.5466                 1.8143                 1.8027
 IR Inten    --      4.4462                21.2964                43.8084

                     52                     53                     54
                      A                      A                      A
 Frequencies --   1267.3392              1329.8879              1361.3601
 Red. masses --      4.2901                 3.9082                 4.5047
 Frc consts  --      4.0598                 4.0725                 4.9188
 IR Inten    --    198.6991                11.0358                25.5514

                     55                     56                     57
                      A                      A                      A
 Frequencies --   1364.8739              1412.0990              1436.9613
 Red. masses --     10.1608                 3.5528                 2.4343
 Frc consts  --     11.1523                 4.1740                 2.9615
 IR Inten    --     11.1546               205.6381                63.6602

                     58                     59                     60
                      A                      A                      A
 Frequencies --   1466.8611              1481.1161              1483.3702
 Red. masses --      1.3656                 2.5273                 2.4484
 Frc consts  --      1.7313                 3.2665                 3.1741
 IR Inten    --     57.8719                35.5565                 7.3417

                     61                     62                     63
                      A                      A                      A
 Frequencies --   1485.8582              1502.9127              1528.4965
 Red. masses --      1.0482                 1.0860                 4.8165
 Frc consts  --      1.3634                 1.4452                 6.6300
 IR Inten    --      5.3953                81.9568               409.5544

                     64                     65                     66
                      A                      A                      A
 Frequencies --   1541.9528              1561.9177              1614.0823
 Red. masses --      6.7107                 5.4478                 5.5470
 Frc consts  --      9.4007                 7.8305                 8.5146
 IR Inten    --    215.0072               185.9332                19.0330

                     67                     68                     69
                      A                      A                      A
 Frequencies --   1615.5672              1630.0602              2970.1924
 Red. masses --      7.9112                 6.7170                 1.0362
 Frc consts  --     12.1659                10.5155                 5.3862
 IR Inten    --      8.4006                33.1831               123.9031

                     70                     71                     72
                      A                      A                      A
 Frequencies --   3015.8002              3102.5582              3131.6346
 Red. masses --      1.1042                 1.0956                 1.0846
 Frc consts  --      5.9169                 6.2135                 6.2672
 IR Inten    --     66.1655                39.4414                19.5619

                     73                     74                     75
                      A                      A                      A
 Frequencies --   3141.2948              3151.1927              3182.8026
 Red. masses --      1.0873                 1.0914                 1.0914
 Frc consts  --      6.3215                 6.3852                 6.5140
 IR Inten    --     36.9641                56.6916                12.3835

                     76                     77                     78
                      A                      A                      A
 Frequencies --   3185.7854              3193.8177              3198.7526
 Red. masses --      1.0923                 1.0906                 1.0906
 Frc consts  --      6.5315                 6.5547                 6.5746
 IR Inten    --     30.6004                 8.9975                28.7477

 - Thermochemistry -
 -------------------
 Temperature   298.150 Kelvin.  Pressure   1.00000 Atm.
 Atom     1 has atomic number  6 and mass  12.00000

 Molecular mass:   238.06299 amu.
 Principal axes and moments of inertia in atomic units:
                           1         2         3
     Eigenvalues --  2283.572285387.515977659.61651
           X            0.99048  -0.13405   0.03143
           Y            0.13050   0.98677   0.09617
           Z           -0.04391  -0.09115   0.99487
 This molecule is an asymmetric top.
 Rotational symmetry number  1.
 Warning -- assumption of classical behavior for rotation
           may cause significant error
 Rotational temperatures (Kelvin)      0.03793     0.01608     0.01131
 Rotational constants (GHZ):           0.79031     0.33499     0.23562
 Zero-point vibrational energy     547089.4 (Joules/Mol)
                                  130.75750 (Kcal/Mol)
 Warning -- explicit consideration of  21 degrees of freedom as
           vibrations may cause significant error
 Vibrational temperatures:     50.59    82.47   124.97   182.38   233.96
          (Kelvin)            244.93   286.33   372.71   395.28   422.67
                              473.77   485.34   544.81   562.37   596.26
                              630.07   693.17   701.07   715.49   816.30
                              848.67   894.90   933.28   961.96  1002.27
                             1013.53  1052.43  1098.81  1125.42  1134.87
                             1182.41  1213.11  1237.18  1250.10  1335.16
                             1394.64  1411.87  1415.77  1415.83  1493.12
                             1575.08  1592.59  1596.86  1639.38  1671.65
                             1685.57  1697.97  1724.35  1734.85  1765.69
                             1797.84  1823.42  1913.41  1958.69  1963.75
                             2031.70  2067.47  2110.49  2131.00  2134.24
                             2137.82  2162.36  2199.17  2218.53  2247.25
                             2322.30  2324.44  2345.29  4273.44  4339.06
                             4463.89  4505.72  4519.62  4533.86  4579.34
                             4583.63  4595.19  4602.29

 Zero-point correction=                           0.208375 (Hartree/Particle)
 Thermal correction to Energy=                    0.222314
 Thermal correction to Enthalpy=                  0.223258
 Thermal correction to Gibbs Free Energy=         0.166607
 Sum of electronic and zero-point Energies=           -803.352279
 Sum of electronic and thermal Energies=              -803.338340
 Sum of electronic and thermal Enthalpies=            -803.337396
 Sum of electronic and thermal Free Energies=         -803.394047

                     E (Thermal)             CV                S
                      KCal/Mol        Cal/Mol-Kelvin    Cal/Mol-Kelvin
 Total                  139.504             55.582            119.233
 Electronic               0.000              0.000              1.377
 Translational            0.889              2.981             42.303
 Rotational               0.889              2.981             32.910
 Vibrational            137.727             49.620             42.642
 Vibration     1          0.594              1.982              5.515
 Vibration     2          0.596              1.975              4.547
 Vibration     3          0.601              1.958              3.730
 Vibration     4          0.611              1.926              2.995
 Vibration     5          0.623              1.888              2.519
 Vibration     6          0.625              1.879              2.433
 Vibration     7          0.637              1.841              2.142
 Vibration     8          0.668              1.747              1.668
 Vibration     9          0.677              1.720              1.566
 Vibration    10          0.689              1.685              1.452
 Vibration    11          0.712              1.617              1.264
 Vibration    12          0.718              1.601              1.225
 Vibration    13          0.749              1.516              1.045
 Vibration    14          0.759              1.490              0.997
 Vibration    15          0.778              1.439              0.911
 Vibration    16          0.798              1.388              0.833
 Vibration    17          0.838              1.290              0.705
 Vibration    18          0.843              1.278              0.691
 Vibration    19          0.853              1.256              0.665
 Vibration    20          0.923              1.102              0.509
 Vibration    21          0.947              1.053              0.467

                           ! Non-Optimized Parameters !
 Normal termination of Gaussian 16 at Wed Dec 27 21:15:37 2023.
