 Gaussian 16, Revision A.03,
 Gaussian 16:  ES64L-G16RevA.03 25-Dec-2016

 ----------------------------------------------------------------
 #P UB3LYP/6-311++G(d,p) SCRF=(PCM,Solvent=n,n-DiMethylFormamide)
 ----------------------------------------------------------------

 ------------------
 Radical PCM in DMF
 ------------------
 Symbolic Z-matrix:
 Charge = -1 Multiplicity = 2

                         Standard orientation:
 ---------------------------------------------------------------------
 Center     Atomic      Atomic             Coordinates (Angstroms)
 Number     Number       Type             X           Y           Z
 ---------------------------------------------------------------------
      1          6           0       -4.156873   -1.781783    0.001307
      2          8           0       -2.768064   -1.547054    0.000767
      3          6           0       -2.313753   -0.258434    0.000266
      4          6           0       -3.190424    0.819049    0.000330
      5          6           0       -2.695946    2.139432   -0.000183
      6          6           0       -1.342455    2.369788   -0.000532
      7          6           0       -0.424034    1.294714   -0.000462
      8          6           0        0.999023    1.641446   -0.000325
      9          8           0        1.389291    2.838488   -0.000201
     10          6           0        1.940942    0.528098    0.000080
     11          6           0        3.330007    0.789264    0.000858
     12          6           0        4.248550   -0.240640    0.001149
     13          6           0        3.801803   -1.580169    0.000574
     14          6           0        2.447724   -1.854089   -0.000201
     15          6           0        1.489876   -0.817530   -0.000384
     16          6           0        0.059246   -1.181434   -0.001077
     17          8           0       -0.272053   -2.387730   -0.002236
     18          6           0       -0.892835   -0.061511   -0.000386
     19          1           0       -4.646003   -1.368554   -0.891210
     20          1           0       -4.645360   -1.368280    0.894038
     21          1           0       -4.271053   -2.866527    0.001504
     22          1           0       -4.259645    0.657291    0.000925
     23          1           0       -3.397609    2.968482   -0.000314
     24          1           0       -0.930031    3.370897   -0.000735
     25          1           0        3.640378    1.827812    0.001247
     26          1           0        5.312851   -0.023106    0.001776
     27          1           0        4.522395   -2.392923    0.000749
     28          1           0        2.075588   -2.871927   -0.000702
 ---------------------------------------------------------------------

 SCF Done:  E(UB3LYP) =  -803.641729674     A.U. after   19 cycles

 The electronic state is 2-A.
 Alpha  occ. eigenvalues --  -19.15056 -19.07212 -19.07069 -10.23805 -10.22630
 Alpha  occ. eigenvalues --  -10.21964 -10.21706 -10.17690 -10.17317 -10.17270
 Alpha  occ. eigenvalues --  -10.17197 -10.17129 -10.17043 -10.16973 -10.16840
 Alpha  occ. eigenvalues --  -10.16783 -10.16729 -10.16064  -1.06963  -1.00103
 Alpha  occ. eigenvalues --   -0.99787  -0.85887  -0.84827  -0.78307  -0.75853
 Alpha  occ. eigenvalues --   -0.74828  -0.73888  -0.69658  -0.66519  -0.63227
 Alpha  occ. eigenvalues --   -0.61773  -0.58082  -0.55738  -0.53762  -0.52996
 Alpha  occ. eigenvalues --   -0.48951  -0.47967  -0.46869  -0.46727  -0.45822
 Alpha  occ. eigenvalues --   -0.45098  -0.42722  -0.42249  -0.41964  -0.41095
 Alpha  occ. eigenvalues --   -0.40857  -0.39634  -0.37964  -0.37953  -0.37189
 Alpha  occ. eigenvalues --   -0.35898  -0.34748  -0.34376  -0.33494  -0.33311
 Alpha  occ. eigenvalues --   -0.31878  -0.26650  -0.25502  -0.24845  -0.24168
 Alpha  occ. eigenvalues --   -0.23039  -0.22896  -0.13851
 Alpha virt. eigenvalues --   -0.04808  -0.02136  -0.00361   0.00295   0.00318
 Alpha virt. eigenvalues --    0.01023   0.01948   0.02107   0.03483   0.03524
 Alpha virt. eigenvalues --    0.03978   0.04283   0.05021   0.05341   0.05580

  Beta  occ. eigenvalues --  -19.15057 -19.06651 -19.06534 -10.23817 -10.22495
  Beta  occ. eigenvalues --  -10.21765 -10.21705 -10.17618 -10.17226 -10.17222
  Beta  occ. eigenvalues --  -10.17169 -10.17069 -10.16958 -10.16912 -10.16821
  Beta  occ. eigenvalues --  -10.16798 -10.16646 -10.16047  -1.06958  -0.99173
  Beta  occ. eigenvalues --   -0.98792  -0.85626  -0.84706  -0.77910  -0.75705
  Beta  occ. eigenvalues --   -0.74646  -0.73690  -0.69550  -0.65790  -0.63056
  Beta  occ. eigenvalues --   -0.61523  -0.58013  -0.55564  -0.53533  -0.52861
  Beta  occ. eigenvalues --   -0.48757  -0.47870  -0.46824  -0.46527  -0.45683
  Beta  occ. eigenvalues --   -0.45004  -0.42602  -0.42213  -0.40768  -0.40731
  Beta  occ. eigenvalues --   -0.40530  -0.39431  -0.37801  -0.37033  -0.35820
  Beta  occ. eigenvalues --   -0.35624  -0.34632  -0.33402  -0.33362  -0.33240
  Beta  occ. eigenvalues --   -0.31308  -0.24887  -0.24559  -0.24293  -0.23657
  Beta  occ. eigenvalues --   -0.22409  -0.22349
  Beta virt. eigenvalues --   -0.08028  -0.03864  -0.01082  -0.00350   0.00297
  Beta virt. eigenvalues --    0.00588   0.01027   0.01962   0.02106   0.03519
  Beta virt. eigenvalues --    0.03537   0.03983   0.04284   0.05160   0.05601

 Mulliken charges and spin densities:
               1          2
     1  C   -0.282390  -0.000363
     2  O   -0.141714  -0.000595
     3  C   -0.076056   0.007601
     4  C   -0.029080   0.069303
     5  C   -0.440810   0.039191
     6  C   -0.015594   0.038952
     7  C    0.497968   0.042966
     8  C   -0.521926   0.117792
     9  O   -0.464817   0.209482
    10  C   -0.054367   0.004051
    11  C    0.071372   0.040416
    12  C   -0.503634   0.017271
    13  C   -0.486064   0.051567
    14  C    0.096666   0.014668
    15  C    0.305378   0.056417
    16  C   -0.404942   0.066829
    17  O   -0.458639   0.201657
    18  C    0.188607   0.040766
    19  H    0.155717   0.000304
    20  H    0.155673   0.000301
    21  H    0.191748  -0.000161
    22  H    0.187798  -0.004478
    23  H    0.191283  -0.003009
    24  H    0.154551  -0.002448
    25  H    0.163782  -0.002318
    26  H    0.179231  -0.001809
    27  H    0.180874  -0.003874
    28  H    0.159387  -0.000476
 Sum of Mulliken charges =  -1.00000   1.00000

 Dipole moment (field-independent basis, Debye):
    X=             -4.6349    Y=             -1.4751    Z=              0.0066  Tot=              4.8640
 Quadrupole moment (field-independent basis, Debye-Ang):
   XX=            -95.9597   YY=           -138.4690   ZZ=           -111.5666
   XY=             -9.1732   XZ=             -0.0039   YZ=             -0.0134

 Normal termination of Gaussian 16 at Sun Jan 14 01:13:11 2024.
