 Gaussian 16, Revision A.03,
 Gaussian 16:  ES64L-G16RevA.03 25-Dec-2016

 ----------------------------------------------------------------------
 #P UB3LYP/6-311++G(d,p) nosym opt freq SCRF=(PCM,Solvent=n,n-DiMethylF
 ormamide)
 ----------------------------------------------------------------------

 -------
 Radical
 -------
 Symbolic Z-matrix:
 Charge = -1 Multiplicity = 2

 SCF Done:  E(UB3LYP) =  -610.658621045     A.U. after   19 cycles
 SCF Done:  E(UB3LYP) =  -610.659451185     A.U. after   16 cycles
 SCF Done:  E(UB3LYP) =  -610.659583510     A.U. after   16 cycles
 SCF Done:  E(UB3LYP) =  -610.659585794     A.U. after   12 cycles
 SCF Done:  E(UB3LYP) =  -610.659586955     A.U. after   12 cycles
 Optimization completed.
    -- Stationary point found.
 Normal termination of Gaussian 16 at Sun Feb 11 15:16:44 2024.

 ----------------------------------------------------------------------
 #P Geom=AllCheck Guess=TCheck SCRF=Check GenChk UB3LYP/6-311++G(d,p) F
 req
 ----------------------------------------------------------------------

 Structure from the checkpoint file:  "325-rad.chk"
 -------
 Radical
 -------
 Charge = -1 Multiplicity = 2

                          Input orientation:
 ---------------------------------------------------------------------
 Center     Atomic      Atomic             Coordinates (Angstroms)
 Number     Number       Type             X           Y           Z
 ---------------------------------------------------------------------
      1          6           0       -1.800925    2.804576   -0.750929
      2          6           0       -2.901827    1.994991   -0.533685
      3          6           0       -2.725444    0.647516   -0.166756
      4          6           0       -0.485658    2.311031   -0.613335
      5          6           0       -0.314756    0.944340   -0.240587
      6          6           0       -1.447826    0.133284   -0.023187
      7          6           0        0.657699    3.195698   -0.852004
      8          6           0        2.018756    2.623248   -0.688775
      9          6           0        2.117473    1.235814   -0.310470
     10          6           0        1.025108    0.439480   -0.098782
     11          8           0        0.497910    4.404518   -1.182812
     12          8           0        3.051823    3.328567   -0.875808
     13          1           0       -1.926699    3.842712   -1.033522
     14          1           0       -3.902563    2.398174   -0.645973
     15          1           0       -3.587748    0.012527    0.003536
     16          1           0       -1.306223   -0.902575    0.259103
     17          1           0        3.118117    0.826905   -0.194929
     18          8           0        1.131427   -0.880409    0.259605
     19          1           0        2.063305   -1.122028    0.324750
 ---------------------------------------------------------------------

 SCF Done:  E(UB3LYP) =  -610.659586955     A.U. after    1 cycles

 Alpha  occ. eigenvalues --  -19.15974 -19.07581 -19.07009 -10.23846 -10.21704
 Alpha  occ. eigenvalues --  -10.21493 -10.18256 -10.17508 -10.17471 -10.17319
 Alpha  occ. eigenvalues --  -10.17261 -10.17047 -10.15733  -1.06952  -1.00601
 Alpha  occ. eigenvalues --   -0.97696  -0.86379  -0.80295  -0.75624  -0.73210
 Alpha  occ. eigenvalues --   -0.68468  -0.62665  -0.59786  -0.59047  -0.52868
 Alpha  occ. eigenvalues --   -0.51579  -0.49988  -0.45101  -0.44790  -0.43133
 Alpha  occ. eigenvalues --   -0.42889  -0.42182  -0.40797  -0.39679  -0.39008
 Alpha  occ. eigenvalues --   -0.38546  -0.36599  -0.35039  -0.34161  -0.33671
 Alpha  occ. eigenvalues --   -0.28283  -0.25996  -0.25417  -0.22550  -0.22515
 Alpha  occ. eigenvalues --   -0.15269
 Alpha virt. eigenvalues --   -0.03681  -0.00668  -0.00412   0.00598   0.01528
 Alpha virt. eigenvalues --    0.02820   0.02968   0.04152   0.04946   0.05022
 Alpha virt. eigenvalues --    0.05791   0.05972   0.07009   0.07655   0.08599

  Beta  occ. eigenvalues --  -19.15872 -19.06897 -19.06492 -10.23611 -10.21553
  Beta  occ. eigenvalues --  -10.21281 -10.18169 -10.17520 -10.17428 -10.17269
  Beta  occ. eigenvalues --  -10.17213 -10.17006 -10.15816  -1.06713  -0.99533
  Beta  occ. eigenvalues --   -0.96591  -0.86143  -0.79945  -0.75355  -0.73069
  Beta  occ. eigenvalues --   -0.67657  -0.62428  -0.59409  -0.58832  -0.52693
  Beta  occ. eigenvalues --   -0.51378  -0.49704  -0.44896  -0.44620  -0.42837
  Beta  occ. eigenvalues --   -0.42004  -0.41881  -0.40360  -0.38707  -0.38331
  Beta  occ. eigenvalues --   -0.37866  -0.35715  -0.34875  -0.34050  -0.31131
  Beta  occ. eigenvalues --   -0.27189  -0.24968  -0.24810  -0.22001  -0.21648
  Beta virt. eigenvalues --   -0.08564  -0.02936  -0.00394   0.00604   0.00782
  Beta virt. eigenvalues --    0.01556   0.02842   0.02982   0.04932   0.05064
  Beta virt. eigenvalues --    0.05601   0.05806   0.05990   0.07207   0.07895

 Mulliken charges and spin densities:
               1          2
     1  C    0.201076   0.066626
     2  C   -0.366618   0.010139
     3  C   -0.433407   0.064491
     4  C   -0.028922   0.009732
     5  C   -0.172759   0.048504
     6  C    0.255524   0.011568
     7  C   -0.381253   0.135372
     8  C   -0.170995   0.153554
     9  C    0.259703  -0.074441
    10  C   -0.018915   0.112824
    11  O   -0.497750   0.256943
    12  O   -0.537385   0.186289
    13  H    0.158628  -0.004531
    14  H    0.183055  -0.001512
    15  H    0.181408  -0.004616
    16  H    0.175290   0.001093
    17  H    0.160547   0.001888
    18  O   -0.263424   0.026957
    19  H    0.296197  -0.000879
 Sum of Mulliken charges =  -1.00000   1.00000

 Dipole moment (field-independent basis, Debye):
    X=             -7.0214    Y=            -19.0481    Z=              5.0714  Tot=             20.9248
 Quadrupole moment (field-independent basis, Debye-Ang):
   XX=            -93.9244   YY=           -153.2557   ZZ=            -85.7825
   XY=            -35.0579   XZ=              9.3315   YZ=             19.3419

  Exact polarizability: 301.271  30.571 233.541  -7.594 -37.120 107.030
 Approx polarizability: 330.794  37.142 274.272  -9.346 -44.701 121.803

                      1                      2                      3
                      A                      A                      A
 Frequencies --     90.3581               128.3089               175.7511
 Red. masses --     10.0255                 4.3389                 6.3136
 Frc consts  --      0.0482                 0.0421                 0.1149
 IR Inten    --      0.0114                 3.6728                 0.0102

                      4                      5                      6
                      A                      A                      A
 Frequencies --    214.9720               262.9538               332.5216
 Red. masses --      5.1959                 5.6703                 1.1161
 Frc consts  --      0.1415                 0.2310                 0.0727
 IR Inten    --      6.3187                 9.2936               169.5988

                      7                      8                      9
                      A                      A                      A
 Frequencies --    341.4025               371.2558               407.7868
 Red. masses --      6.6752                14.0392                 4.4606
 Frc consts  --      0.4584                 1.1401                 0.4370
 IR Inten    --     24.7291                 2.5943                 0.0013

                     10                     11                     12
                      A                      A                      A
 Frequencies --    413.8203               436.9382               470.5414
 Red. masses --     10.5988                 4.1816                 8.7402
 Frc consts  --      1.0694                 0.4704                 1.1402
 IR Inten    --     13.9513                 0.3018                 2.4954

                     13                     14                     15
                      A                      A                      A
 Frequencies --    520.2528               526.6294               619.8455
 Red. masses --      7.1132                 3.8209                 3.8581
 Frc consts  --      1.1343                 0.6243                 0.8734
 IR Inten    --      1.4431                 6.0686                 4.4732

                     16                     17                     18
                      A                      A                      A
 Frequencies --    644.2996               678.2569               717.3699
 Red. masses --      6.4757                 5.7203                 3.6940
 Frc consts  --      1.5839                 1.5505                 1.1200
 IR Inten    --     34.4977                 8.8511                28.8168

                     19                     20                     21
                      A                      A                      A
 Frequencies --    723.9056               754.1206               778.5235
 Red. masses --      6.6971                 2.8958                 2.0034
 Frc consts  --      2.0678                 0.9703                 0.7154
 IR Inten    --     26.0881                42.9356                42.7629

                     22                     23                     24
                      A                      A                      A
 Frequencies --    822.1111               825.1573               875.3812
 Red. masses --      1.5413                 4.1490                 1.3744
 Frc consts  --      0.6138                 1.6644                 0.6205
 IR Inten    --     62.3142                 8.2734                 0.1648

                     25                     26                     27
                      A                      A                      A
 Frequencies --    974.0507               988.1656               995.3175
 Red. masses --      1.3615                 6.8823                 1.2857
 Frc consts  --      0.7611                 3.9595                 0.7505
 IR Inten    --      2.8056                42.7848                 0.1441

                     28                     29                     30
                      A                      A                      A
 Frequencies --   1044.6642              1073.8793              1135.6259
 Red. masses --      2.0487                 4.6385                 1.6310
 Frc consts  --      1.3173                 3.1517                 1.2393
 IR Inten    --     21.3686               255.7383                17.5082

                     31                     32                     33
                      A                      A                      A
 Frequencies --   1162.8221              1208.7365              1222.7910
 Red. masses --      1.2321                 1.3224                 1.9833
 Frc consts  --      0.9816                 1.1384                 1.7472
 IR Inten    --     72.5496                46.7385               198.2563

                     34                     35                     36
                      A                      A                      A
 Frequencies --   1238.2313              1244.0898              1287.4773
 Red. masses --      5.8149                 2.1602                 2.2415
 Frc consts  --      5.2529                 1.9699                 2.1891
 IR Inten    --     10.4240               181.7534                43.0282

                     37                     38                     39
                      A                      A                      A
 Frequencies --   1352.0411              1436.4920              1448.8013
 Red. masses --      8.6283                 2.5768                 2.4037
 Frc consts  --      9.2930                 3.1329                 2.9727
 IR Inten    --     28.3254               126.1426               114.3492

                     40                     41                     42
                      A                      A                      A
 Frequencies --   1476.9639              1513.7343              1524.2326
 Red. masses --      6.4167                 4.5771                 4.0499
 Frc consts  --      8.2472                 6.1793                 5.5436
 IR Inten    --    536.0103               432.5864               546.9322

                     43                     44                     45
                      A                      A                      A
 Frequencies --   1574.3354              1606.2854              1625.0254
 Red. masses --      6.9269                 6.8671                 5.8371
 Frc consts  --     10.1153                10.4393                 9.0817
 IR Inten    --    308.1041               324.1035                 3.8564

                     46                     47                     48
                      A                      A                      A
 Frequencies --   3141.8718              3160.5840              3175.0747
 Red. masses --      1.0901                 1.0861                 1.0903
 Frc consts  --      6.3403                 6.3924                 6.4758
 IR Inten    --     36.0776                 9.4384                21.0010

                     49                     50                     51
                      A                      A                      A
 Frequencies --   3189.3515              3195.3895              3808.3483
 Red. masses --      1.0925                 1.0943                 1.0662
 Frc consts  --      6.5472                 6.5833                 9.1111
 IR Inten    --     21.9905                27.7928               136.0205

 - Thermochemistry -
 -------------------
 Temperature   298.150 Kelvin.  Pressure   1.00000 Atm.
 Atom     1 has atomic number  6 and mass  12.00000

 Molecular mass:   174.03169 amu.
 Principal axes and moments of inertia in atomic units:
                           1         2         3
     Eigenvalues --  1467.629662262.519463730.14616
           X            0.91426  -0.40512  -0.00319
           Y            0.39166   0.88181   0.26271
           Z           -0.10361  -0.24143   0.96487
 This molecule is an asymmetric top.
 Rotational symmetry number  1.
 Warning -- assumption of classical behavior for rotation
           may cause significant error
 Rotational temperatures (Kelvin)      0.05902     0.03828     0.02322
 Rotational constants (GHZ):           1.22970     0.79767     0.48383
 Zero-point vibrational energy     352520.6 (Joules/Mol)
                                   84.25445 (Kcal/Mol)
 Warning -- explicit consideration of  15 degrees of freedom as
           vibrations may cause significant error
 Vibrational temperatures:    130.01   184.61   252.87   309.30   378.33
          (Kelvin)            478.42   491.20   534.15   586.71   595.40
                              628.66   677.00   748.53   757.70   891.82
                              927.00   975.86  1032.14  1041.54  1085.01
                             1120.12  1182.83  1187.22  1259.48  1401.44
                             1421.75  1432.04  1503.04  1545.07  1633.91
                             1673.04  1739.10  1759.32  1781.54  1789.97
                             1852.39  1945.29  2066.79  2084.50  2125.02
                             2177.93  2193.03  2265.12  2311.09  2338.05
                             4520.45  4547.38  4568.22  4588.77  4597.45
                             5479.36

 Zero-point correction=                           0.134268 (Hartree/Particle)
 Thermal correction to Energy=                    0.144098
 Thermal correction to Enthalpy=                  0.145043
 Thermal correction to Gibbs Free Energy=         0.098496
 Sum of electronic and zero-point Energies=           -610.525319
 Sum of electronic and thermal Energies=              -610.515489
 Sum of electronic and thermal Enthalpies=            -610.514544
 Sum of electronic and thermal Free Energies=         -610.561091

                     E (Thermal)             CV                S
                      KCal/Mol        Cal/Mol-Kelvin    Cal/Mol-Kelvin
 Total                   90.423             39.444             97.965
 Electronic               0.000              0.000              1.377
 Translational            0.889              2.981             41.370
 Rotational               0.889              2.981             30.894
 Vibrational             88.646             33.482             24.324
 Vibration     1          0.602              1.956              3.652
 Vibration     2          0.611              1.925              2.971
 Vibration     3          0.628              1.872              2.373
 Vibration     4          0.645              1.818              2.001
 Vibration     5          0.670              1.741              1.642
 Vibration     6          0.714              1.611              1.248
 Vibration     7          0.721              1.593              1.206
 Vibration     8          0.743              1.531              1.075
 Vibration     9          0.772              1.453              0.934
 Vibration    10          0.777              1.440              0.913
 Vibration    11          0.797              1.390              0.836
 Vibration    12          0.828              1.315              0.736
 Vibration    13          0.875              1.205              0.609
 Vibration    14          0.882              1.191              0.595
 Vibration    15          0.980              0.990              0.417

 Optimization completed.
    -- Stationary point found.
 Normal termination of Gaussian 16 at Sun Feb 11 15:32:54 2024.
