 Gaussian 16, Revision A.03,
 Gaussian 16:  ES64L-G16RevA.03 25-Dec-2016

 --------------------------------------
 #P UB3LYP/6-311++G(d,p) nosym opt freq
 --------------------------------------

 --------
 Oxidized
 --------
 Symbolic Z-matrix:
 Charge =  0 Multiplicity = 1

 SCF Done:  E(UB3LYP) =  -609.493818706     A.U. after   16 cycles
 SCF Done:  E(UB3LYP) =  -609.496462495     A.U. after   14 cycles
 SCF Done:  E(UB3LYP) =  -609.496426378     A.U. after   14 cycles
 SCF Done:  E(UB3LYP) =  -609.496780872     A.U. after   14 cycles
 SCF Done:  E(UB3LYP) =  -609.496846553     A.U. after   12 cycles
 SCF Done:  E(UB3LYP) =  -609.496895534     A.U. after   12 cycles
 SCF Done:  E(UB3LYP) =  -609.496900549     A.U. after   12 cycles
 SCF Done:  E(UB3LYP) =  -609.496911683     A.U. after   11 cycles
 SCF Done:  E(UB3LYP) =  -609.496917297     A.U. after   12 cycles
 SCF Done:  E(UB3LYP) =  -609.496922180     A.U. after   12 cycles
 SCF Done:  E(UB3LYP) =  -609.496923241     A.U. after   12 cycles
 SCF Done:  E(UB3LYP) =  -609.496923314     A.U. after   10 cycles
 Optimization completed.
    -- Stationary point found.
 Normal termination of Gaussian 16 at Wed Dec 20 01:55:24 2023.

 ----------------------------------------------------------------------
 #P Geom=AllCheck Guess=TCheck SCRF=Check GenChk UB3LYP/6-311++G(d,p) F
 req
 ----------------------------------------------------------------------

 Structure from the checkpoint file:  "096.chk"
 --------
 Oxidized
 --------
 Charge =  0 Multiplicity = 1

                          Input orientation:
 ---------------------------------------------------------------------
 Center     Atomic      Atomic             Coordinates (Angstroms)
 Number     Number       Type             X           Y           Z
 ---------------------------------------------------------------------
      1          6           0        1.887455    3.928212    5.522209
      2          6           0        2.807009    3.460207    4.453772
      3          6           0        2.487311    2.450055    3.635030
      4          6           0        1.195129    1.736620    3.769732
      5          6           0        0.291098    2.163016    4.867947
      6          6           0        0.617460    3.154314    5.712572
      7          8           0        2.139080    4.922729    6.174053
      8          8           0        0.881727    0.832015    3.014333
      9          1           0        3.735518    4.013501    4.366288
     10          1           0        3.139323    2.112854    2.836929
     11          1           0       -0.639000    1.612928    4.956223
     12          6           0       -0.235447    3.489727    6.901354
     13          8           0        0.181906    3.525517    8.029134
     14          8           0       -1.514851    3.698669    6.547894
     15          6           0       -2.424947    3.990741    7.631291
     16          1           0       -3.391505    4.148112    7.159308
     17          1           0       -2.101421    4.886611    8.161621
     18          1           0       -2.464823    3.152021    8.327148
 ---------------------------------------------------------------------

 SCF Done:  E(UB3LYP) =  -609.496923314     A.U. after    1 cycles

 Alpha  occ. eigenvalues --  -19.19489 -19.15288 -19.15287 -19.13748 -10.33083
 Alpha  occ. eigenvalues --  -10.30180 -10.29887 -10.24328 -10.24245 -10.23281
 Alpha  occ. eigenvalues --  -10.22912 -10.22788  -1.13597  -1.08488  -1.08189
 Alpha  occ. eigenvalues --   -1.04919  -0.88533  -0.82483  -0.75799  -0.72645
 Alpha  occ. eigenvalues --   -0.67168  -0.63707  -0.58928  -0.55267  -0.54051
 Alpha  occ. eigenvalues --   -0.51807  -0.50577  -0.49944  -0.48980  -0.46441
 Alpha  occ. eigenvalues --   -0.46368  -0.45219  -0.44391  -0.43227  -0.42753
 Alpha  occ. eigenvalues --   -0.41427  -0.38695  -0.33450  -0.32947  -0.32487
 Alpha  occ. eigenvalues --   -0.31013  -0.30081  -0.28608
 Alpha virt. eigenvalues --   -0.14957  -0.06289  -0.02627  -0.01245  -0.00664
 Alpha virt. eigenvalues --    0.00167   0.00919   0.02053   0.02501   0.02829
 Alpha virt. eigenvalues --    0.03686   0.04528   0.04738   0.06558   0.06857

  Beta  occ. eigenvalues --  -19.19489 -19.15288 -19.15287 -19.13748 -10.33083
  Beta  occ. eigenvalues --  -10.30180 -10.29887 -10.24328 -10.24245 -10.23281
  Beta  occ. eigenvalues --  -10.22912 -10.22788  -1.13597  -1.08488  -1.08189
  Beta  occ. eigenvalues --   -1.04919  -0.88533  -0.82483  -0.75799  -0.72645
  Beta  occ. eigenvalues --   -0.67168  -0.63707  -0.58928  -0.55267  -0.54051
  Beta  occ. eigenvalues --   -0.51807  -0.50577  -0.49944  -0.48980  -0.46441
  Beta  occ. eigenvalues --   -0.46368  -0.45219  -0.44391  -0.43227  -0.42753
  Beta  occ. eigenvalues --   -0.41427  -0.38695  -0.33450  -0.32947  -0.32487
  Beta  occ. eigenvalues --   -0.31013  -0.30081  -0.28608
  Beta virt. eigenvalues --   -0.14957  -0.06289  -0.02627  -0.01245  -0.00664
  Beta virt. eigenvalues --    0.00167   0.00919   0.02053   0.02501   0.02829
  Beta virt. eigenvalues --    0.03686   0.04528   0.04738   0.06558   0.06857

 Mulliken charges and spin densities:
               1          2
     1  C   -0.838430   0.000000
     2  C    0.118442  -0.000000
     3  C    0.248864  -0.000000
     4  C   -0.510005   0.000000
     5  C   -0.412800  -0.000000
     6  C    1.140013   0.000000
     7  O   -0.180995  -0.000000
     8  O   -0.214283  -0.000000
     9  H    0.226949  -0.000000
    10  H    0.228306   0.000000
    11  H    0.226801  -0.000000
    12  C   -0.061907  -0.000000
    13  O   -0.200004   0.000000
    14  O   -0.048428   0.000000
    15  C   -0.254043   0.000000
    16  H    0.163236   0.000000
    17  H    0.184665  -0.000000
    18  H    0.183621   0.000000
 Sum of Mulliken charges =  -0.00000   0.00000

 Dipole moment (field-independent basis, Debye):
    X=             -1.2735    Y=              0.1083    Z=             -0.7380  Tot=              1.4759
 Quadrupole moment (field-independent basis, Debye-Ang):
   XX=            -56.6929   YY=            -75.8496   ZZ=            -84.4705
   XY=             -8.1188   XZ=            -19.3174   YZ=             -9.0399

  Exact polarizability: 102.568   9.274 103.964 -10.945  37.597 111.989
 Approx polarizability: 136.974  31.828 196.496  16.689  86.842 188.697

                      1                      2                      3
                      A                      A                      A
 Frequencies --     24.3714                75.9093               100.0335
 Red. masses --      6.0704                 5.9664                 4.2646
 Frc consts  --      0.0021                 0.0203                 0.0251
 IR Inten    --      3.0624                 7.6102                 1.9064

                      4                      5                      6
                      A                      A                      A
 Frequencies --    117.1167               136.2978               197.9955
 Red. masses --      2.4702                 1.5262                 5.1215
 Frc consts  --      0.0200                 0.0167                 0.1183
 IR Inten    --      2.0937                 0.1035                 5.7868

                      7                      8                      9
                      A                      A                      A
 Frequencies --    236.5028               269.8439               303.1864
 Red. masses --      6.1687                 6.3710                 4.6704
 Frc consts  --      0.2033                 0.2733                 0.2529
 IR Inten    --      2.0369                 1.4338                10.9444

                     10                     11                     12
                      A                      A                      A
 Frequencies --    331.5110               425.3682               464.9771
 Red. masses --      4.7539                 8.6822                 5.0424
 Frc consts  --      0.3078                 0.9256                 0.6423
 IR Inten    --     10.0268                15.6676                 6.3913

                     13                     14                     15
                      A                      A                      A
 Frequencies --    468.4967               529.1201               593.1397
 Red. masses --      7.0755                 5.2602                 3.8329
 Frc consts  --      0.9150                 0.8677                 0.7945
 IR Inten    --      0.6464                 6.3420                 4.5585

                     16                     17                     18
                      A                      A                      A
 Frequencies --    642.4006               728.5758               778.8824
 Red. masses --      5.1751                 4.8496                 6.3715
 Frc consts  --      1.2583                 1.5167                 2.2774
 IR Inten    --      5.8830                 3.9899                 6.7544

                     19                     20                     21
                      A                      A                      A
 Frequencies --    785.2148               819.2088               853.5426
 Red. masses --      3.5402                 5.0200                 2.6438
 Frc consts  --      1.2861                 1.9849                 1.1348
 IR Inten    --      0.8974                 2.9094                23.7965

                     22                     23                     24
                      A                      A                      A
 Frequencies --    877.3733               941.2799               957.8386
 Red. masses --      4.0188                 1.8124                 3.8164
 Frc consts  --      1.8227                 0.9461                 2.0629
 IR Inten    --     14.8948                42.3934                 2.3069

                     25                     26                     27
                      A                      A                      A
 Frequencies --   1015.8421              1059.8626              1119.8449
 Red. masses --      1.2571                 4.9186                 1.5341
 Frc consts  --      0.7643                 3.2553                 1.1335
 IR Inten    --      0.0932               164.9846                 8.2372

                     28                     29                     30
                      A                      A                      A
 Frequencies --   1170.9125              1203.1256              1217.5928
 Red. masses --      1.2814                 1.6679                 1.8404
 Frc consts  --      1.0351                 1.4225                 1.6076
 IR Inten    --      1.3080                 6.2476                48.4392

                     31                     32                     33
                      A                      A                      A
 Frequencies --   1259.9443              1295.6415              1358.9568
 Red. masses --      2.8489                 3.0606                 2.4141
 Frc consts  --      2.6646                 3.0271                 2.6268
 IR Inten    --    398.1290                12.8370                99.6043

                     34                     35                     36
                      A                      A                      A
 Frequencies --   1392.1528              1469.8923              1483.6630
 Red. masses --      2.1444                 1.1991                 1.0441
 Frc consts  --      2.4487                 1.5264                 1.3541
 IR Inten    --      7.5596                15.5170                10.9801

                     37                     38                     39
                      A                      A                      A
 Frequencies --   1496.0850              1645.7984              1679.9721
 Red. masses --      1.0476                 8.2218                 8.9966
 Frc consts  --      1.3815                13.1210                14.9601
 IR Inten    --      9.7635                11.4153                 4.0741

                     40                     41                     42
                      A                      A                      A
 Frequencies --   1726.2671              1729.2596              1801.0985
 Red. masses --      9.8102                11.5798                11.9426
 Frc consts  --     17.2243                20.4019                22.8257
 IR Inten    --     44.4454               341.2609               296.9509

                     43                     44                     45
                      A                      A                      A
 Frequencies --   3055.1856              3131.2062              3165.5191
 Red. masses --      1.0295                 1.1074                 1.1067
 Frc consts  --      5.6616                 6.3972                 6.5341
 IR Inten    --     26.6311                13.2464                 9.7893

                     46                     47                     48
                      A                      A                      A
 Frequencies --   3177.7114              3189.3622              3195.0942
 Red. masses --      1.0875                 1.0928                 1.0992
 Frc consts  --      6.4700                 6.5493                 6.6115
 IR Inten    --      0.5284                 0.2057                 1.6230

 - Thermochemistry -
 -------------------
 Temperature   298.150 Kelvin.  Pressure   1.00000 Atm.
 Atom     1 has atomic number  6 and mass  12.00000

 Molecular mass:   166.02661 amu.
 Principal axes and moments of inertia in atomic units:
                           1         2         3
     Eigenvalues --  1114.008822735.059473621.76525
           X           -0.59358   0.72239  -0.35470
           Y            0.34240   0.62555   0.70103
           Z            0.72831   0.29467  -0.61866
 This molecule is an asymmetric top.
 Rotational symmetry number  1.
 Warning -- assumption of classical behavior for rotation
           may cause significant error
 Rotational temperatures (Kelvin)      0.07775     0.03167     0.02391
 Rotational constants (GHZ):           1.62004     0.65985     0.49830
 Zero-point vibrational energy     333149.1 (Joules/Mol)
                                   79.62454 (Kcal/Mol)
 Warning -- explicit consideration of  15 degrees of freedom as
           vibrations may cause significant error
 Vibrational temperatures:     35.07   109.22   143.93   168.50   196.10
          (Kelvin)            284.87   340.27   388.25   436.22   476.97
                              612.01   669.00   674.06   761.29   853.40
                              924.27  1048.26  1120.64  1129.75  1178.66
                             1228.06  1262.34  1354.29  1378.12  1461.57
                             1524.91  1611.21  1684.68  1731.03  1751.84
                             1812.78  1864.14  1955.24  2003.00  2114.85
                             2134.66  2152.53  2367.94  2417.11  2483.71
                             2488.02  2591.38  4395.73  4505.11  4554.48
                             4572.02  4588.78  4597.03

 Zero-point correction=                           0.126890 (Hartree/Particle)
 Thermal correction to Energy=                    0.137876
 Thermal correction to Enthalpy=                  0.138820
 Thermal correction to Gibbs Free Energy=         0.088599
 Sum of electronic and zero-point Energies=           -609.370034
 Sum of electronic and thermal Energies=              -609.359048
 Sum of electronic and thermal Enthalpies=            -609.358103
 Sum of electronic and thermal Free Energies=         -609.408324

                     E (Thermal)             CV                S
                      KCal/Mol        Cal/Mol-Kelvin    Cal/Mol-Kelvin
 Total                   86.518             38.839            105.698
 Electronic               0.000              0.000              0.000
 Translational            0.889              2.981             41.229
 Rotational               0.889              2.981             30.779
 Vibrational             84.741             32.877             33.690
 Vibration     1          0.593              1.985              6.242
 Vibration     2          0.599              1.965              3.994
 Vibration     3          0.604              1.949              3.454
 Vibration     4          0.608              1.935              3.147
 Vibration     5          0.614              1.917              2.855
 Vibration     6          0.637              1.843              2.152
 Vibration     7          0.655              1.785              1.829
 Vibration     8          0.674              1.729              1.597
 Vibration     9          0.695              1.668              1.399
 Vibration    10          0.714              1.613              1.253
 Vibration    11          0.787              1.415              0.874
 Vibration    12          0.822              1.328              0.752
 Vibration    13          0.826              1.320              0.742
 Vibration    14          0.884              1.186              0.589
 Vibration    15          0.951              1.046              0.462

                           ! Non-Optimized Parameters !
 Normal termination of Gaussian 16 at Wed Dec 20 02:12:23 2023.
