 Gaussian 16, Revision A.03,
 Gaussian 16:  ES64L-G16RevA.03 25-Dec-2016

 ----------------------------------------------------------------
 #P UB3LYP/6-311++G(d,p) SCRF=(PCM,Solvent=n,n-DiMethylFormamide)
 ----------------------------------------------------------------

 ------------------
 Radical PCM in DMF
 ------------------
 Symbolic Z-matrix:
 Charge = -1 Multiplicity = 2

                         Standard orientation:
 ---------------------------------------------------------------------
 Center     Atomic      Atomic             Coordinates (Angstroms)
 Number     Number       Type             X           Y           Z
 ---------------------------------------------------------------------
      1          6           0       -3.468372   -2.081847   -0.000060
      2          8           0       -2.778264   -0.857232    0.000533
      3          6           0       -1.407399   -0.873301    0.000045
      4          6           0       -0.702471   -2.062259   -0.000587
      5          6           0        0.702495   -2.062251   -0.000957
      6          6           0        1.407422   -0.873311   -0.000570
      7          8           0        2.778264   -0.857204   -0.000747
      8          6           0        3.468379   -2.081849    0.001136
      9          6           0        0.721449    0.384190   -0.000080
     10          6           0        1.477848    1.660526    0.000107
     11          8           0        2.733078    1.742440    0.000958
     12          6           0        0.681600    2.861537   -0.001001
     13          6           0       -0.681624    2.861562   -0.000792
     14          6           0       -1.477873    1.660549    0.000189
     15          8           0       -2.733094    1.742420    0.001160
     16          6           0       -0.721430    0.384167    0.000171
     17          1           0       -4.528207   -1.822531   -0.000157
     18          1           0       -3.246883   -2.684768    0.892238
     19          1           0       -3.246811   -2.684153   -0.892773
     20          1           0       -1.216325   -3.013604   -0.000715
     21          1           0        1.216358   -3.013602   -0.001625
     22          1           0        4.528194   -1.822488    0.002028
     23          1           0        3.245713   -2.683589    0.893928
     24          1           0        3.247903   -2.685274   -0.891085
     25          1           0        1.245858    3.790132   -0.001476
     26          1           0       -1.245818    3.790193   -0.001206
 ---------------------------------------------------------------------

 SCF Done:  E(UB3LYP) =  -764.501274175     A.U. after   18 cycles

 The electronic state is 2-A.
 Alpha  occ. eigenvalues --  -19.14550 -19.14550 -19.06711 -19.06711 -10.23082
 Alpha  occ. eigenvalues --  -10.23080 -10.21952 -10.21950 -10.21536 -10.21536
 Alpha  occ. eigenvalues --  -10.18036 -10.17997 -10.16974 -10.16924 -10.15708
 Alpha  occ. eigenvalues --  -10.15640  -1.06553  -1.06467  -0.99440  -0.99216
 Alpha  occ. eigenvalues --   -0.85280  -0.79969  -0.76136  -0.74650  -0.70798
 Alpha  occ. eigenvalues --   -0.68003  -0.67076  -0.61555  -0.60408  -0.56040
 Alpha  occ. eigenvalues --   -0.52194  -0.51683  -0.49607  -0.49150  -0.46836
 Alpha  occ. eigenvalues --   -0.46372  -0.45860  -0.44296  -0.43554  -0.41635
 Alpha  occ. eigenvalues --   -0.41073  -0.40641  -0.40028  -0.39430  -0.37456
 Alpha  occ. eigenvalues --   -0.36901  -0.36558  -0.35702  -0.33881  -0.33529
 Alpha  occ. eigenvalues --   -0.32904  -0.29367  -0.27209  -0.25240  -0.22930
 Alpha  occ. eigenvalues --   -0.22472  -0.21359  -0.14502
 Alpha virt. eigenvalues --   -0.01888  -0.01407  -0.00409   0.00621   0.00801
 Alpha virt. eigenvalues --    0.02355   0.02622   0.02995   0.03127   0.04325
 Alpha virt. eigenvalues --    0.04531   0.05264   0.05422   0.05541   0.06630

  Beta  occ. eigenvalues --  -19.14540 -19.14540 -19.06071 -19.06071 -10.23073
  Beta  occ. eigenvalues --  -10.23072 -10.21822 -10.21820 -10.21536 -10.21536
  Beta  occ. eigenvalues --  -10.17992 -10.17952 -10.16906 -10.16855 -10.15571
  Beta  occ. eigenvalues --  -10.15503  -1.06523  -1.06439  -0.98343  -0.98090
  Beta  occ. eigenvalues --   -0.85081  -0.79442  -0.76027  -0.74456  -0.70747
  Beta  occ. eigenvalues --   -0.67785  -0.66288  -0.61215  -0.60202  -0.55931
  Beta  occ. eigenvalues --   -0.52070  -0.51538  -0.49447  -0.48919  -0.46748
  Beta  occ. eigenvalues --   -0.46325  -0.45631  -0.44024  -0.43515  -0.41311
  Beta  occ. eigenvalues --   -0.40596  -0.39977  -0.39975  -0.38942  -0.36525
  Beta  occ. eigenvalues --   -0.35644  -0.35523  -0.35515  -0.33487  -0.32903
  Beta  occ. eigenvalues --   -0.32831  -0.29045  -0.24623  -0.24364  -0.22346
  Beta  occ. eigenvalues --   -0.21908  -0.20616
  Beta virt. eigenvalues --   -0.08089  -0.00608  -0.00400  -0.00369   0.00627
  Beta virt. eigenvalues --    0.00821   0.02367   0.02653   0.03016   0.03152
  Beta virt. eigenvalues --    0.04335   0.04555   0.05279   0.05561   0.05802

 Mulliken charges and spin densities:
               1          2
     1  C   -0.298892  -0.000865
     2  O   -0.154787   0.000662
     3  C   -0.094666   0.046112
     4  C   -0.187858   0.061947
     5  C   -0.187764   0.061922
     6  C   -0.094611   0.046142
     7  O   -0.154771   0.000664
     8  C   -0.298878  -0.000865
     9  C    0.051406   0.023242
    10  C   -0.019872   0.060204
    11  O   -0.508197   0.233948
    12  C   -0.159401   0.086806
    13  C   -0.159372   0.086817
    14  C   -0.019951   0.060200
    15  O   -0.508169   0.233928
    16  C    0.051450   0.023263
    17  H    0.194942  -0.000386
    18  H    0.151170   0.000733
    19  H    0.151148   0.000732
    20  H    0.199692  -0.003610
    21  H    0.199692  -0.003608
    22  H    0.194945  -0.000386
    23  H    0.151195   0.000737
    24  H    0.151132   0.000729
    25  H    0.175209  -0.009535
    26  H    0.175209  -0.009533
 Sum of Mulliken charges =  -1.00000   1.00000

 Dipole moment (field-independent basis, Debye):
    X=              0.0001    Y=            -11.5475    Z=             -0.0041  Tot=             11.5475
 Quadrupole moment (field-independent basis, Debye-Ang):
   XX=           -129.7425   YY=            -98.2044   ZZ=            -98.5749
   XY=             -0.0011   XZ=              0.0125   YZ=             -0.0111

 Normal termination of Gaussian 16 at Sun Jan 21 08:28:30 2024.
