 Q-Chem 5.4, Q-Chem, Inc., Pleasanton, CA (2021)
 Q-Chem 5.4.0 for Intel X86 EM64T Linux

User input:
--------------------------------------------------------------
$molecule
-1 2
C                 -2.9083910000      0.4142110000      0.5256970000
C                 -1.9368300000     -0.4094610000     -0.3408670000
C                 -2.2803150000     -0.3324690000     -1.8406350000
C                 -0.4661280000     -0.1424700000     -0.0349560000
C                  0.2241770000      1.0284800000     -0.2211720000
Br                -0.6207300000      2.6259590000     -0.9494650000
C                  1.6323760000      1.2403430000      0.0858080000
O                  2.2197900000      2.3313860000     -0.1022690000
C                  2.3392700000      0.0812000000      0.6389470000
C                  1.6573080000     -1.0890180000      0.8264770000
Br                 2.5818410000     -2.6304300000      1.5571990000
C                  0.2559560000     -1.3053300000      0.5230560000
O                 -0.3167170000     -2.4036390000      0.7174190000
C                  3.7957950000      0.2646600000      0.9681830000
H                 -2.8678820000      1.4806850000      0.2988740000
H                 -2.6796700000      0.2826990000      1.5872110000
H                 -3.9357860000      0.0687080000      0.3593600000
H                 -2.0700470000     -1.4522490000     -0.0471390000
H                 -2.1941140000      0.6805280000     -2.2367780000
H                 -1.6168390000     -0.9819640000     -2.4189110000
H                 -3.3091650000     -0.6757950000     -2.0024640000
H                  4.4196190000     -0.4357900000      0.4035130000
H                  4.0886980000      1.2854000000      0.7255720000
H                  3.9877860000      0.0743550000      2.0290970000
$end

$rem
BASIS  =  6-311++G(d,p)
GUI  =  2
JOB_TYPE  =  SP
METHOD  =  B3LYP
SCF_CONVERGENCE  = 8
SOLVENT_METHOD = sm12
$end

$smx
solvent dimethylformamide
charges CM5
$end

--------------------------------------------------------------

             Standard Nuclear Orientation (Angstroms)
    I     Atom           X                Y                Z
 ----------------------------------------------------------------
    1      C      -2.9083910000     0.4142110000     0.5256970000
    2      C      -1.9368300000    -0.4094610000    -0.3408670000
    3      C      -2.2803150000    -0.3324690000    -1.8406350000
    4      C      -0.4661280000    -0.1424700000    -0.0349560000
    5      C       0.2241770000     1.0284800000    -0.2211720000
    6      Br     -0.6207300000     2.6259590000    -0.9494650000
    7      C       1.6323760000     1.2403430000     0.0858080000
    8      O       2.2197900000     2.3313860000    -0.1022690000
    9      C       2.3392700000     0.0812000000     0.6389470000
   10      C       1.6573080000    -1.0890180000     0.8264770000
   11      Br      2.5818410000    -2.6304300000     1.5571990000
   12      C       0.2559560000    -1.3053300000     0.5230560000
   13      O      -0.3167170000    -2.4036390000     0.7174190000
   14      C       3.7957950000     0.2646600000     0.9681830000
   15      H      -2.8678820000     1.4806850000     0.2988740000
   16      H      -2.6796700000     0.2826990000     1.5872110000
   17      H      -3.9357860000     0.0687080000     0.3593600000
   18      H      -2.0700470000    -1.4522490000    -0.0471390000
   19      H      -2.1941140000     0.6805280000    -2.2367780000
   20      H      -1.6168390000    -0.9819640000    -2.4189110000
   21      H      -3.3091650000    -0.6757950000    -2.0024640000
   22      H       4.4196190000    -0.4357900000     0.4035130000
   23      H       4.0886980000     1.2854000000     0.7255720000
   24      H       3.9877860000     0.0743550000     2.0290970000
 ----------------------------------------------------------------

   18   -5686.0321173014      5.61e-09  Convergence criterion met
 Total energy in the final basis set =    -5686.1064680627

                    Orbital Energies (a.u.)
 --------------------------------------------------------------

 Alpha MOs
 -- Occupied --
********-482.8174 -62.4717 -62.4701 -56.2921 -56.2905 -56.2885 -56.2881
-56.2869 -56.2866 -19.0824 -19.0819 -10.2344 -10.2335 -10.2203 -10.2176
-10.1890 -10.1882 -10.1787 -10.1666 -10.1622 -10.1622  -8.6802  -8.6787
 -6.5112  -6.5098  -6.4994  -6.4982  -6.4978  -6.4967  -2.6222  -2.6208
 -2.6189  -2.6180  -2.6175  -2.6166  -2.6087  -2.6087  -2.6072  -2.6072
 -1.0119  -1.0093  -0.8551  -0.8267  -0.7881  -0.7689  -0.7460  -0.6890
 -0.6875  -0.6721  -0.6070  -0.5642  -0.5498  -0.5078  -0.4644  -0.4433
 -0.4418  -0.4384  -0.4200  -0.4191  -0.3997  -0.3976  -0.3962  -0.3890
 -0.3870  -0.3828  -0.3630  -0.3497  -0.3494  -0.3290  -0.3144  -0.3091
 -0.2792  -0.2745  -0.2683  -0.2514  -0.2407  -0.2404  -0.1657

 Beta MOs
 -- Occupied --
********-482.8174 -62.4717 -62.4701 -56.2921 -56.2905 -56.2885 -56.2881
-56.2869 -56.2866 -19.0753 -19.0747 -10.2333 -10.2324 -10.2192 -10.2167
-10.1877 -10.1869 -10.1788 -10.1667 -10.1621 -10.1621  -8.6802  -8.6787
 -6.5112  -6.5098  -6.4993  -6.4982  -6.4978  -6.4967  -2.6222  -2.6208
 -2.6189  -2.6180  -2.6174  -2.6167  -2.6087  -2.6086  -2.6072  -2.6071
 -0.9999  -0.9969  -0.8501  -0.8252  -0.7870  -0.7673  -0.7434  -0.6888
 -0.6859  -0.6637  -0.6049  -0.5600  -0.5473  -0.5057  -0.4619  -0.4424
 -0.4360  -0.4328  -0.4167  -0.4143  -0.3974  -0.3947  -0.3940  -0.3847
 -0.3815  -0.3611  -0.3581  -0.3483  -0.3481  -0.3282  -0.3082  -0.2962
 -0.2788  -0.2740  -0.2457  -0.2448  -0.2346  -0.2345

          Ground-State Mulliken Net Atomic Charges

     Atom                 Charge (a.u.)    Spin (a.u.)
  --------------------------------------------------------
      1 C                    -0.412657       0.002923
      2 C                     0.805623      -0.003493
      3 C                    -0.414034       0.002979
      4 C                     0.578877       0.127763
      5 C                     0.294863       0.070306
      6 Br                    0.111198       0.005384
      7 C                    -2.373532       0.060892
      8 O                    -0.246762       0.265000
      9 C                     0.482143       0.101056
     10 C                     0.358788       0.037378
     11 Br                    0.002236       0.004687
     12 C                    -1.862126       0.059110
     13 O                    -0.231421       0.261881
     14 C                     0.278591       0.000794
     15 H                     0.149216      -0.000069
     16 H                     0.112487       0.000425
     17 H                     0.219272       0.000373
     18 H                     0.117365      -0.004020
     19 H                     0.149290      -0.000085
     20 H                     0.112489       0.000419
     21 H                     0.219065       0.000397
     22 H                     0.185704       0.004255
     23 H                     0.177778      -0.002569
     24 H                     0.185548       0.004215
  --------------------------------------------------------
  Sum of atomic charges =    -1.000000

                    Cartesian Multipole Moments
 -----------------------------------------------------------------
    Charge (ESU x 10^10)
                -4.8032
    Dipole Moment (Debye)
         X      -4.1992      Y      -0.0039      Z      -1.3220
       Tot       4.4023
    Quadrupole Moments (Debye-Ang)
        XX    -127.7273     XY      -5.7213     YY    -147.0238
        XZ      -2.0717     YZ       8.9530     ZZ    -117.2350

 Total job time:  571.24s(wall), 4336.94s(cpu)
        *  Thank you very much for using Q-Chem.  Have a nice day.  *
