 Gaussian 16, Revision A.03,
 Gaussian 16:  ES64L-G16RevA.03 25-Dec-2016

 --------------------------------------
 #P UB3LYP/6-311++G(d,p) nosym opt freq
 --------------------------------------

 -------
 Radical
 -------
 Symbolic Z-matrix:
 Charge = -1 Multiplicity = 2

 SCF Done:  E(UB3LYP) =  -5686.03701453     A.U. after   21 cycles
 Optimization completed.
    -- Stationary point found.
 Normal termination of Gaussian 16 at Sat Jan  6 05:43:15 2024.

 ----------------------------------------------------------------------
 #P Geom=AllCheck Guess=TCheck SCRF=Check GenChk UB3LYP/6-311++G(d,p) F
 req
 ----------------------------------------------------------------------

 Structure from the checkpoint file:  "019-rad.chk"
 -------
 Radical
 -------
 Charge = -1 Multiplicity = 2

                          Input orientation:
 ---------------------------------------------------------------------
 Center     Atomic      Atomic             Coordinates (Angstroms)
 Number     Number       Type             X           Y           Z
 ---------------------------------------------------------------------
      1          6           0       -2.908391    0.414211    0.525697
      2          6           0       -1.936830   -0.409461   -0.340867
      3          6           0       -2.280315   -0.332469   -1.840635
      4          6           0       -0.466128   -0.142470   -0.034956
      5          6           0        0.224177    1.028480   -0.221172
      6         35           0       -0.620730    2.625959   -0.949465
      7          6           0        1.632376    1.240343    0.085808
      8          8           0        2.219790    2.331386   -0.102269
      9          6           0        2.339270    0.081200    0.638947
     10          6           0        1.657308   -1.089018    0.826477
     11         35           0        2.581841   -2.630430    1.557199
     12          6           0        0.255956   -1.305330    0.523056
     13          8           0       -0.316717   -2.403639    0.717419
     14          6           0        3.795795    0.264660    0.968183
     15          1           0       -2.867882    1.480685    0.298874
     16          1           0       -2.679670    0.282699    1.587211
     17          1           0       -3.935786    0.068708    0.359360
     18          1           0       -2.070047   -1.452249   -0.047139
     19          1           0       -2.194114    0.680528   -2.236778
     20          1           0       -1.616839   -0.981964   -2.418911
     21          1           0       -3.309165   -0.675795   -2.002464
     22          1           0        4.419619   -0.435790    0.403513
     23          1           0        4.088698    1.285400    0.725572
     24          1           0        3.987786    0.074355    2.029097
 ---------------------------------------------------------------------

 SCF Done:  E(UB3LYP) =  -5686.03701453     A.U. after    1 cycles

 Alpha  occ. eigenvalues -- -482.70211-482.70006 -62.35492 -62.35293 -56.17506
 Alpha  occ. eigenvalues --  -56.17310 -56.17165 -56.17126 -56.16963 -56.16926
 Alpha  occ. eigenvalues --  -18.95775 -18.95712 -10.11099 -10.10981 -10.09905
 Alpha  occ. eigenvalues --  -10.09634 -10.06720 -10.06654 -10.06169 -10.04981
 Alpha  occ. eigenvalues --  -10.04980 -10.04819  -8.56454  -8.56262  -6.39528
 Alpha  occ. eigenvalues --   -6.39344  -6.38382  -6.38270  -6.38184  -6.38077
 Alpha  occ. eigenvalues --   -2.50636  -2.50449  -2.50327  -2.50242  -2.50136
 Alpha  occ. eigenvalues --   -2.50056  -2.49328  -2.49327  -2.49132  -2.49130
 Alpha  occ. eigenvalues --   -0.88757  -0.88455  -0.73384  -0.70690  -0.67084
 Alpha  occ. eigenvalues --   -0.64999  -0.62647  -0.57673  -0.56791  -0.55048
 Alpha  occ. eigenvalues --   -0.48868  -0.44190  -0.43011  -0.38614  -0.34616
 Alpha  occ. eigenvalues --   -0.32761  -0.32114  -0.32027  -0.30427  -0.29748
 Alpha  occ. eigenvalues --   -0.28352  -0.28018  -0.27674  -0.27352  -0.26672
 Alpha  occ. eigenvalues --   -0.25897  -0.24398  -0.23567  -0.23224  -0.21162
 Alpha  occ. eigenvalues --   -0.19693  -0.18993  -0.16397  -0.15860  -0.14872
 Alpha  occ. eigenvalues --   -0.12706  -0.12080  -0.11741  -0.04152
 Alpha virt. eigenvalues --    0.08148   0.08698   0.09488   0.09552   0.10605
 Alpha virt. eigenvalues --    0.10930   0.11635   0.12316   0.12557   0.13200
 Alpha virt. eigenvalues --    0.14160   0.14207   0.14229   0.14721   0.14939

  Beta  occ. eigenvalues -- -482.70211-482.70006 -62.35491 -62.35293 -56.17508
  Beta  occ. eigenvalues --  -56.17312 -56.17162 -56.17126 -56.16960 -56.16926
  Beta  occ. eigenvalues --  -18.95065 -18.94987 -10.10988 -10.10873 -10.09799
  Beta  occ. eigenvalues --  -10.09541 -10.06583 -10.06516 -10.06180 -10.04972
  Beta  occ. eigenvalues --  -10.04971 -10.04830  -8.56453  -8.56262  -6.39532
  Beta  occ. eigenvalues --   -6.39347  -6.38376  -6.38270  -6.38178  -6.38077
  Beta  occ. eigenvalues --   -2.50637  -2.50451  -2.50325  -2.50244  -2.50135
  Beta  occ. eigenvalues --   -2.50058  -2.49325  -2.49324  -2.49129  -2.49127
  Beta  occ. eigenvalues --   -0.87557  -0.87208  -0.72893  -0.70548  -0.66979
  Beta  occ. eigenvalues --   -0.64838  -0.62384  -0.57652  -0.56631  -0.54212
  Beta  occ. eigenvalues --   -0.48660  -0.43780  -0.42746  -0.38416  -0.34421
  Beta  occ. eigenvalues --   -0.32710  -0.31732  -0.31362  -0.30246  -0.29251
  Beta  occ. eigenvalues --   -0.28257  -0.27843  -0.27340  -0.26433  -0.26346
  Beta  occ. eigenvalues --   -0.24183  -0.23514  -0.23336  -0.23088  -0.21076
  Beta  occ. eigenvalues --   -0.19016  -0.17922  -0.16364  -0.15825  -0.12338
  Beta  occ. eigenvalues --   -0.12037  -0.11453  -0.11116
  Beta virt. eigenvalues --    0.02990   0.08154   0.08734   0.09544   0.09980
  Beta virt. eigenvalues --    0.10644   0.11644   0.11889   0.12345   0.12670
  Beta virt. eigenvalues --    0.13222   0.14190   0.14232   0.14375   0.14748

 Mulliken charges and spin densities:
               1          2
     1  C   -0.703926   0.002435
     2  C    0.225275  -0.003496
     3  C   -0.704081   0.002437
     4  C    1.201949   0.131255
     5  C    0.275412   0.070277
     6  Br  -0.173637   0.003592
     7  C   -1.424892   0.057768
     8  O   -0.291951   0.265757
     9  C    1.049991   0.109933
    10  C    0.080745   0.037733
    11  Br  -0.234002   0.002580
    12  C   -1.131442   0.055715
    13  O   -0.283696   0.260978
    14  C   -0.405872  -0.000817
    15  H    0.146450  -0.000272
    16  H    0.143945   0.000456
    17  H    0.112583   0.000545
    18  H    0.230346  -0.003877
    19  H    0.146435  -0.000274
    20  H    0.143976   0.000457
    21  H    0.112570   0.000548
    22  H    0.143808   0.004399
    23  H    0.196292  -0.002511
    24  H    0.143723   0.004384
 Sum of Mulliken charges =  -1.00000   1.00000

 Dipole moment (field-independent basis, Debye):
    X=             -3.9829    Y=              0.0347    Z=             -1.2763  Tot=              4.1825
 Quadrupole moment (field-independent basis, Debye-Ang):
   XX=           -129.8899   YY=           -148.1054   ZZ=           -117.7808
   XY=             -4.2702   XZ=             -3.0781   YZ=              9.6626

  Exact polarizability: 213.016  -5.644 221.901  27.119 -34.402 135.546
 Approx polarizability: 294.507  27.958 385.404  21.634 -57.413 203.577

                      1                      2                      3
                      A                      A                      A
 Frequencies --     46.2228                55.9034                77.4061
 Red. masses --      6.9700                 4.1189                 3.5070
 Frc consts  --      0.0088                 0.0076                 0.0124
 IR Inten    --      0.8152                 1.9826                 3.5087

                      4                      5                      6
                      A                      A                      A
 Frequencies --     88.9953               112.3011               151.7101
 Red. masses --      1.4699                 2.1508                 8.8805
 Frc consts  --      0.0069                 0.0160                 0.1204
 IR Inten    --      0.8298                 1.1019                 2.1654

                      7                      8                      9
                      A                      A                      A
 Frequencies --    160.7830               166.0287               194.2876
 Red. masses --      3.5620                 5.8074                51.4869
 Frc consts  --      0.0543                 0.0943                 1.1451
 IR Inten    --      1.0380                 0.5980                 0.0400

                     10                     11                     12
                      A                      A                      A
 Frequencies --    206.7031               213.0609               232.0788
 Red. masses --      1.2580                 1.2105                 3.8783
 Frc consts  --      0.0317                 0.0324                 0.1231
 IR Inten    --      0.4538                 0.0885                 2.2067

                     13                     14                     15
                      A                      A                      A
 Frequencies --    240.6190               261.0814               311.8901
 Red. masses --      3.7839                 2.5243                 5.7844
 Frc consts  --      0.1291                 0.1014                 0.3315
 IR Inten    --      0.0123                 1.0149                 0.2399

                     16                     17                     18
                      A                      A                      A
 Frequencies --    341.8005               363.9273               430.7285
 Red. masses --      9.0222                 4.4706                 3.2866
 Frc consts  --      0.6210                 0.3489                 0.3593
 IR Inten    --      0.0002                 1.2056                 0.6475

                     19                     20                     21
                      A                      A                      A
 Frequencies --    431.3820               450.6815               498.8096
 Red. masses --      5.2179                 6.2710                 7.0585
 Frc consts  --      0.5721                 0.7505                 1.0347
 IR Inten    --      0.0397                19.4101                 6.8405

                     22                     23                     24
                      A                      A                      A
 Frequencies --    534.4747               581.3859               695.0324
 Red. masses --      3.8533                 7.2501                 7.1524
 Frc consts  --      0.6485                 1.4439                 2.0357
 IR Inten    --      2.6213                 0.1299                90.7534

                     25                     26                     27
                      A                      A                      A
 Frequencies --    709.1902               713.8400               758.0436
 Red. masses --      8.2782                 4.7268                 9.5354
 Frc consts  --      2.4531                 1.4191                 3.2283
 IR Inten    --      7.6543                16.3394                 0.8096

                     28                     29                     30
                      A                      A                      A
 Frequencies --    803.8359               872.2561               923.1006
 Red. masses --      7.3064                 3.3352                 3.0521
 Frc consts  --      2.7816                 1.4951                 1.5323
 IR Inten    --     15.1607                36.5784                 7.0215

                     31                     32                     33
                      A                      A                      A
 Frequencies --    934.8858               962.5045              1027.2998
 Red. masses --      1.2084                 1.4470                 2.0893
 Frc consts  --      0.6222                 0.7898                 1.2991
 IR Inten    --      0.6722                 0.2165                90.4455

                     34                     35                     36
                      A                      A                      A
 Frequencies --   1046.4988              1056.3595              1116.2570
 Red. masses --      1.4452                 4.0529                 1.9981
 Frc consts  --      0.9325                 2.6646                 1.4669
 IR Inten    --      0.1010                19.7103                38.7980

                     37                     38                     39
                      A                      A                      A
 Frequencies --   1123.2162              1133.7009              1178.1992
 Red. masses --      2.6500                 7.9484                 3.0997
 Frc consts  --      1.9698                 6.0190                 2.5352
 IR Inten    --      3.6952                23.7349                52.5136

                     40                     41                     42
                      A                      A                      A
 Frequencies --   1205.9223              1320.0659              1384.0411
 Red. masses --      2.2052                 4.0293                 1.2029
 Frc consts  --      1.8895                 4.1369                 1.3576
 IR Inten    --     28.6186                 1.9746                 3.3607

                     43                     44                     45
                      A                      A                      A
 Frequencies --   1385.9457              1390.9284              1393.8297
 Red. masses --      1.4269                 1.2482                 1.4701
 Frc consts  --      1.6148                 1.4228                 1.6827
 IR Inten    --     31.0299                 6.7774                 3.7746

                     46                     47                     48
                      A                      A                      A
 Frequencies --   1408.6908              1476.3393              1484.9910
 Red. masses --      1.2824                 1.1435                 1.0397
 Frc consts  --      1.4994                 1.4684                 1.3508
 IR Inten    --      5.4357                17.9720                 0.2558

                     49                     50                     51
                      A                      A                      A
 Frequencies --   1495.1336              1495.3198              1499.0623
 Red. masses --      1.2070                 1.0485                 1.0507
 Frc consts  --      1.5898                 1.3813                 1.3911
 IR Inten    --     19.0118                 7.8600                 0.3721

                     52                     53                     54
                      A                      A                      A
 Frequencies --   1502.9274              1514.4811              1529.0698
 Red. masses --      2.9690                 1.0958                 8.2204
 Frc consts  --      3.9513                 1.4809                11.3239
 IR Inten    --     26.4123                20.7939               340.5765

                     55                     56                     57
                      A                      A                      A
 Frequencies --   1535.0724              1605.1755              3004.4782
 Red. masses --      8.8521                10.4340                 1.0428
 Frc consts  --     12.2901                15.8397                 5.5462
 IR Inten    --      0.0184                 0.2021                38.8928

                     58                     59                     60
                      A                      A                      A
 Frequencies --   3010.1658              3016.2879              3058.2815
 Red. masses --      1.0427                 1.0385                 1.0995
 Frc consts  --      5.5668                 5.5670                 6.0591
 IR Inten    --    137.4280                45.6127                25.5895

                     61                     62                     63
                      A                      A                      A
 Frequencies --   3059.2354              3065.5464              3069.5965
 Red. masses --      1.0843                 1.0939                 1.0946
 Frc consts  --      5.9789                 6.0568                 6.0769
 IR Inten    --      3.3519                31.2728                68.2225

                     64                     65                     66
                      A                      A                      A
 Frequencies --   3103.2648              3109.8446              3125.2801
 Red. masses --      1.0993                 1.0967                 1.0975
 Frc consts  --      6.2377                 6.2491                 6.3161
 IR Inten    --      1.4577                25.7914                 6.4085

 - Thermochemistry -
 -------------------
 Temperature   298.150 Kelvin.  Pressure   1.00000 Atm.
 Atom     1 has atomic number  6 and mass  12.00000

 Molecular mass:   319.90475 amu.
 Principal axes and moments of inertia in atomic units:
                           1         2         3
     Eigenvalues --  2648.414457656.224169894.62418
           X           -0.58489   0.77313  -0.24531
           Y            0.71611   0.63423   0.29145
           Z           -0.38091   0.00520   0.92460
 This molecule is an asymmetric top.
 Rotational symmetry number  1.
 Warning -- assumption of classical behavior for rotation
           may cause significant error
 Rotational temperatures (Kelvin)      0.03270     0.01131     0.00875
 Rotational constants (GHZ):           0.68144     0.23572     0.18240
 Zero-point vibrational energy     457305.2 (Joules/Mol)
                                  109.29857 (Kcal/Mol)
 Warning -- explicit consideration of  23 degrees of freedom as
           vibrations may cause significant error
 Vibrational temperatures:     66.50    80.43   111.37   128.04   161.58
          (Kelvin)            218.28   231.33   238.88   279.54   297.40
                              306.55   333.91   346.20   375.64   448.74
                              491.77   523.61   619.72   620.66   648.43
                              717.68   768.99   836.48  1000.00  1020.37
                             1027.06  1090.66  1156.54  1254.98  1328.14
                             1345.09  1384.83  1478.06  1505.68  1519.87
                             1606.04  1616.06  1631.14  1695.17  1735.05
                             1899.28  1991.33  1994.07  2001.24  2005.41
                             2026.79  2124.12  2136.57  2151.16  2151.43
                             2156.82  2162.38  2179.00  2199.99  2208.63
                             2309.49  4322.77  4330.96  4339.77  4400.18
                             4401.56  4410.64  4416.46  4464.91  4474.37
                             4496.58

 Zero-point correction=                           0.174178 (Hartree/Particle)
 Thermal correction to Energy=                    0.189479
 Thermal correction to Enthalpy=                  0.190423
 Thermal correction to Gibbs Free Energy=         0.129421
 Sum of electronic and zero-point Energies=          -5685.862836
 Sum of electronic and thermal Energies=             -5685.847536
 Sum of electronic and thermal Enthalpies=           -5685.846591
 Sum of electronic and thermal Free Energies=        -5685.907593

                     E (Thermal)             CV                S
                      KCal/Mol        Cal/Mol-Kelvin    Cal/Mol-Kelvin
 Total                  118.900             54.018            128.389
 Electronic               0.000              0.000              1.377
 Translational            0.889              2.981             43.184
 Rotational               0.889              2.981             33.661
 Vibrational            117.122             48.056             50.166
 Vibration     1          0.595              1.979              4.973
 Vibration     2          0.596              1.975              4.597
 Vibration     3          0.599              1.964              3.956
 Vibration     4          0.602              1.957              3.682
 Vibration     5          0.607              1.939              3.229
 Vibration     6          0.619              1.901              2.651
 Vibration     7          0.622              1.890              2.541
 Vibration     8          0.624              1.884              2.480
 Vibration     9          0.635              1.848              2.187
 Vibration    10          0.641              1.830              2.073
 Vibration    11          0.644              1.821              2.017
 Vibration    12          0.653              1.792              1.863
 Vibration    13          0.658              1.778              1.798
 Vibration    14          0.669              1.744              1.655
 Vibration    15          0.700              1.651              1.352
 Vibration    16          0.721              1.592              1.204
 Vibration    17          0.737              1.547              1.105
 Vibration    18          0.792              1.403              0.856
 Vibration    19          0.792              1.402              0.854
 Vibration    20          0.809              1.359              0.794
 Vibration    21          0.854              1.253              0.661
 Vibration    22          0.889              1.174              0.577
 Vibration    23          0.938              1.072              0.483

 Optimization completed.
    -- Stationary point found.
 Normal termination of Gaussian 16 at Sat Jan  6 06:34:33 2024.
