 Q-Chem 5.4, Q-Chem, Inc., Pleasanton, CA (2021)
 Q-Chem 5.4.0 for Intel X86 EM64T Linux

User input:
--------------------------------------------------------------
$molecule
0 1
C                  2.4581160000     -4.7919990000      2.0547570000
C                  2.4724640000     -3.9176210000      0.8524100000
C                  2.1099880000     -2.6257130000      0.8064320000
C                  1.6471230000     -2.0179820000      2.1005710000
C                  1.6502640000     -2.8891970000      3.3095270000
C                  2.0035300000     -4.1808550000      3.3441030000
O                  2.8007800000     -5.9535540000      1.9941880000
O                  1.2707900000     -0.8679310000      2.1773970000
C                  2.0005700000     -5.0668490000      4.5476250000
C                  2.1390810000     -1.7790770000     -0.4495320000
C                  0.7250800000     -1.3170690000     -0.8602740000
C                  3.1223800000     -0.5971210000     -0.3192750000
N                  2.9422550000     -4.6166740000     -0.3701860000
N                  1.2132570000     -2.1954590000      4.5447820000
H                  1.6330710000     -4.5552960000      5.4352070000
H                  3.0114730000     -5.4376940000      4.7365830000
H                  1.3772970000     -5.9444310000      4.3585840000
H                  2.5125770000     -2.4194500000     -1.2523250000
H                  0.7838930000     -0.8117730000     -1.8274350000
H                  0.3060180000     -0.6202930000     -0.1344290000
H                  0.0459290000     -2.1662290000     -0.9684150000
H                  3.1952540000     -0.0880020000     -1.2834490000
H                  4.1232770000     -0.9414640000     -0.0477480000
H                  2.7841060000      0.1244440000      0.4243630000
O                  4.1394420000     -4.5825870000     -0.5920650000
O                  2.0912570000     -5.1673070000     -1.0455900000
O                  0.0559720000     -2.3588400000      4.8902810000
O                  2.0543750000     -1.5211890000      5.1109550000
$end
$rem
MAX_SCF_CYCLES=200
BASIS  =  6-311++G(d,p)
GUI  =  2
JOB_TYPE  =  SP
METHOD  =  B3LYP
SOLVENT_METHOD = PCM
$end
$pcm
theory = CPCM
$end
$solvent
dielectric 37.219
opticaldielectric 1.43
$end

--------------------------------------------------------------

             Standard Nuclear Orientation (Angstroms)
    I     Atom           X                Y                Z
 ----------------------------------------------------------------
    1      C       2.4581160000    -4.7919990000     2.0547570000
    2      C       2.4724640000    -3.9176210000     0.8524100000
    3      C       2.1099880000    -2.6257130000     0.8064320000
    4      C       1.6471230000    -2.0179820000     2.1005710000
    5      C       1.6502640000    -2.8891970000     3.3095270000
    6      C       2.0035300000    -4.1808550000     3.3441030000
    7      O       2.8007800000    -5.9535540000     1.9941880000
    8      O       1.2707900000    -0.8679310000     2.1773970000
    9      C       2.0005700000    -5.0668490000     4.5476250000
   10      C       2.1390810000    -1.7790770000    -0.4495320000
   11      C       0.7250800000    -1.3170690000    -0.8602740000
   12      C       3.1223800000    -0.5971210000    -0.3192750000
   13      N       2.9422550000    -4.6166740000    -0.3701860000
   14      N       1.2132570000    -2.1954590000     4.5447820000
   15      H       1.6330710000    -4.5552960000     5.4352070000
   16      H       3.0114730000    -5.4376940000     4.7365830000
   17      H       1.3772970000    -5.9444310000     4.3585840000
   18      H       2.5125770000    -2.4194500000    -1.2523250000
   19      H       0.7838930000    -0.8117730000    -1.8274350000
   20      H       0.3060180000    -0.6202930000    -0.1344290000
   21      H       0.0459290000    -2.1662290000    -0.9684150000
   22      H       3.1952540000    -0.0880020000    -1.2834490000
   23      H       4.1232770000    -0.9414640000    -0.0477480000
   24      H       2.7841060000     0.1244440000     0.4243630000
   25      O       4.1394420000    -4.5825870000    -0.5920650000
   26      O       2.0912570000    -5.1673070000    -1.0455900000
   27      O       0.0559720000    -2.3588400000     4.8902810000
   28      O       2.0543750000    -1.5211890000     5.1109550000
 ----------------------------------------------------------------

    9    -947.9842930389      5.74e-06  Convergence criterion met
 Total energy in the final basis set =     -947.9842930389

                    Orbital Energies (a.u.)
 --------------------------------------------------------------

 Alpha MOs
 -- Occupied --
-19.2025 -19.2023 -19.2022 -19.2017 -19.1718 -19.1708 -14.5912 -14.5909
-10.3249 -10.3238 -10.2800 -10.2791 -10.2590 -10.2564 -10.2096 -10.1939
-10.1676 -10.1676  -1.2796  -1.2791  -1.1086  -1.1082  -1.1076  -1.1060
 -0.9214  -0.8856  -0.8191  -0.7970  -0.7715  -0.7222  -0.6956  -0.6808
 -0.6532  -0.6227  -0.6141  -0.5979  -0.5941  -0.5679  -0.5605  -0.5595
 -0.5577  -0.5315  -0.4972  -0.4929  -0.4902  -0.4711  -0.4578  -0.4494
 -0.4430  -0.4338  -0.4223  -0.4173  -0.3922  -0.3749  -0.3676  -0.3629
 -0.3621  -0.3585  -0.3573  -0.3570  -0.3557  -0.3525  -0.3223  -0.3207
 -0.3050  -0.3040

          Ground-State Mulliken Net Atomic Charges

     Atom                 Charge (a.u.)
  ----------------------------------------
      1 C                    -0.444357
      2 C                    -0.227741
      3 C                     1.376738
      4 C                    -0.428104
      5 C                    -0.305810
      6 C                     0.813571
      7 O                    -0.211634
      8 O                    -0.188827
      9 C                    -0.511186
     10 C                    -0.217870
     11 C                    -0.670599
     12 C                    -0.677477
     13 N                    -0.209654
     14 N                    -0.214977
     15 H                     0.194743
     16 H                     0.233251
     17 H                     0.230633
     18 H                     0.239782
     19 H                     0.182396
     20 H                     0.197966
     21 H                     0.162093
     22 H                     0.182707
     23 H                     0.162387
     24 H                     0.196822
     25 O                     0.034836
     26 O                     0.035608
     27 O                     0.031404
     28 O                     0.033299
  ----------------------------------------
  Sum of atomic charges =     0.000000

                    Cartesian Multipole Moments
 -----------------------------------------------------------------
    Charge (ESU x 10^10)
                 0.0000
    Dipole Moment (Debye)
         X      -0.0257      Y       0.2923      Z      -0.3393
       Tot       0.4485
    Quadrupole Moments (Debye-Ang)
        XX    -111.8377     XY       8.6429     YY    -120.2153
        XZ       7.7949     YZ     -23.6625     ZZ    -113.5169

 Total job time:  68.10s(wall), 356.13s(cpu)
        *  Thank you very much for using Q-Chem.  Have a nice day.  *
