 Gaussian 16, Revision A.03,
 Gaussian 16:  ES64L-G16RevA.03 25-Dec-2016

 ----------------------------------------------------------------
 #P UB3LYP/6-311++G(d,p) SCRF=(PCM,Solvent=n,n-DiMethylFormamide)
 ----------------------------------------------------------------

 ------------------
 Radical PCM in DMF
 ------------------
 Symbolic Z-matrix:
 Charge = -1 Multiplicity = 2

                         Standard orientation:
 ---------------------------------------------------------------------
 Center     Atomic      Atomic             Coordinates (Angstroms)
 Number     Number       Type             X           Y           Z
 ---------------------------------------------------------------------
      1          6           0       -0.037285    1.782483   -0.022949
      2          6           0        1.004480    0.773313   -0.014124
      3          6           0        0.837910   -0.585437    0.006962
      4          6           0       -0.529782   -1.107249    0.015663
      5          6           0       -1.573464   -0.097274   -0.008803
      6          6           0       -1.397518    1.259584   -0.016253
      7          8           0        0.215214    3.009995   -0.039983
      8          8           0       -0.791362   -2.331492    0.069763
      9          6           0       -2.521042    2.258062   -0.020845
     10          6           0        2.008521   -1.557170    0.027166
     11          6           0        2.042726   -2.385905    1.326704
     12          6           0        2.024620   -2.461171   -1.221250
     13          7           0        2.379965    1.334731   -0.024441
     14          7           0       -2.954605   -0.627317   -0.013933
     15          1           0       -3.425880    1.860540   -0.484219
     16          1           0       -2.200653    3.156451   -0.549766
     17          1           0       -2.774194    2.557399    1.002052
     18          1           0        2.929013   -0.967466    0.002872
     19          1           0        2.933486   -3.023886    1.338371
     20          1           0        1.156594   -3.016821    1.402823
     21          1           0        2.083977   -1.732641    2.202639
     22          1           0        2.914187   -3.100696   -1.206651
     23          1           0        2.055508   -1.860847   -2.134698
     24          1           0        1.136792   -3.093732   -1.249241
     25          8           0        2.908380    1.523329   -1.111822
     26          8           0        2.906067    1.569819    1.054720
     27          8           0       -3.616145   -0.510804    1.013183
     28          8           0       -3.364821   -1.136548   -1.047011
 ---------------------------------------------------------------------

 SCF Done:  E(UB3LYP) =  -948.154360710     A.U. after   27 cycles

 The electronic state is 2-A.
 Alpha  occ. eigenvalues --  -19.18110 -19.18104 -19.17889 -19.17780 -19.10249
 Alpha  occ. eigenvalues --  -19.10037 -14.56693 -14.56462 -10.25462 -10.25325
 Alpha  occ. eigenvalues --  -10.23391 -10.23205 -10.20942 -10.20711 -10.18983
 Alpha  occ. eigenvalues --  -10.17401 -10.15664 -10.15660  -1.25476  -1.25173
 Alpha  occ. eigenvalues --   -1.08108  -1.07786  -1.03197  -1.02893  -0.88201
 Alpha  occ. eigenvalues --   -0.84812  -0.79734  -0.76728  -0.74273  -0.69311
 Alpha  occ. eigenvalues --   -0.68423  -0.64942  -0.62075  -0.59782  -0.58021
 Alpha  occ. eigenvalues --   -0.57105  -0.56541  -0.53956  -0.53838  -0.53352
 Alpha  occ. eigenvalues --   -0.52678  -0.49466  -0.45323  -0.45176  -0.44819
 Alpha  occ. eigenvalues --   -0.43444  -0.42950  -0.42363  -0.40567  -0.40322
 Alpha  occ. eigenvalues --   -0.39915  -0.39256  -0.37884  -0.35532  -0.34806
 Alpha  occ. eigenvalues --   -0.34236  -0.33979  -0.33746  -0.33417  -0.33342
 Alpha  occ. eigenvalues --   -0.33116  -0.32998  -0.29708  -0.27153  -0.27002
 Alpha  occ. eigenvalues --   -0.26097  -0.18596
 Alpha virt. eigenvalues --   -0.09688  -0.09509  -0.03155  -0.00436   0.00227
 Alpha virt. eigenvalues --    0.00591   0.02039   0.02109   0.02835   0.03741
 Alpha virt. eigenvalues --    0.03897   0.04653   0.05140   0.05361   0.05923

  Beta  occ. eigenvalues --  -19.18105 -19.18099 -19.17879 -19.17768 -19.09545
  Beta  occ. eigenvalues --  -19.09338 -14.56698 -14.56465 -10.25352 -10.25198
  Beta  occ. eigenvalues --  -10.23328 -10.23131 -10.20773 -10.20544 -10.18992
  Beta  occ. eigenvalues --  -10.17412 -10.15654 -10.15651  -1.25470  -1.25158
  Beta  occ. eigenvalues --   -1.08099  -1.07763  -1.02016  -1.01678  -0.87692
  Beta  occ. eigenvalues --   -0.84630  -0.79577  -0.76384  -0.73942  -0.68890
  Beta  occ. eigenvalues --   -0.68391  -0.64569  -0.61853  -0.59683  -0.57879
  Beta  occ. eigenvalues --   -0.57007  -0.56476  -0.53925  -0.53783  -0.53164
  Beta  occ. eigenvalues --   -0.52410  -0.49334  -0.45009  -0.44570  -0.44126
  Beta  occ. eigenvalues --   -0.42944  -0.42570  -0.41808  -0.40075  -0.39794
  Beta  occ. eigenvalues --   -0.39264  -0.38374  -0.36903  -0.35394  -0.34653
  Beta  occ. eigenvalues --   -0.34177  -0.33962  -0.33688  -0.33283  -0.33030
  Beta  occ. eigenvalues --   -0.32973  -0.32438  -0.26978  -0.26504  -0.26343
  Beta  occ. eigenvalues --   -0.25487
  Beta virt. eigenvalues --   -0.11451  -0.09619  -0.09385  -0.01653  -0.00405
  Beta virt. eigenvalues --    0.00585   0.01646   0.02126   0.02859   0.02976
  Beta virt. eigenvalues --    0.03761   0.04010   0.04676   0.05177   0.05404

 Mulliken charges and spin densities:
               1          2
     1  C   -0.679333   0.080117
     2  C    0.058470   0.048852
     3  C    1.141632   0.116683
     4  C   -0.847049   0.091915
     5  C   -1.299817   0.022968
     6  C    1.821846   0.121625
     7  O   -0.402635   0.261767
     8  O   -0.365048   0.257798
     9  C   -0.376728  -0.003644
    10  C   -0.064249  -0.021458
    11  C   -0.631549   0.009521
    12  C   -0.648441   0.010923
    13  N   -0.255055  -0.011585
    14  N   -0.265065  -0.006210
    15  H    0.192124   0.001772
    16  H    0.184736   0.001414
    17  H    0.213927   0.007413
    18  H    0.201232  -0.000705
    19  H    0.156233   0.000541
    20  H    0.189681  -0.001081
    21  H    0.141193   0.000338
    22  H    0.156632   0.000623
    23  H    0.142444   0.000181
    24  H    0.187567  -0.001066
    25  O    0.009125   0.002269
    26  O    0.010208   0.002297
    27  O    0.005744   0.003138
    28  O    0.022175   0.003596
 Sum of Mulliken charges =  -1.00000   1.00000

 Dipole moment (field-independent basis, Debye):
    X=              1.5146    Y=             -1.9346    Z=              0.0206  Tot=              2.4570
 Quadrupole moment (field-independent basis, Debye-Ang):
   XX=           -140.6479   YY=           -139.3659   ZZ=           -113.8318
   XY=            -26.1992   XZ=              0.8740   YZ=             -0.7213

 Normal termination of Gaussian 16 at Sun Jan 21 07:20:38 2024.
