 Q-Chem 5.4, Q-Chem, Inc., Pleasanton, CA (2021)
 Q-Chem 5.4.0 for Intel X86 EM64T Linux

User input:
--------------------------------------------------------------
$molecule
0 1
Br                -2.3132430000      2.1146500000      0.8005650000
C                 -1.0057420000      0.8238420000      0.3372390000
C                 -1.3499900000     -0.4873660000      0.2662460000
Br                -3.0865620000     -1.1501930000      0.6044860000
C                 -0.3484000000     -1.5174910000     -0.0942990000
O                 -0.5933640000     -2.6930980000     -0.1733670000
C                  1.1050700000     -1.0311370000     -0.3856920000
O                  1.9405970000     -1.8451710000     -0.6815870000
C                  1.3694640000      0.4224940000     -0.2783140000
C                  0.3790580000      1.2870980000      0.0602240000
Br                 0.7526550000      3.1405100000      0.1886050000
Br                 3.1504580000      0.9358630000     -0.6441060000
$end
$rem
MAX_SCF_CYCLES=200
BASIS  =  6-311++G(d,p)
GUI  =  2
JOB_TYPE  =  SP
METHOD  =  B3LYP
SOLVENT_METHOD = COSMO
$end
$solvent
dielectric 37.219
opticaldielectric 1.43
$end

--------------------------------------------------------------

             Standard Nuclear Orientation (Angstroms)
    I     Atom           X                Y                Z
 ----------------------------------------------------------------
    1      Br     -1.6456790873    -2.0278057542     0.0008220707
    2      C      -0.7431586460    -0.3617110952     0.0000601157
    3      C      -1.4591777574     0.7916013850    -0.0001965023
    4      Br     -3.3468107598     0.8707832528    -0.0005439723
    5      C      -0.7796421673     2.1078703900    -0.0000265889
    6      O      -1.3594011328     3.1624748026    -0.0000844672
    7      C       0.7804939672     2.1076179860     0.0005325938
    8      O       1.3605666138     3.1620495770     0.0010952047
    9      C       1.4596953929     0.7911216389     0.0002199203
   10      C       0.7431167024    -0.3619468872    -0.0000110791
   11      Br      1.6447025529    -2.0287807246    -0.0006059258
   12      Br      3.3472933285     0.8702742106    -0.0000023629
 ----------------------------------------------------------------

    9  -10675.6850059869      5.31e-06  Convergence criterion met
 Total energy in the final basis set =   -10675.6850059869
    5  -10675.6987916534      4.84e-06  Convergence criterion met
 Total energy in the final basis set =   -10675.6987916534

                    Orbital Energies (a.u.)
 --------------------------------------------------------------

 Alpha MOs
 -- Occupied --
********-482.8660-482.8587-482.8587 -62.5187 -62.5187 -62.5114 -62.5114
-56.3395 -56.3395 -56.3355 -56.3355 -56.3349 -56.3348 -56.3321 -56.3321
-56.3281 -56.3281 -56.3276 -56.3276 -19.1692 -19.1692 -10.3144 -10.3142
-10.3013 -10.3010 -10.2761 -10.2761  -8.7275  -8.7275  -8.7202  -8.7202
 -6.5597  -6.5597  -6.5524  -6.5524  -6.5463  -6.5463  -6.5446  -6.5446
 -6.5389  -6.5388  -6.5375  -6.5375  -2.6704  -2.6704  -2.6671  -2.6671
 -2.6658  -2.6658  -2.6631  -2.6631  -2.6595  -2.6595  -2.6585  -2.6585
 -2.6550  -2.6550  -2.6549  -2.6549  -2.6478  -2.6478  -2.6477  -2.6477
 -1.1177  -1.0907  -0.9332  -0.8781  -0.8420  -0.8191  -0.8055  -0.7438
 -0.7218  -0.6256  -0.6252  -0.5711  -0.5163  -0.4986  -0.4892  -0.4749
 -0.4567  -0.4398  -0.4312  -0.4239  -0.4235  -0.3704  -0.3503  -0.3469
 -0.3382  -0.3312  -0.3271  -0.3114  -0.3037  -0.2946  -0.2860  -0.2636

          Ground-State Mulliken Net Atomic Charges

     Atom                 Charge (a.u.)
  ----------------------------------------
      1 Br                   -0.127205
      2 C                    -0.445236
      3 C                     1.190996
      4 Br                   -0.064538
      5 C                    -0.342060
      6 O                    -0.212980
      7 C                    -0.340837
      8 O                    -0.212972
      9 C                     1.191606
     10 C                    -0.445187
     11 Br                   -0.127138
     12 Br                   -0.064450
  ----------------------------------------
  Sum of atomic charges =     0.000000

                    Cartesian Multipole Moments
 -----------------------------------------------------------------
    Charge (ESU x 10^10)
                 0.0000
    Dipole Moment (Debye)
         X      -0.0014      Y      -6.2706      Z      -0.0017
       Tot       6.2706
    Quadrupole Moments (Debye-Ang)
        XX    -115.3762     XY       0.0037     YY    -135.4647
        XZ      -0.0013     YZ      -0.0056     ZZ    -115.6252

 Total job time:  29.50s(wall), 209.57s(cpu)
        *  Thank you very much for using Q-Chem.  Have a nice day.  *
