 Q-Chem 5.4, Q-Chem, Inc., Pleasanton, CA (2021)
 Q-Chem 5.4.0 for Intel X86 EM64T Linux

User input:
--------------------------------------------------------------
$molecule
0 1
C                 -2.8954240000     -1.9247480000     -0.1389350000
C                 -2.4074730000     -0.4995730000     -0.0504700000
C                 -3.3675080000      0.5144310000      0.0506580000
C                 -3.0209390000      1.8590730000      0.1370600000
C                 -1.6836820000      2.2279590000      0.1241260000
C                 -0.6959060000      1.2481710000      0.0247730000
C                  0.7255780000      1.7156620000      0.0165470000
O                  0.9983500000      2.9032400000      0.0932700000
C                  1.7926970000      0.6870310000     -0.0892060000
C                  3.1336720000      1.0852340000     -0.1006850000
C                  4.1408590000      0.1338410000     -0.1988200000
C                  3.8151470000     -1.2231820000     -0.2861920000
C                  2.4849790000     -1.6247800000     -0.2752700000
C                  1.4637970000     -0.6736090000     -0.1768270000
C                  0.0425700000     -1.1432120000     -0.1681560000
O                 -0.1957500000     -2.3393800000     -0.2459220000
C                 -1.0411590000     -0.1214080000     -0.0633470000
H                 -3.9868270000     -1.9428070000     -0.1094240000
H                 -2.5091610000     -2.5347990000      0.6796310000
H                 -2.5581110000     -2.4103390000     -1.0564090000
H                 -4.4153130000      0.2342420000      0.0612760000
H                 -3.7953110000      2.6140140000      0.2140950000
H                 -1.3780780000      3.2642440000      0.1895100000
H                  3.3592000000      2.1421560000     -0.0316520000
H                  5.1796400000      0.4438900000     -0.2075790000
H                  4.6021020000     -1.9649730000     -0.3627170000
H                  2.2120490000     -2.6703780000     -0.3419590000
$end
$rem
MAX_SCF_CYCLES=200
BASIS  =  6-311++G(d,p)
GUI  =  2
JOB_TYPE  =  SP
METHOD  =  B3LYP
SOLVENT_METHOD = PCM
$end
$pcm
theory = CPCM
$end
$solvent
dielectric 37.219
opticaldielectric 1.43
$end

--------------------------------------------------------------

             Standard Nuclear Orientation (Angstroms)
    I     Atom           X                Y                Z
 ----------------------------------------------------------------
    1      C      -2.8954240000    -1.9247480000    -0.1389350000
    2      C      -2.4074730000    -0.4995730000    -0.0504700000
    3      C      -3.3675080000     0.5144310000     0.0506580000
    4      C      -3.0209390000     1.8590730000     0.1370600000
    5      C      -1.6836820000     2.2279590000     0.1241260000
    6      C      -0.6959060000     1.2481710000     0.0247730000
    7      C       0.7255780000     1.7156620000     0.0165470000
    8      O       0.9983500000     2.9032400000     0.0932700000
    9      C       1.7926970000     0.6870310000    -0.0892060000
   10      C       3.1336720000     1.0852340000    -0.1006850000
   11      C       4.1408590000     0.1338410000    -0.1988200000
   12      C       3.8151470000    -1.2231820000    -0.2861920000
   13      C       2.4849790000    -1.6247800000    -0.2752700000
   14      C       1.4637970000    -0.6736090000    -0.1768270000
   15      C       0.0425700000    -1.1432120000    -0.1681560000
   16      O      -0.1957500000    -2.3393800000    -0.2459220000
   17      C      -1.0411590000    -0.1214080000    -0.0633470000
   18      H      -3.9868270000    -1.9428070000    -0.1094240000
   19      H      -2.5091610000    -2.5347990000     0.6796310000
   20      H      -2.5581110000    -2.4103390000    -1.0564090000
   21      H      -4.4153130000     0.2342420000     0.0612760000
   22      H      -3.7953110000     2.6140140000     0.2140950000
   23      H      -1.3780780000     3.2642440000     0.1895100000
   24      H       3.3592000000     2.1421560000    -0.0316520000
   25      H       5.1796400000     0.4438900000    -0.2075790000
   26      H       4.6021020000    -1.9649730000    -0.3627170000
   27      H       2.2120490000    -2.6703780000    -0.3419590000
 ----------------------------------------------------------------

    9    -728.2894157498      1.70e-06  Convergence criterion met
 Total energy in the final basis set =     -728.2894157498

                    Orbital Energies (a.u.)
 --------------------------------------------------------------

 Alpha MOs
 -- Occupied --
-19.1299 -19.1274 -10.2817 -10.2815 -10.2101 -10.2085 -10.2066 -10.2063
-10.2053 -10.1959 -10.1955 -10.1950 -10.1944 -10.1940 -10.1917 -10.1908
-10.1658  -1.0657  -1.0632  -0.8920  -0.8807  -0.8107  -0.7930  -0.7761
 -0.7671  -0.7088  -0.6809  -0.6587  -0.6412  -0.6050  -0.5748  -0.5587
 -0.5500  -0.5030  -0.4889  -0.4849  -0.4813  -0.4588  -0.4567  -0.4488
 -0.4449  -0.4383  -0.4262  -0.4262  -0.4107  -0.3955  -0.3839  -0.3816
 -0.3721  -0.3700  -0.3649  -0.3617  -0.2880  -0.2853  -0.2769  -0.2741
 -0.2708  -0.2670

          Ground-State Mulliken Net Atomic Charges

     Atom                 Charge (a.u.)
  ----------------------------------------
      1 C                    -0.537983
      2 C                     0.809675
      3 C                    -0.442208
      4 C                    -0.320680
      5 C                     0.043542
      6 C                     0.414728
      7 C                    -0.596993
      8 O                    -0.286931
      9 C                     0.057537
     10 C                     0.105088
     11 C                    -0.452112
     12 C                    -0.454090
     13 C                     0.206140
     14 C                    -0.007203
     15 C                    -0.802786
     16 O                    -0.256481
     17 C                     0.558526
     18 H                     0.174702
     19 H                     0.178694
     20 H                     0.178875
     21 H                     0.168019
     22 H                     0.238071
     23 H                     0.185564
     24 H                     0.194616
     25 H                     0.221405
     26 H                     0.223529
     27 H                     0.198756
  ----------------------------------------
  Sum of atomic charges =     0.000000

                    Cartesian Multipole Moments
 -----------------------------------------------------------------
    Charge (ESU x 10^10)
                 0.0000
    Dipole Moment (Debye)
         X      -0.5874      Y      -0.7012      Z      -0.0364
       Tot       0.9154
    Quadrupole Moments (Debye-Ang)
        XX     -67.6208     XY      -8.6225     YY    -108.7618
        XZ      -1.5458     YZ      -0.2385     ZZ    -100.9011

 Total job time:  52.20s(wall), 353.37s(cpu)
        *  Thank you very much for using Q-Chem.  Have a nice day.  *
