 Gaussian 16, Revision A.03,
 Gaussian 16:  ES64L-G16RevA.03 25-Dec-2016

 --------------------------------------
 #P UB3LYP/6-311++G(d,p) nosym opt freq
 --------------------------------------

 --------
 Oxidized
 --------
 Symbolic Z-matrix:
 Charge =  0 Multiplicity = 1

 SCF Done:  E(UB3LYP) =  -728.277435316     A.U. after   15 cycles
 SCF Done:  E(UB3LYP) =  -728.277433569     A.U. after   10 cycles
 SCF Done:  E(UB3LYP) =  -728.277435537     A.U. after    9 cycles
 Optimization completed.
    -- Stationary point found.
 Normal termination of Gaussian 16 at Wed Dec 27 20:00:02 2023.

 ----------------------------------------------------------------------
 #P Geom=AllCheck Guess=TCheck SCRF=Check GenChk UB3LYP/6-311++G(d,p) F
 req
 ----------------------------------------------------------------------

 Structure from the checkpoint file:  "123.chk"
 --------
 Oxidized
 --------
 Charge =  0 Multiplicity = 1

                          Input orientation:
 ---------------------------------------------------------------------
 Center     Atomic      Atomic             Coordinates (Angstroms)
 Number     Number       Type             X           Y           Z
 ---------------------------------------------------------------------
      1          6           0       -2.895424   -1.924748   -0.138935
      2          6           0       -2.407473   -0.499573   -0.050470
      3          6           0       -3.367508    0.514431    0.050658
      4          6           0       -3.020939    1.859073    0.137060
      5          6           0       -1.683682    2.227959    0.124126
      6          6           0       -0.695906    1.248171    0.024773
      7          6           0        0.725578    1.715662    0.016547
      8          8           0        0.998350    2.903240    0.093270
      9          6           0        1.792697    0.687031   -0.089206
     10          6           0        3.133672    1.085234   -0.100685
     11          6           0        4.140859    0.133841   -0.198820
     12          6           0        3.815147   -1.223182   -0.286192
     13          6           0        2.484979   -1.624780   -0.275270
     14          6           0        1.463797   -0.673609   -0.176827
     15          6           0        0.042570   -1.143212   -0.168156
     16          8           0       -0.195750   -2.339380   -0.245922
     17          6           0       -1.041159   -0.121408   -0.063347
     18          1           0       -3.986827   -1.942807   -0.109424
     19          1           0       -2.509161   -2.534799    0.679631
     20          1           0       -2.558111   -2.410339   -1.056409
     21          1           0       -4.415313    0.234242    0.061276
     22          1           0       -3.795311    2.614014    0.214095
     23          1           0       -1.378078    3.264244    0.189510
     24          1           0        3.359200    2.142156   -0.031652
     25          1           0        5.179640    0.443890   -0.207579
     26          1           0        4.602102   -1.964973   -0.362717
     27          1           0        2.212049   -2.670378   -0.341959
 ---------------------------------------------------------------------

 SCF Done:  E(UB3LYP) =  -728.277435537     A.U. after    1 cycles

 Alpha  occ. eigenvalues --  -19.12409 -19.12382 -10.27835 -10.27649 -10.21292
 Alpha  occ. eigenvalues --  -10.20985 -10.20752 -10.20723 -10.20616 -10.20119
 Alpha  occ. eigenvalues --  -10.20062 -10.19946 -10.19771 -10.19708 -10.19645
 Alpha  occ. eigenvalues --  -10.19392 -10.17099  -1.05995  -1.05786  -0.89356
 Alpha  occ. eigenvalues --   -0.88323  -0.81325  -0.79583  -0.77793  -0.77047
 Alpha  occ. eigenvalues --   -0.71134  -0.68272  -0.66194  -0.64411  -0.60812
 Alpha  occ. eigenvalues --   -0.57621  -0.56167  -0.55149  -0.50191  -0.49303
 Alpha  occ. eigenvalues --   -0.48880  -0.48585  -0.45561  -0.45166  -0.45087
 Alpha  occ. eigenvalues --   -0.44501  -0.43956  -0.42860  -0.42555  -0.40908
 Alpha  occ. eigenvalues --   -0.40159  -0.38930  -0.38352  -0.37566  -0.37406
 Alpha  occ. eigenvalues --   -0.36463  -0.36430  -0.28779  -0.27929  -0.27804
 Alpha  occ. eigenvalues --   -0.27701  -0.26847  -0.26694
 Alpha virt. eigenvalues --   -0.11408  -0.07140  -0.03820  -0.02638  -0.00992
 Alpha virt. eigenvalues --   -0.00560   0.00664   0.01387   0.01557   0.03167
 Alpha virt. eigenvalues --    0.03401   0.03490   0.03761   0.03798   0.03989

  Beta  occ. eigenvalues --  -19.12409 -19.12382 -10.27835 -10.27649 -10.21292
  Beta  occ. eigenvalues --  -10.20985 -10.20752 -10.20723 -10.20616 -10.20119
  Beta  occ. eigenvalues --  -10.20062 -10.19946 -10.19771 -10.19708 -10.19645
  Beta  occ. eigenvalues --  -10.19392 -10.17099  -1.05995  -1.05786  -0.89356
  Beta  occ. eigenvalues --   -0.88323  -0.81325  -0.79583  -0.77793  -0.77047
  Beta  occ. eigenvalues --   -0.71134  -0.68272  -0.66194  -0.64411  -0.60812
  Beta  occ. eigenvalues --   -0.57621  -0.56167  -0.55149  -0.50191  -0.49303
  Beta  occ. eigenvalues --   -0.48880  -0.48585  -0.45561  -0.45166  -0.45087
  Beta  occ. eigenvalues --   -0.44501  -0.43956  -0.42860  -0.42555  -0.40908
  Beta  occ. eigenvalues --   -0.40159  -0.38930  -0.38352  -0.37566  -0.37406
  Beta  occ. eigenvalues --   -0.36463  -0.36430  -0.28779  -0.27929  -0.27804
  Beta  occ. eigenvalues --   -0.27701  -0.26847  -0.26694
  Beta virt. eigenvalues --   -0.11408  -0.07140  -0.03820  -0.02638  -0.00992
  Beta virt. eigenvalues --   -0.00560   0.00664   0.01387   0.01557   0.03167
  Beta virt. eigenvalues --    0.03401   0.03490   0.03761   0.03798   0.03989

 Mulliken charges and spin densities:
               1          2
     1  C   -0.484692  -0.000000
     2  C    0.771903   0.000000
     3  C   -0.396439   0.000000
     4  C   -0.252837  -0.000000
     5  C    0.042370  -0.000000
     6  C    0.430476   0.000000
     7  C   -0.729620  -0.000000
     8  O   -0.209037   0.000000
     9  C    0.096886  -0.000000
    10  C    0.085829  -0.000000
    11  C   -0.365360  -0.000000
    12  C   -0.393458  -0.000000
    13  C    0.193623   0.000000
    14  C    0.037723  -0.000000
    15  C   -0.877251  -0.000000
    16  O   -0.191328   0.000000
    17  C    0.536944   0.000000
    18  H    0.145336   0.000000
    19  H    0.177026  -0.000000
    20  H    0.176904  -0.000000
    21  H    0.115268   0.000000
    22  H    0.192145  -0.000000
    23  H    0.176171  -0.000000
    24  H    0.182435  -0.000000
    25  H    0.174915   0.000000
    26  H    0.176607  -0.000000
    27  H    0.187463  -0.000000
 Sum of Mulliken charges =  -0.00000  -0.00000

 Dipole moment (field-independent basis, Debye):
    X=             -0.3474    Y=             -0.5144    Z=             -0.0287  Tot=              0.6213
 Quadrupole moment (field-independent basis, Debye-Ang):
   XX=            -75.8098   YY=           -106.2365   ZZ=           -100.8197
   XY=             -6.4688   XZ=             -1.1739   YZ=             -0.1449

  Exact polarizability: 256.254  -7.489 202.257  -5.501   8.377  89.153
 Approx polarizability: 374.082   0.301 382.759  -6.800  17.098 145.129

                      1                      2                      3
                      A                      A                      A
 Frequencies --     31.8868                65.5605               112.2320
 Red. masses --      6.9038                 4.2100                 4.7003
 Frc consts  --      0.0041                 0.0107                 0.0349
 IR Inten    --      6.0960                 0.0723                 0.0322

                      4                      5                      6
                      A                      A                      A
 Frequencies --    156.5773               198.6567               214.5811
 Red. masses --      6.6889                 2.7417                 4.4292
 Frc consts  --      0.0966                 0.0637                 0.1202
 IR Inten    --      0.6553                 1.0907                 0.9630

                      7                      8                      9
                      A                      A                      A
 Frequencies --    232.2088               244.2098               309.9504
 Red. masses --      1.2060                 3.9227                 5.5348
 Frc consts  --      0.0383                 0.1378                 0.3133
 IR Inten    --      0.2435                 0.4203                 0.2558

                     10                     11                     12
                      A                      A                      A
 Frequencies --    344.8827               380.6727               404.4764
 Red. masses --      6.0116                 6.2634                12.3761
 Frc consts  --      0.4213                 0.5348                 1.1929
 IR Inten    --      0.0315                 0.1812                26.0686

                     13                     14                     15
                      A                      A                      A
 Frequencies --    424.6605               431.4033               439.5233
 Red. masses --      3.3067                 5.0848                 4.4390
 Frc consts  --      0.3513                 0.5576                 0.5052
 IR Inten    --      0.0087                 0.0074                 0.2499

                     16                     17                     18
                      A                      A                      A
 Frequencies --    480.5467               494.3989               515.9985
 Red. masses --      9.7810                 3.8071                 3.7108
 Frc consts  --      1.3308                 0.5483                 0.5821
 IR Inten    --      0.2691                 0.7296                 4.3520

                     19                     20                     21
                      A                      A                      A
 Frequencies --    552.0243               624.3362               667.0609
 Red. masses --      5.3249                 6.4763                 6.5422
 Frc consts  --      0.9560                 1.4873                 1.7152
 IR Inten    --      1.7537                 2.6875                 6.9533

                     22                     23                     24
                      A                      A                      A
 Frequencies --    668.1361               702.5214               728.1425
 Red. masses --      4.4120                 7.1690                 2.5073
 Frc consts  --      1.1604                 2.0846                 0.7832
 IR Inten    --      1.4623                 0.2155                61.4200

                     25                     26                     27
                      A                      A                      A
 Frequencies --    740.6537               791.2917               792.1281
 Red. masses --      2.9825                 6.1872                 1.4200
 Frc consts  --      0.9640                 2.2825                 0.5250
 IR Inten    --     27.4168                 3.1291                 0.5084

                     28                     29                     30
                      A                      A                      A
 Frequencies --    814.0396               832.1802               866.3303
 Red. masses --      3.9267                 2.0192                 6.1344
 Frc consts  --      1.5331                 0.8239                 2.7126
 IR Inten    --      3.3055                27.0866                27.3306

                     31                     32                     33
                      A                      A                      A
 Frequencies --    916.3113               929.1085               947.9487
 Red. masses --      1.3907                 6.2007                 1.3492
 Frc consts  --      0.6880                 3.1537                 0.7143
 IR Inten    --      0.0001                10.1915                 0.6561

                     34                     35                     36
                      A                      A                      A
 Frequencies --    986.0527              1003.3137              1015.4767
 Red. masses --      2.8280                 1.3773                 1.3466
 Frc consts  --      1.6201                 0.8168                 0.8181
 IR Inten    --     46.8827                 1.7110                 0.6075

                     37                     38                     39
                      A                      A                      A
 Frequencies --   1018.5643              1042.5539              1057.8540
 Red. masses --      1.3266                 2.1073                 1.5659
 Frc consts  --      0.8109                 1.3495                 1.0324
 IR Inten    --      0.0023                16.9267                 2.5167

                     40                     41                     42
                      A                      A                      A
 Frequencies --   1058.9266              1111.4867              1114.2722
 Red. masses --      2.0986                 2.1899                 2.0671
 Frc consts  --      1.3865                 1.5940                 1.5122
 IR Inten    --      0.8419                 0.8048                 1.0108

                     43                     44                     45
                      A                      A                      A
 Frequencies --   1176.3157              1184.2145              1194.1331
 Red. masses --      1.6848                 1.3574                 1.2910
 Frc consts  --      1.3736                 1.1215                 1.0847
 IR Inten    --      5.1626                12.6820                 0.4617

                     46                     47                     48
                      A                      A                      A
 Frequencies --   1207.3478              1251.9257              1270.4677
 Red. masses --      2.2335                 2.8170                 1.8912
 Frc consts  --      1.9182                 2.6014                 1.7985
 IR Inten    --      5.7793                16.9238                28.2084

                     49                     50                     51
                      A                      A                      A
 Frequencies --   1290.2956              1323.6381              1344.7801
 Red. masses --      3.6630                 2.8647                 6.9607
 Frc consts  --      3.5931                 2.9572                 7.4166
 IR Inten    --    456.9415                88.6260                99.4752

                     52                     53                     54
                      A                      A                      A
 Frequencies --   1360.6219              1420.3282              1450.5856
 Red. masses --      7.5460                 1.2245                 2.4665
 Frc consts  --      8.2308                 1.4555                 3.0578
 IR Inten    --      1.1568                 8.9309                28.8685

                     55                     56                     57
                      A                      A                      A
 Frequencies --   1475.2367              1478.7988              1486.1786
 Red. masses --      1.0443                 2.2293                 1.8902
 Frc consts  --      1.3391                 2.8724                 2.4598
 IR Inten    --      8.0702                 1.3645                 1.5479

                     58                     59                     60
                      A                      A                      A
 Frequencies --   1495.6484              1508.1520              1604.2090
 Red. masses --      1.5358                 2.5426                 6.1363
 Frc consts  --      2.0242                 3.4073                 9.3042
 IR Inten    --      3.1410                 3.3230                21.3775

                     61                     62                     63
                      A                      A                      A
 Frequencies --   1616.0312              1624.1314              1629.8319
 Red. masses --      6.3834                 6.3887                 5.7300
 Frc consts  --      9.8221                 9.9290                 8.9679
 IR Inten    --     30.3387                50.0442                36.1969

                     64                     65                     66
                      A                      A                      A
 Frequencies --   1711.3895              1723.1569              3041.2602
 Red. masses --     11.9976                12.0140                 1.0358
 Frc consts  --     20.7034                21.0178                 5.6444
 IR Inten    --     35.7052               298.5859                20.5962

                     67                     68                     69
                      A                      A                      A
 Frequencies --   3102.5829              3109.5436              3164.2978
 Red. masses --      1.0990                 1.1031                 1.0875
 Frc consts  --      6.2328                 6.2843                 6.4154
 IR Inten    --      6.5922                25.8947                 7.6086

                     70                     71                     72
                      A                      A                      A
 Frequencies --   3169.6274              3181.4813              3184.2388
 Red. masses --      1.0870                 1.0932                 1.0920
 Frc consts  --      6.4344                 6.5194                 6.5238
 IR Inten    --      3.4761                17.6126                11.0331

                     73                     74                     75
                      A                      A                      A
 Frequencies --   3201.0848              3204.0148              3205.7096
 Red. masses --      1.0927                 1.0942                 1.0934
 Frc consts  --      6.5973                 6.6182                 6.6202
 IR Inten    --      1.6892                11.5357                 3.6395

 - Thermochemistry -
 -------------------
 Temperature   298.150 Kelvin.  Pressure   1.00000 Atm.
 Atom     1 has atomic number  6 and mass  12.00000

 Molecular mass:   222.06808 amu.
 Principal axes and moments of inertia in atomic units:
                           1         2         3
     Eigenvalues --  2013.310624492.580226494.97915
           X            0.99627   0.08110   0.02946
           Y           -0.07883   0.99432  -0.07144
           Z           -0.03509   0.06886   0.99701
 This molecule is an asymmetric top.
 Rotational symmetry number  1.
 Warning -- assumption of classical behavior for rotation
           may cause significant error
 Rotational temperatures (Kelvin)      0.04302     0.01928     0.01334
 Rotational constants (GHZ):           0.89640     0.40172     0.27787
 Zero-point vibrational energy     543430.0 (Joules/Mol)
                                  129.88289 (Kcal/Mol)
 Warning -- explicit consideration of  19 degrees of freedom as
           vibrations may cause significant error
 Vibrational temperatures:     45.88    94.33   161.48   225.28   285.82
          (Kelvin)            308.73   334.10   351.36   445.95   496.21
                              547.70   581.95   610.99   620.69   632.38
                              691.40   711.33   742.41   794.24   898.28
                              959.75   961.30  1010.77  1047.63  1065.64
                             1138.49  1139.70  1171.22  1197.32  1246.46
                             1318.37  1336.78  1363.89  1418.71  1443.54
                             1461.04  1465.49  1500.00  1522.02  1523.56
                             1599.18  1603.19  1692.46  1703.82  1718.09
                             1737.10  1801.24  1827.92  1856.45  1904.42
                             1934.84  1957.63  2043.54  2087.07  2122.54
                             2127.66  2138.28  2151.90  2169.89  2308.10
                             2325.11  2336.76  2344.96  2462.31  2479.24
                             4375.70  4463.92  4473.94  4552.72  4560.39
                             4577.44  4581.41  4605.65  4609.86  4612.30

 Zero-point correction=                           0.206982 (Hartree/Particle)
 Thermal correction to Energy=                    0.219751
 Thermal correction to Enthalpy=                  0.220695
 Thermal correction to Gibbs Free Energy=         0.167376
 Sum of electronic and zero-point Energies=           -728.070454
 Sum of electronic and thermal Energies=              -728.057685
 Sum of electronic and thermal Enthalpies=            -728.056741
 Sum of electronic and thermal Free Energies=         -728.110060

                     E (Thermal)             CV                S
                      KCal/Mol        Cal/Mol-Kelvin    Cal/Mol-Kelvin
 Total                  137.896             51.450            112.220
 Electronic               0.000              0.000              0.000
 Translational            0.889              2.981             42.096
 Rotational               0.889              2.981             32.441
 Vibrational            136.118             45.489             37.683
 Vibration     1          0.594              1.983              5.708
 Vibration     2          0.597              1.971              4.282
 Vibration     3          0.607              1.939              3.230
 Vibration     4          0.620              1.895              2.591
 Vibration     5          0.637              1.842              2.146
 Vibration     6          0.645              1.819              2.004
 Vibration     7          0.653              1.792              1.862
 Vibration     8          0.660              1.772              1.772
 Vibration     9          0.699              1.655              1.363
 Vibration    10          0.723              1.586              1.189
 Vibration    11          0.750              1.511              1.036
 Vibration    12          0.770              1.460              0.946
 Vibration    13          0.787              1.417              0.876
 Vibration    14          0.792              1.402              0.854
 Vibration    15          0.800              1.384              0.828
 Vibration    16          0.837              1.293              0.709
 Vibration    17          0.850              1.262              0.672
 Vibration    18          0.871              1.215              0.619
 Vibration    19          0.907              1.135              0.540

                           ! Non-Optimized Parameters !
 Normal termination of Gaussian 16 at Wed Dec 27 20:59:46 2023.
