 Gaussian 16, Revision A.03,
 Gaussian 16:  ES64L-G16RevA.03 25-Dec-2016

 ----------------------------------------------------------------
 #P UB3LYP/6-311++G(d,p) SCRF=(PCM,Solvent=n,n-DiMethylFormamide)
 ----------------------------------------------------------------

 ------------------
 Quinone PCM in DMF
 ------------------
 Symbolic Z-matrix:
 Charge =  0 Multiplicity = 1

                         Standard orientation:
 ---------------------------------------------------------------------
 Center     Atomic      Atomic             Coordinates (Angstroms)
 Number     Number       Type             X           Y           Z
 ---------------------------------------------------------------------
      1          6           0        1.435938    2.224462    0.002650
      2          6           0        0.667649    3.490609    0.007614
      3          6           0       -0.667156    3.490752   -0.007504
      4          6           0       -1.435738    2.224763   -0.002729
      5          6           0       -0.681352    0.922778    0.012984
      6          6           0        0.681264    0.922636   -0.012941
      7          8           0        2.655307    2.259906   -0.003740
      8          8           0       -2.655101    2.260467    0.003419
      9          1           0       -1.259836    4.398798   -0.014379
     10          6           0        2.526849   -0.564662    0.826551
     11          6           0        1.299615   -1.225916   -1.141452
     12          6           0        3.296423   -1.720594    0.731988
     13          6           0        3.078510   -2.626652   -0.304557
     14          6           0        2.081784   -2.372012   -1.245176
     15          1           0        1.260515    4.398530    0.014531
     16          1           0        2.716080    0.140833    1.625665
     17          1           0        0.524621   -1.035697   -1.874180
     18          1           0        4.073806   -1.908148    1.464022
     19          1           0        3.685143   -3.521881   -0.382194
     20          1           0        1.911760   -3.065956   -2.060565
     21          6           0       -1.508225   -0.310055    0.101489
     22          6           0       -2.526900   -0.564589   -0.826627
     23          6           0       -1.299996   -1.225545    1.141685
     24          6           0       -3.296326   -1.720627   -0.732135
     25          6           0       -2.082082   -2.371702    1.245387
     26          6           0       -3.078541   -2.626561    0.304550
     27          1           0       -2.716028    0.140811   -1.625847
     28          1           0       -0.525135   -1.035200    1.874515
     29          1           0       -4.073521   -1.908361   -1.464325
     30          1           0       -1.912147   -3.065547    2.060877
     31          1           0       -3.685055   -3.521876    0.382106
     32          6           0        1.507975   -0.310301   -0.101386
 ---------------------------------------------------------------------

 SCF Done:  E(UB3LYP) =  -843.789675450     A.U. after   15 cycles

 The electronic state is 1-A.
 Alpha  occ. eigenvalues --  -19.14451 -19.14450 -10.29079 -10.29078 -10.22573
 Alpha  occ. eigenvalues --  -10.22504 -10.21417 -10.21332 -10.20123 -10.20123
 Alpha  occ. eigenvalues --  -10.18697 -10.18696 -10.18642 -10.18642 -10.18494
 Alpha  occ. eigenvalues --  -10.18494 -10.18373 -10.18373 -10.18359 -10.18358
 Alpha  occ. eigenvalues --   -1.07729  -1.07546  -0.89021  -0.87077  -0.85791
 Alpha  occ. eigenvalues --   -0.81556  -0.77665  -0.75951  -0.75920  -0.74212
 Alpha  occ. eigenvalues --   -0.70704  -0.65814  -0.63417  -0.61826  -0.61806
 Alpha  occ. eigenvalues --   -0.59368  -0.58843  -0.53581  -0.53047  -0.52953
 Alpha  occ. eigenvalues --   -0.50605  -0.48543  -0.47534  -0.47286  -0.46530
 Alpha  occ. eigenvalues --   -0.46363  -0.44701  -0.44617  -0.44134  -0.43408
 Alpha  occ. eigenvalues --   -0.43180  -0.43149  -0.42114  -0.41482  -0.38530
 Alpha  occ. eigenvalues --   -0.37996  -0.36475  -0.36345  -0.35918  -0.35677
 Alpha  occ. eigenvalues --   -0.31595  -0.30945  -0.29837  -0.28268  -0.27642
 Alpha  occ. eigenvalues --   -0.26651  -0.26526  -0.24730
 Alpha virt. eigenvalues --   -0.13821  -0.05479  -0.03224  -0.02577  -0.01932
 Alpha virt. eigenvalues --   -0.00817  -0.00729  -0.00089   0.00374   0.00416
 Alpha virt. eigenvalues --    0.01107   0.01880   0.02221   0.02368   0.03490

  Beta  occ. eigenvalues --  -19.14451 -19.14450 -10.29079 -10.29078 -10.22573
  Beta  occ. eigenvalues --  -10.22504 -10.21417 -10.21332 -10.20123 -10.20123
  Beta  occ. eigenvalues --  -10.18697 -10.18696 -10.18642 -10.18642 -10.18494
  Beta  occ. eigenvalues --  -10.18494 -10.18373 -10.18373 -10.18359 -10.18358
  Beta  occ. eigenvalues --   -1.07729  -1.07546  -0.89021  -0.87077  -0.85791
  Beta  occ. eigenvalues --   -0.81556  -0.77665  -0.75951  -0.75920  -0.74212
  Beta  occ. eigenvalues --   -0.70704  -0.65814  -0.63417  -0.61826  -0.61806
  Beta  occ. eigenvalues --   -0.59368  -0.58843  -0.53581  -0.53047  -0.52953
  Beta  occ. eigenvalues --   -0.50605  -0.48543  -0.47534  -0.47286  -0.46530
  Beta  occ. eigenvalues --   -0.46363  -0.44701  -0.44617  -0.44134  -0.43408
  Beta  occ. eigenvalues --   -0.43180  -0.43149  -0.42114  -0.41482  -0.38530
  Beta  occ. eigenvalues --   -0.37996  -0.36475  -0.36345  -0.35918  -0.35677
  Beta  occ. eigenvalues --   -0.31595  -0.30945  -0.29837  -0.28268  -0.27642
  Beta  occ. eigenvalues --   -0.26651  -0.26526  -0.24730
  Beta virt. eigenvalues --   -0.13821  -0.05479  -0.03224  -0.02577  -0.01932
  Beta virt. eigenvalues --   -0.00817  -0.00729  -0.00089   0.00374   0.00416
  Beta virt. eigenvalues --    0.01107   0.01880   0.02221   0.02368   0.03490

 Mulliken charges and spin densities:
               1          2
     1  C   -0.646016  -0.000000
     2  C   -0.067178   0.000000
     3  C   -0.067005  -0.000000
     4  C   -0.646186   0.000000
     5  C   -0.034173   0.000000
     6  C   -0.033704   0.000000
     7  O   -0.244111  -0.000000
     8  O   -0.244140  -0.000000
     9  H    0.244597  -0.000000
    10  C   -0.190563  -0.000000
    11  C   -0.479389   0.000000
    12  C   -0.307042  -0.000000
    13  C   -0.337513   0.000000
    14  C   -0.480626   0.000000
    15  H    0.244599   0.000000
    16  H    0.226485  -0.000000
    17  H    0.210864   0.000000
    18  H    0.203148   0.000000
    19  H    0.188673  -0.000000
    20  H    0.201839  -0.000000
    21  C    1.510857  -0.000000
    22  C   -0.190463  -0.000000
    23  C   -0.479447  -0.000000
    24  C   -0.307115   0.000000
    25  C   -0.480626   0.000000
    26  C   -0.337491   0.000000
    27  H    0.226494  -0.000000
    28  H    0.210865   0.000000
    29  H    0.203150  -0.000000
    30  H    0.201833  -0.000000
    31  H    0.188679  -0.000000
    32  C    1.510707  -0.000000
 Sum of Mulliken charges =  -0.00000   0.00000

 Dipole moment (field-independent basis, Debye):
    X=              0.0005    Y=             -1.3183    Z=              0.0005  Tot=              1.3183
 Quadrupole moment (field-independent basis, Debye-Ang):
   XX=           -129.6796   YY=            -99.8512   ZZ=           -109.4474
   XY=              0.0044   XZ=              6.8257   YZ=              0.0024

 Normal termination of Gaussian 16 at Wed Jan 24 22:55:20 2024.
