 Q-Chem 5.4, Q-Chem, Inc., Pleasanton, CA (2021)
 Q-Chem 5.4.0 for Intel X86 EM64T Linux

User input:
--------------------------------------------------------------
$molecule
0 1
C                  5.8759420000     -5.5595980000      0.8757520000
C                  6.3867960000     -5.5414630000     -0.4179570000
C                  5.9619310000     -4.5688480000     -1.3269290000
C                  4.9358730000     -4.6029220000      1.2663520000
C                  4.5101710000     -3.6273920000      0.3555860000
C                  5.0265400000     -3.6136790000     -0.9425260000
C                  4.3859570000     -4.6225250000      2.6498820000
C                  3.3750860000     -3.5915020000      3.0405640000
C                  2.9776110000     -2.6310670000      2.1680390000
C                  3.5107990000     -2.6021060000      0.7680550000
O                  4.7486000000     -5.4627850000      3.4597240000
O                  3.1301950000     -1.7496830000     -0.0206540000
H                  7.1161450000     -6.2840090000     -0.7212210000
C                  1.9675370000     -1.5582610000      2.4895510000
H                  6.3622110000     -4.5578690000     -2.3343820000
C                  2.8751480000     -3.7231180000      4.4517110000
C                  0.5200780000     -1.9791080000      2.1569020000
C                 -0.4971310000     -0.8694770000      2.4421700000
C                 -1.9410350000     -1.2689840000      2.1172150000
C                 -2.9539770000     -0.1564740000      2.4030710000
H                  6.1908270000     -6.3040380000      1.5965330000
H                  4.6840290000     -2.8507930000     -1.6306020000
H                  2.2128740000     -0.6709470000      1.9023010000
H                  2.0346400000     -1.2806160000      3.5437930000
H                  2.5050800000     -4.7367650000      4.6245680000
H                  2.0825800000     -3.0150220000      4.6814830000
H                  3.6964110000     -3.5794930000      5.1603500000
H                  0.2594020000     -2.8749340000      2.7331230000
H                  0.4667770000     -2.2607990000      1.1000910000
H                 -0.2292790000      0.0226240000      1.8621750000
H                 -0.4323060000     -0.5775470000      3.4987810000
H                 -2.2074610000     -2.1626170000      2.6947420000
H                 -2.0049260000     -1.5587470000      1.0615630000
H                 -2.9384150000      0.1316200000      3.4590300000
H                 -3.9724060000     -0.4721700000      2.1604820000
H                 -2.7346160000      0.7390520000      1.8132440000
$end

$rem
BASIS  =  6-311++G(d,p)
GUI  =  2
JOB_TYPE  =  SP
METHOD  =  B3LYP
SCF_CONVERGENCE  = 8
SOLVENT_METHOD = sm12
$end

$smx
solvent dimethylformamide
charges CM5
$end

--------------------------------------------------------------

             Standard Nuclear Orientation (Angstroms)
    I     Atom           X                Y                Z
 ----------------------------------------------------------------
    1      C       5.8759420000    -5.5595980000     0.8757520000
    2      C       6.3867960000    -5.5414630000    -0.4179570000
    3      C       5.9619310000    -4.5688480000    -1.3269290000
    4      C       4.9358730000    -4.6029220000     1.2663520000
    5      C       4.5101710000    -3.6273920000     0.3555860000
    6      C       5.0265400000    -3.6136790000    -0.9425260000
    7      C       4.3859570000    -4.6225250000     2.6498820000
    8      C       3.3750860000    -3.5915020000     3.0405640000
    9      C       2.9776110000    -2.6310670000     2.1680390000
   10      C       3.5107990000    -2.6021060000     0.7680550000
   11      O       4.7486000000    -5.4627850000     3.4597240000
   12      O       3.1301950000    -1.7496830000    -0.0206540000
   13      H       7.1161450000    -6.2840090000    -0.7212210000
   14      C       1.9675370000    -1.5582610000     2.4895510000
   15      H       6.3622110000    -4.5578690000    -2.3343820000
   16      C       2.8751480000    -3.7231180000     4.4517110000
   17      C       0.5200780000    -1.9791080000     2.1569020000
   18      C      -0.4971310000    -0.8694770000     2.4421700000
   19      C      -1.9410350000    -1.2689840000     2.1172150000
   20      C      -2.9539770000    -0.1564740000     2.4030710000
   21      H       6.1908270000    -6.3040380000     1.5965330000
   22      H       4.6840290000    -2.8507930000    -1.6306020000
   23      H       2.2128740000    -0.6709470000     1.9023010000
   24      H       2.0346400000    -1.2806160000     3.5437930000
   25      H       2.5050800000    -4.7367650000     4.6245680000
   26      H       2.0825800000    -3.0150220000     4.6814830000
   27      H       3.6964110000    -3.5794930000     5.1603500000
   28      H       0.2594020000    -2.8749340000     2.7331230000
   29      H       0.4667770000    -2.2607990000     1.1000910000
   30      H      -0.2292790000     0.0226240000     1.8621750000
   31      H      -0.4323060000    -0.5775470000     3.4987810000
   32      H      -2.2074610000    -2.1626170000     2.6947420000
   33      H      -2.0049260000    -1.5587470000     1.0615630000
   34      H      -2.9384150000     0.1316200000     3.4590300000
   35      H      -3.9724060000    -0.4721700000     2.1604820000
   36      H      -2.7346160000     0.7390520000     1.8132440000
 ----------------------------------------------------------------

   15    -771.2140489037      3.74e-09  Convergence criterion met
 Total energy in the final basis set =     -771.2327703267

                    Orbital Energies (a.u.)
 --------------------------------------------------------------

 Alpha MOs
 -- Occupied --
-19.1288 -19.1284 -10.2775 -10.2767 -10.2116 -10.2091 -10.2048 -10.2042
-10.1960 -10.1957 -10.1953 -10.1951 -10.1755 -10.1708 -10.1704 -10.1657
-10.1650 -10.1573  -1.0628  -1.0609  -0.8877  -0.8515  -0.8070  -0.7854
 -0.7754  -0.7620  -0.7240  -0.6889  -0.6735  -0.6366  -0.6199  -0.5968
 -0.5813  -0.5803  -0.5486  -0.5167  -0.4965  -0.4818  -0.4708  -0.4595
 -0.4540  -0.4535  -0.4491  -0.4366  -0.4315  -0.4245  -0.4153  -0.4103
 -0.4055  -0.4003  -0.3925  -0.3835  -0.3745  -0.3695  -0.3661  -0.3625
 -0.3405  -0.3346  -0.3308  -0.3270  -0.2879  -0.2845  -0.2762  -0.2695
 -0.2684

          Ground-State Mulliken Net Atomic Charges

     Atom                 Charge (a.u.)
  ----------------------------------------
      1 C                     0.097482
      2 C                     0.227371
      3 C                     0.302661
      4 C                    -0.416354
      5 C                    -0.638492
      6 C                     0.075002
      7 C                    -1.157149
      8 C                     0.666351
      9 C                     1.297357
     10 C                    -1.640700
     11 O                    -0.276009
     12 O                    -0.262379
     13 H                     0.317809
     14 C                    -0.167613
     15 H                     0.315809
     16 C                     0.190874
     17 C                    -0.470402
     18 C                    -0.089056
     19 C                    -0.278632
     20 C                    -0.661735
     21 H                     0.187378
     22 H                     0.189131
     23 H                     0.175161
     24 H                     0.269657
     25 H                     0.172886
     26 H                     0.252760
     27 H                     0.197484
     28 H                     0.131202
     29 H                     0.112336
     30 H                     0.089350
     31 H                     0.108889
     32 H                     0.130534
     33 H                     0.120453
     34 H                     0.141916
     35 H                     0.148053
     36 H                     0.140616
  ----------------------------------------
  Sum of atomic charges =     0.000000

                    Cartesian Multipole Moments
 -----------------------------------------------------------------
    Charge (ESU x 10^10)
                -0.0000
    Dipole Moment (Debye)
         X       0.1682      Y      -0.2872      Z      -0.5436
       Tot       0.6374
    Quadrupole Moments (Debye-Ang)
        XX    -100.6447     XY      -4.4967     YY    -111.1108
        XZ     -13.5244     YZ      12.6588     ZZ    -105.8295

 Total job time:  995.98s(wall), 7827.81s(cpu)
        *  Thank you very much for using Q-Chem.  Have a nice day.  *
