 Q-Chem 5.4, Q-Chem, Inc., Pleasanton, CA (2021)
 Q-Chem 5.4.0 for Intel X86 EM64T Linux

User input:
--------------------------------------------------------------
$molecule
-1 2
C                 -2.8513680000      3.9619570000      0.4908780000
C                 -4.1315660000      3.4670770000      0.6250900000
C                 -4.3220160000      2.0745840000      0.5698810000
C                 -1.7423700000      3.1072860000      0.3062140000
C                 -1.9604300000      1.7002900000      0.2561460000
C                 -3.2759410000      1.2056790000      0.3938190000
C                 -0.4058550000      3.6888630000      0.1780050000
C                  0.6902000000      2.7361540000     -0.0042100000
C                  0.4721540000      1.3291670000     -0.0542790000
C                 -0.8643520000      0.7475740000      0.0739060000
C                  2.0057420000      3.2307930000     -0.1419040000
C                  3.0517540000      2.3618710000     -0.3179660000
C                  2.8613250000      0.9693650000     -0.3731500000
C                  1.5811560000      0.4744600000     -0.2389320000
O                 -0.2087990000      4.9280000000      0.2220860000
O                 -1.0614170000     -0.4915480000      0.0297880000
H                 -3.4310540000      0.1341820000      0.3660900000
H                  1.3886560000     -0.5913380000     -0.2736040000
H                 -2.6589170000      5.0277640000      0.5255670000
H                  2.1608080000      4.3022950000     -0.1141890000
H                  3.7085670000      0.3086230000     -0.5104420000
O                 -5.6044570000      1.5209910000      0.8053310000
O                  4.3343710000      2.9151920000     -0.5534490000
C                  5.3536210000      2.6766330000      0.3042790000
C                  6.5957150000      3.4003970000     -0.1647990000
O                  5.2837810000      1.9966830000      1.2957720000
H                 -4.9787470000      4.1278870000      0.7623610000
H                  6.4197620000      4.4788310000     -0.1452980000
H                  6.8262340000      3.1253400000     -1.1962820000
H                  7.4302830000      3.1507380000      0.4877310000
C                 -6.6245790000      1.7611610000     -0.0508900000
C                 -7.8661800000      1.0365520000      0.4181560000
O                 -6.5558020000      2.4429790000     -1.0411770000
H                 -7.6904180000     -0.0418650000      0.3959600000
H                 -8.7015250000      1.2877930000     -0.2327730000
H                 -8.0953560000      1.3092800000      1.4505510000
$end
$rem
MAX_SCF_CYCLES=200
BASIS  =  6-311++G(d,p)
GUI  =  2
JOB_TYPE  =  SP
METHOD  =  B3LYP
SOLVENT_METHOD = COSMO
$end
$solvent
dielectric 37.219
opticaldielectric 1.43
$end

--------------------------------------------------------------

             Standard Nuclear Orientation (Angstroms)
    I     Atom           X                Y                Z
 ----------------------------------------------------------------
    1      C       2.1023231492    -1.8928631338     0.2853659189
    2      C       3.4141449699    -1.4860151628     0.4095602575
    3      C       3.6946728213    -0.1079652624     0.3842899590
    4      C       1.0490787535    -0.9633613870     0.1399608955
    5      C       1.3581844845     0.4272277287     0.1197057604
    6      C       2.7052746409     0.8314183633     0.2467535029
    7      C      -0.3245277876    -1.4531715037     0.0206595133
    8      C      -1.3583887209    -0.4267758065    -0.1201834890
    9      C      -1.0492975639     0.9638052691    -0.1404396001
   10      C       0.3243006780     1.4536325304    -0.0211616740
   11      C      -2.7055119670    -0.8309918290    -0.2472523626
   12      C      -3.6948461753     0.1084046467    -0.3847894840
   13      C      -3.4143380385     1.4864682633    -0.4100341271
   14      C      -2.1025434193     1.8933429153    -0.2858327034
   15      O      -0.6017562990    -2.6775318634     0.0385695264
   16      O       0.6015366155     2.6779782598    -0.0391091812
   17      H       2.9299084068     1.8908762307     0.2419099945
   18      H      -1.8410883963     2.9448501378    -0.2983868464
   19      H       1.8409166860    -2.9443829525     0.2979360083
   20      H      -2.9300993832    -1.8904574012    -0.2424237655
   21      H      -4.2184160111     2.2042656057    -0.5171493906
   22      O       5.0141425947     0.3547888748     0.6110386221
   23      O      -5.0144742107    -0.3540658554    -0.6115616688
   24      C      -6.0025560489    -0.0709466075     0.2687882921
   25      C      -7.2965305982    -0.7002786050    -0.1962247243
   26      O      -5.8730058758     0.5781362418     1.2748579738
   27      H       4.2181572965    -2.2038758391     0.5166539472
   28      H      -7.1914327199    -1.7880423723    -0.2053932528
   29      H      -7.5243526247    -0.3852103086    -1.2168037926
   30      H      -8.1027797691    -0.4130279896     0.4761428256
   31      C       6.0030119451     0.0699682153    -0.2678581434
   32      C       7.2965495625     0.7001760987     0.1971513751
   33      O       5.8744183565    -0.5810773904    -1.2727848629
   34      H       7.1915996617     1.7879774652     0.2036224077
   35      H       8.1034948108     0.4112568590    -0.4736667160
   36      H       7.5231984806     0.3874960286     1.2187203050
 ----------------------------------------------------------------

   10   -1144.9154713818      9.52e-06  Convergence criterion met
 Total energy in the final basis set =    -1144.9154713818
    4   -1145.0060792961      8.49e-06  Convergence criterion met
 Total energy in the final basis set =    -1145.0060792961

                    Orbital Energies (a.u.)
 --------------------------------------------------------------

 Alpha MOs
 -- Occupied --
-19.1862 -19.1862 -19.1290 -19.1289 -19.0849 -19.0849 -10.3201 -10.3201
-10.2439 -10.2439 -10.2330 -10.2330 -10.1835 -10.1835 -10.1834 -10.1834
-10.1806 -10.1806 -10.1800 -10.1800 -10.1799 -10.1798 -10.1764 -10.1764
 -1.1256  -1.1256  -1.0446  -1.0446  -1.0133  -1.0109  -0.8740  -0.8650
 -0.8035  -0.7789  -0.7692  -0.7621  -0.7471  -0.7340  -0.6836  -0.6637
 -0.6466  -0.6228  -0.6030  -0.5826  -0.5593  -0.5433  -0.5154  -0.5059
 -0.5032  -0.5001  -0.4942  -0.4897  -0.4802  -0.4754  -0.4609  -0.4468
 -0.4389  -0.4335  -0.4320  -0.4304  -0.4234  -0.4184  -0.4176  -0.4134
 -0.4063  -0.3929  -0.3900  -0.3884  -0.3882  -0.3731  -0.3690  -0.3676
 -0.3514  -0.3473  -0.3319  -0.3299  -0.2996  -0.2994  -0.2744  -0.2657
 -0.2647  -0.2566  -0.2521  -0.2471  -0.1501

 Beta MOs
 -- Occupied --
-19.1862 -19.1862 -19.1290 -19.1290 -19.0794 -19.0794 -10.3201 -10.3201
-10.2434 -10.2434 -10.2312 -10.2312 -10.1829 -10.1829 -10.1826 -10.1826
-10.1802 -10.1802 -10.1798 -10.1798 -10.1796 -10.1796 -10.1764 -10.1764
 -1.1255  -1.1255  -1.0446  -1.0445  -1.0037  -1.0010  -0.8715  -0.8639
 -0.8000  -0.7780  -0.7678  -0.7597  -0.7464  -0.7327  -0.6773  -0.6624
 -0.6450  -0.6208  -0.6021  -0.5812  -0.5563  -0.5416  -0.5147  -0.5057
 -0.5025  -0.4997  -0.4935  -0.4892  -0.4776  -0.4746  -0.4603  -0.4458
 -0.4383  -0.4329  -0.4283  -0.4228  -0.4196  -0.4177  -0.4125  -0.4114
 -0.4054  -0.3917  -0.3880  -0.3879  -0.3707  -0.3681  -0.3667  -0.3659
 -0.3497  -0.3413  -0.3313  -0.3239  -0.2995  -0.2992  -0.2634  -0.2555
 -0.2534  -0.2515  -0.2467  -0.2420

          Ground-State Mulliken Net Atomic Charges

     Atom                 Charge (a.u.)    Spin (a.u.)
  --------------------------------------------------------
      1 C                     0.136465       0.028086
      2 C                     0.133154       0.037506
      3 C                    -0.767843       0.035207
      4 C                     0.254334       0.029851
      5 C                     0.434299       0.048971
      6 C                    -0.016373       0.021200
      7 C                    -0.670726       0.101501
      8 C                     0.434932       0.048996
      9 C                     0.254534       0.029798
     10 C                    -0.669889       0.101605
     11 C                    -0.015247       0.021163
     12 C                    -0.769412       0.035247
     13 C                     0.134004       0.037496
     14 C                     0.136479       0.028086
     15 O                    -0.471234       0.202324
     16 O                    -0.471530       0.202294
     17 H                     0.206858      -0.001520
     18 H                     0.193468      -0.001129
     19 H                     0.193429      -0.001131
     20 H                     0.206742      -0.001520
     21 H                     0.241214      -0.003152
     22 O                    -0.032595       0.000791
     23 O                    -0.032310       0.000792
     24 C                     0.173247       0.000222
     25 C                    -0.568277       0.000703
     26 O                    -0.330980      -0.000679
     27 H                     0.241231      -0.003152
     28 H                     0.201334       0.000054
     29 H                     0.200250       0.000071
     30 H                     0.182265      -0.000032
     31 C                     0.173971       0.000225
     32 C                    -0.568742       0.000703
     33 O                    -0.331202      -0.000673
     34 H                     0.201415       0.000054
     35 H                     0.182347      -0.000032
     36 H                     0.200377       0.000072
  --------------------------------------------------------
  Sum of atomic charges =    -1.000008

                    Cartesian Multipole Moments
 -----------------------------------------------------------------
    Charge (ESU x 10^10)
                -4.8032
    Dipole Moment (Debye)
         X      -0.0016      Y       0.0026      Z      -0.0011
       Tot       0.0033
    Quadrupole Moments (Debye-Ang)
        XX    -126.3416     XY       8.2963     YY    -167.6894
        XZ      27.7235     YZ      -5.7641     ZZ    -151.9616

 Total job time:  148.34s(wall), 1095.33s(cpu)
        *  Thank you very much for using Q-Chem.  Have a nice day.  *
