 Gaussian 16, Revision A.03,
 Gaussian 16:  ES64L-G16RevA.03 25-Dec-2016

 ----------------------------------------------------------------
 #P UB3LYP/6-311++G(d,p) SCRF=(PCM,Solvent=n,n-DiMethylFormamide)
 ----------------------------------------------------------------

 -------
 Reduced
 -------
 Symbolic Z-matrix:
 Charge = -2 Multiplicity = 1

                         Standard orientation:
 ---------------------------------------------------------------------
 Center     Atomic      Atomic             Coordinates (Angstroms)
 Number     Number       Type             X           Y           Z
 ---------------------------------------------------------------------
      1          8           0        2.616050   -2.375742   -0.024252
      2          6           0        2.512427   -0.989466   -0.008217
      3          6           0        3.672942   -0.245907   -0.002315
      4          6           0        3.633108    1.179452    0.010665
      5          6           0        2.409995    1.804663    0.007491
      6          6           0        1.190249    1.082712   -0.000719
      7          6           0       -0.041628    1.840830   -0.001606
      8          8           0       -0.053736    3.120282   -0.000954
      9          6           0       -1.268988    1.059440   -0.002272
     10          6           0       -2.513945    1.745443   -0.005145
     11          6           0       -3.698591    1.038108   -0.004658
     12          6           0       -3.709297   -0.372215   -0.001034
     13          6           0       -2.517457   -1.123231    0.002324
     14          8           0       -2.526528   -2.426478    0.004773
     15          6           0       -1.245759   -0.376760    0.001951
     16          6           0       -0.011294   -1.089141    0.004118
     17          8           0       -0.032775   -2.458623    0.013613
     18          6           0        1.206821   -0.382085   -0.002504
     19          1           0        3.555890   -2.567680    0.057801
     20          1           0        4.631442   -0.768158   -0.015028
     21          1           0        4.560101    1.748196    0.017307
     22          1           0        2.319759    2.885686    0.012759
     23          1           0       -2.483720    2.828506   -0.007760
     24          1           0       -4.648738    1.574793   -0.007128
     25          1           0       -4.644863   -0.927184   -0.001182
     26          1           0       -1.025445   -2.680725    0.009303
 ---------------------------------------------------------------------

 SCF Done:  E(UB3LYP) =  -839.705244951     A.U. after   16 cycles

 The electronic state is 1-A.
 Alpha  occ. eigenvalues --  -19.13804 -19.09014 -19.04872 -19.02730 -10.22133
 Alpha  occ. eigenvalues --  -10.19812 -10.19292 -10.18419 -10.15784 -10.15288
 Alpha  occ. eigenvalues --  -10.15215 -10.14697 -10.14563 -10.14374 -10.14270
 Alpha  occ. eigenvalues --  -10.13907 -10.12851 -10.12632  -1.04638  -1.01053
 Alpha  occ. eigenvalues --   -0.95657  -0.94789  -0.83181  -0.80914  -0.76219
 Alpha  occ. eigenvalues --   -0.72537  -0.71126  -0.69635  -0.64867  -0.61503
 Alpha  occ. eigenvalues --   -0.60078  -0.56326  -0.54689  -0.52664  -0.49426
 Alpha  occ. eigenvalues --   -0.48505  -0.46959  -0.44635  -0.44036  -0.42848
 Alpha  occ. eigenvalues --   -0.42334  -0.40717  -0.39087  -0.38556  -0.38255
 Alpha  occ. eigenvalues --   -0.37886  -0.36792  -0.35864  -0.34995  -0.34566
 Alpha  occ. eigenvalues --   -0.33758  -0.32758  -0.32111  -0.30936  -0.30695
 Alpha  occ. eigenvalues --   -0.28400  -0.25013  -0.22369  -0.22039  -0.21535
 Alpha  occ. eigenvalues --   -0.20106  -0.18123  -0.11943
 Alpha virt. eigenvalues --   -0.01957  -0.00069   0.00021   0.00719   0.01318
 Alpha virt. eigenvalues --    0.02364   0.02454   0.03533   0.04319   0.04753
 Alpha virt. eigenvalues --    0.04867   0.04973   0.06729   0.06791   0.06966

  Beta  occ. eigenvalues --  -19.13804 -19.09014 -19.04872 -19.02730 -10.22133
  Beta  occ. eigenvalues --  -10.19812 -10.19292 -10.18419 -10.15784 -10.15288
  Beta  occ. eigenvalues --  -10.15215 -10.14697 -10.14563 -10.14374 -10.14270
  Beta  occ. eigenvalues --  -10.13907 -10.12851 -10.12632  -1.04638  -1.01053
  Beta  occ. eigenvalues --   -0.95657  -0.94789  -0.83181  -0.80914  -0.76219
  Beta  occ. eigenvalues --   -0.72537  -0.71126  -0.69635  -0.64867  -0.61503
  Beta  occ. eigenvalues --   -0.60078  -0.56326  -0.54689  -0.52664  -0.49426
  Beta  occ. eigenvalues --   -0.48505  -0.46959  -0.44635  -0.44036  -0.42848
  Beta  occ. eigenvalues --   -0.42334  -0.40717  -0.39087  -0.38556  -0.38255
  Beta  occ. eigenvalues --   -0.37886  -0.36792  -0.35864  -0.34995  -0.34566
  Beta  occ. eigenvalues --   -0.33758  -0.32758  -0.32111  -0.30936  -0.30695
  Beta  occ. eigenvalues --   -0.28400  -0.25013  -0.22369  -0.22039  -0.21535
  Beta  occ. eigenvalues --   -0.20106  -0.18123  -0.11943
  Beta virt. eigenvalues --   -0.01957  -0.00069   0.00021   0.00719   0.01318
  Beta virt. eigenvalues --    0.02364   0.02454   0.03533   0.04319   0.04753
  Beta virt. eigenvalues --    0.04867   0.04973   0.06729   0.06791   0.06966

 Mulliken charges and spin densities:
               1          2
     1  O   -0.286492  -0.000000
     2  C   -0.054020   0.000000
     3  C   -0.259924   0.000000
     4  C   -0.417609   0.000000
     5  C   -0.077911   0.000000
     6  C    0.161885   0.000000
     7  C   -0.352949  -0.000000
     8  O   -0.614303   0.000000
     9  C    0.305828  -0.000000
    10  C   -0.182433   0.000000
    11  C   -0.420001   0.000000
    12  C   -0.327502  -0.000000
    13  C   -0.303291   0.000000
    14  O   -0.650911   0.000000
    15  C    0.460402  -0.000000
    16  C   -0.053926  -0.000000
    17  O   -0.566664   0.000000
    18  C    0.005384  -0.000000
    19  H    0.289007   0.000000
    20  H    0.132850   0.000000
    21  H    0.170598  -0.000000
    22  H    0.137239   0.000000
    23  H    0.132418  -0.000000
    24  H    0.154437   0.000000
    25  H    0.139751  -0.000000
    26  H    0.478137   0.000000
 Sum of Mulliken charges =  -2.00000  -0.00000

 Dipole moment (field-independent basis, Debye):
    X=              8.5781    Y=             -1.8537    Z=              0.1221  Tot=              8.7769
 Quadrupole moment (field-independent basis, Debye-Ang):
   XX=           -136.8827   YY=           -170.1513   ZZ=           -116.3670
   XY=            -16.4399   XZ=              0.5371   YZ=             -0.3182

 Normal termination of Gaussian 16 at Tue Jan 16 06:17:34 2024.
