 Gaussian 16, Revision A.03,
 Gaussian 16:  ES64L-G16RevA.03 25-Dec-2016

 ----------------------------------------------------------------------
 #P UB3LYP/6-311++G(d,p) nosym opt freq SCRF=(PCM,Solvent=n,n-DiMethylF
 ormamide)
 ----------------------------------------------------------------------

 --------
 Oxidized
 --------
 Symbolic Z-matrix:
 Charge =  0 Multiplicity = 1

 SCF Done:  E(UB3LYP) =  -1165.05510306     A.U. after   17 cycles
 SCF Done:  E(UB3LYP) =  -1165.05491002     A.U. after   17 cycles
 SCF Done:  E(UB3LYP) =  -1165.05546957     A.U. after   14 cycles
 SCF Done:  E(UB3LYP) =  -1165.05546616     A.U. after   13 cycles
 SCF Done:  E(UB3LYP) =  -1165.05559609     A.U. after   13 cycles
 SCF Done:  E(UB3LYP) =  -1165.05557094     A.U. after   14 cycles
 SCF Done:  E(UB3LYP) =  -1165.05561724     A.U. after   13 cycles
 SCF Done:  E(UB3LYP) =  -1165.05564184     A.U. after   13 cycles
 SCF Done:  E(UB3LYP) =  -1165.05562763     A.U. after   13 cycles
 SCF Done:  E(UB3LYP) =  -1165.05563891     A.U. after   16 cycles
 SCF Done:  E(UB3LYP) =  -1165.05585118     A.U. after   12 cycles
 SCF Done:  E(UB3LYP) =  -1165.05585258     A.U. after   12 cycles
 SCF Done:  E(UB3LYP) =  -1165.05585346     A.U. after   12 cycles
 SCF Done:  E(UB3LYP) =  -1165.05585902     A.U. after   12 cycles
 SCF Done:  E(UB3LYP) =  -1165.05585284     A.U. after   12 cycles
 SCF Done:  E(UB3LYP) =  -1165.05585968     A.U. after   12 cycles
 SCF Done:  E(UB3LYP) =  -1165.05585963     A.U. after   10 cycles
 SCF Done:  E(UB3LYP) =  -1165.05585977     A.U. after    9 cycles
 SCF Done:  E(UB3LYP) =  -1165.05585982     A.U. after    8 cycles
 Optimization completed.
    -- Stationary point found.
 Normal termination of Gaussian 16 at Sat Feb 10 15:40:48 2024.

 ----------------------------------------------------------------------
 #P Geom=AllCheck Guess=TCheck SCRF=Check GenChk UB3LYP/6-311++G(d,p) F
 req
 ----------------------------------------------------------------------

 Structure from the checkpoint file:  "052.chk"
 --------
 Oxidized
 --------
 Charge =  0 Multiplicity = 1

                          Input orientation:
 ---------------------------------------------------------------------
 Center     Atomic      Atomic             Coordinates (Angstroms)
 Number     Number       Type             X           Y           Z
 ---------------------------------------------------------------------
      1          6           0        1.093916    2.815761    1.573270
      2          6           0       -0.244169    2.557378    0.958414
      3          6           0       -0.489777    1.366935    0.367965
      4          6           0        0.602803    0.353611    0.268698
      5          6           0        1.995058    0.683320    0.703702
      6          6           0        2.228629    1.875523    1.303438
      7          8           0        1.244622    3.783089    2.305179
      8          8           0        0.365538   -0.751936   -0.204376
      9          6           0       -1.235390    3.673207    1.128546
     10          6           0       -1.803181    0.935036   -0.217254
     11          6           0        3.031772   -0.369116    0.453156
     12         16           0        3.832774    2.264113    1.966730
     13          6           0        4.119987    4.009456    1.426284
     14          6           0        5.586364    4.342059    1.684989
     15          6           0        5.931599    5.760153    1.269959
     16          8           0        5.155692    6.550268    0.791480
     17          8           0        7.217418    6.132977    1.462739
     18          1           0       -0.793466    4.621842    0.814879
     19          1           0       -1.503668    3.788155    2.182951
     20          1           0       -2.145558    3.508890    0.557574
     21          1           0       -2.577477    1.689378   -0.106445
     22          1           0       -2.144074    0.014579    0.264027
     23          1           0       -1.688642    0.704499   -1.280265
     24          1           0        2.819169   -0.900010   -0.474740
     25          1           0        3.024752   -1.113772    1.256905
     26          1           0        4.028627    0.068656    0.414723
     27          1           0        3.461928    4.669200    1.982884
     28          1           0        3.890241    4.078815    0.364026
     29          1           0        6.246909    3.658221    1.141377
     30          1           0        5.830387    4.232352    2.747577
     31          1           0        7.742867    5.418545    1.849426
 ---------------------------------------------------------------------

 SCF Done:  E(UB3LYP) =  -1165.05585982     A.U. after    2 cycles

 Alpha  occ. eigenvalues --  -88.86659 -19.18611 -19.13932 -19.13735 -19.13154
 Alpha  occ. eigenvalues --  -10.32739 -10.28810 -10.28263 -10.23496 -10.22002
 Alpha  occ. eigenvalues --  -10.21443 -10.21439 -10.21337 -10.20833 -10.17591
 Alpha  occ. eigenvalues --  -10.17545 -10.17539  -7.95264  -5.91660  -5.91270
 Alpha  occ. eigenvalues --   -5.90652  -1.12533  -1.07272  -1.06806  -1.04417
 Alpha  occ. eigenvalues --   -0.87507  -0.84234  -0.81903  -0.76046  -0.75343
 Alpha  occ. eigenvalues --   -0.73002  -0.68879  -0.66377  -0.64772  -0.62495
 Alpha  occ. eigenvalues --   -0.58262  -0.57888  -0.54387  -0.53783  -0.50572
 Alpha  occ. eigenvalues --   -0.48567  -0.48230  -0.46999  -0.46885  -0.44943
 Alpha  occ. eigenvalues --   -0.44247  -0.43879  -0.43684  -0.42933  -0.42488
 Alpha  occ. eigenvalues --   -0.42037  -0.41089  -0.40475  -0.39895  -0.39525
 Alpha  occ. eigenvalues --   -0.39290  -0.38542  -0.38393  -0.37580  -0.34781
 Alpha  occ. eigenvalues --   -0.34437  -0.30445  -0.30434  -0.29253  -0.28141
 Alpha  occ. eigenvalues --   -0.27530  -0.24373
 Alpha virt. eigenvalues --   -0.13001  -0.02730  -0.01825  -0.01358  -0.00897
 Alpha virt. eigenvalues --   -0.00572   0.00429   0.01117   0.01611   0.02137
 Alpha virt. eigenvalues --    0.02464   0.03135   0.03355   0.03694   0.03900

  Beta  occ. eigenvalues --  -88.86659 -19.18611 -19.13932 -19.13735 -19.13154
  Beta  occ. eigenvalues --  -10.32739 -10.28810 -10.28263 -10.23496 -10.22002
  Beta  occ. eigenvalues --  -10.21443 -10.21439 -10.21337 -10.20833 -10.17591
  Beta  occ. eigenvalues --  -10.17545 -10.17539  -7.95264  -5.91660  -5.91270
  Beta  occ. eigenvalues --   -5.90652  -1.12533  -1.07272  -1.06806  -1.04417
  Beta  occ. eigenvalues --   -0.87507  -0.84234  -0.81903  -0.76046  -0.75343
  Beta  occ. eigenvalues --   -0.73002  -0.68879  -0.66377  -0.64772  -0.62495
  Beta  occ. eigenvalues --   -0.58262  -0.57888  -0.54387  -0.53783  -0.50572
  Beta  occ. eigenvalues --   -0.48567  -0.48230  -0.46999  -0.46885  -0.44943
  Beta  occ. eigenvalues --   -0.44247  -0.43879  -0.43684  -0.42933  -0.42488
  Beta  occ. eigenvalues --   -0.42037  -0.41089  -0.40475  -0.39895  -0.39525
  Beta  occ. eigenvalues --   -0.39290  -0.38542  -0.38393  -0.37580  -0.34781
  Beta  occ. eigenvalues --   -0.34437  -0.30445  -0.30434  -0.29253  -0.28141
  Beta  occ. eigenvalues --   -0.27530  -0.24373
  Beta virt. eigenvalues --   -0.13001  -0.02730  -0.01825  -0.01358  -0.00897
  Beta virt. eigenvalues --   -0.00572   0.00429   0.01117   0.01611   0.02137
  Beta virt. eigenvalues --    0.02464   0.03135   0.03355   0.03694   0.03900

 Mulliken charges and spin densities:
               1          2
     1  C   -0.818026   0.000000
     2  C    0.416321  -0.000000
     3  C    0.213526   0.000000
     4  C   -0.759748   0.000000
     5  C    0.496567   0.000000
     6  C    1.482254  -0.000000
     7  O   -0.250737  -0.000000
     8  O   -0.261453   0.000000
     9  C   -0.504477  -0.000000
    10  C   -0.544096   0.000000
    11  C   -0.287408  -0.000000
    12  S   -0.562388   0.000000
    13  C   -0.671863  -0.000000
    14  C   -0.105828   0.000000
    15  C   -0.093540  -0.000000
    16  O   -0.327986   0.000000
    17  O   -0.198316   0.000000
    18  H    0.179120   0.000000
    19  H    0.206562   0.000000
    20  H    0.134049  -0.000000
    21  H    0.134087   0.000000
    22  H    0.188371  -0.000000
    23  H    0.188565  -0.000000
    24  H    0.177919  -0.000000
    25  H    0.214401  -0.000000
    26  H    0.137552   0.000000
    27  H    0.237193  -0.000000
    28  H    0.251586   0.000000
    29  H    0.208771  -0.000000
    30  H    0.211390  -0.000000
    31  H    0.307631   0.000000
 Sum of Mulliken charges =  -0.00000   0.00000

 Dipole moment (field-independent basis, Debye):
    X=              1.3180    Y=             -2.8355    Z=              0.4223  Tot=              3.1552
 Quadrupole moment (field-independent basis, Debye-Ang):
   XX=            -71.7562   YY=           -160.7435   ZZ=           -109.3201
   XY=            -16.5458   XZ=             11.2076   YZ=             -2.5348

  Exact polarizability: 257.573  33.092 299.642  35.704  54.596 186.363
 Approx polarizability: 263.116  37.203 366.676  41.469  79.816 228.103

                      1                      2                      3
                      A                      A                      A
 Frequencies --     19.9457                22.5044                34.0376
 Red. masses --      4.7730                 8.0565                 5.4566
 Frc consts  --      0.0011                 0.0024                 0.0037
 IR Inten    --     12.8417                 0.8492                 5.2798

                      4                      5                      6
                      A                      A                      A
 Frequencies --     60.9597                65.4734                67.0548
 Red. masses --      1.5635                 2.5915                 2.1952
 Frc consts  --      0.0034                 0.0065                 0.0058
 IR Inten    --      0.7632                 3.8051                 4.4441

                      7                      8                      9
                      A                      A                      A
 Frequencies --     75.7169                86.9284                92.2219
 Red. masses --      1.1787                 2.9374                 2.4834
 Frc consts  --      0.0040                 0.0131                 0.0124
 IR Inten    --      2.5392                 2.9875                21.2012

                     10                     11                     12
                      A                      A                      A
 Frequencies --    107.2338               111.8790               175.0553
 Red. masses --      1.7319                 1.8930                 5.2792
 Frc consts  --      0.0117                 0.0140                 0.0953
 IR Inten    --      2.7014                 1.5083                16.6448

                     13                     14                     15
                      A                      A                      A
 Frequencies --    200.2651               204.9069               262.0114
 Red. masses --      6.4234                 4.7027                 6.9314
 Frc consts  --      0.1518                 0.1163                 0.2804
 IR Inten    --      1.8891                 1.5924                 9.3377

                     16                     17                     18
                      A                      A                      A
 Frequencies --    310.1311               319.2995               343.1234
 Red. masses --      2.9348                 4.5829                 4.8736
 Frc consts  --      0.1663                 0.2753                 0.3381
 IR Inten    --      1.5833                 4.8113                 2.2809

                     19                     20                     21
                      A                      A                      A
 Frequencies --    358.5150               385.3284               414.1570
 Red. masses --      2.8332                 5.2037                 5.3284
 Frc consts  --      0.2146                 0.4552                 0.5385
 IR Inten    --      1.7550                 1.3918                 5.6196

                     22                     23                     24
                      A                      A                      A
 Frequencies --    421.5347               432.1404               471.4814
 Red. masses --      6.8551                 6.4193                 1.7932
 Frc consts  --      0.7177                 0.7063                 0.2349
 IR Inten    --     24.0558                14.6675                92.6255

                     25                     26                     27
                      A                      A                      A
 Frequencies --    482.8552               518.7868               550.4962
 Red. masses --      2.2099                 7.7240                 4.6943
 Frc consts  --      0.3036                 1.2248                 0.8382
 IR Inten    --     60.0641                 4.1374                 0.5730

                     28                     29                     30
                      A                      A                      A
 Frequencies --    583.2843               588.0106               635.2342
 Red. masses --      1.7581                 5.3665                 7.8181
 Frc consts  --      0.3524                 1.0932                 1.8587
 IR Inten    --     14.8407                 5.6838                22.2351

                     31                     32                     33
                      A                      A                      A
 Frequencies --    686.1829               721.8843               750.6681
 Red. masses --      3.4659                 5.5088                 6.3690
 Frc consts  --      0.9615                 1.6914                 2.1145
 IR Inten    --      2.5515                49.1088                43.9422

                     34                     35                     36
                      A                      A                      A
 Frequencies --    786.4947               794.3255               800.7198
 Red. masses --      4.7432                 1.4089                 5.4934
 Frc consts  --      1.7287                 0.5237                 2.0752
 IR Inten    --     30.1358                16.1814                12.3104

                     37                     38                     39
                      A                      A                      A
 Frequencies --    858.1387               895.5759               942.6646
 Red. masses --      2.9454                 4.3119                 3.0744
 Frc consts  --      1.2779                 2.0376                 1.6096
 IR Inten    --     83.9863                23.7496                19.5848

                     40                     41                     42
                      A                      A                      A
 Frequencies --    999.4598              1012.7651              1024.2008
 Red. masses --      1.5869                 2.3798                 1.4694
 Frc consts  --      0.9340                 1.4382                 0.9082
 IR Inten    --      9.9891                18.6990                10.3185

                     43                     44                     45
                      A                      A                      A
 Frequencies --   1043.0708              1056.4341              1059.7374
 Red. masses --      1.6480                 1.7594                 1.5921
 Frc consts  --      1.0564                 1.1569                 1.0535
 IR Inten    --     24.7525                30.6652                 3.6522

                     46                     47                     48
                      A                      A                      A
 Frequencies --   1065.9555              1110.1254              1120.9337
 Red. masses --      3.6578                 3.1118                 2.5266
 Frc consts  --      2.4488                 2.2595                 1.8704
 IR Inten    --     22.7017                55.7244                71.4306

                     49                     50                     51
                      A                      A                      A
 Frequencies --   1146.0406              1164.6169              1231.7739
 Red. masses --      2.1699                 1.2110                 4.8224
 Frc consts  --      1.6791                 0.9677                 4.3110
 IR Inten    --     96.9129                 5.9991               211.3875

                     52                     53                     54
                      A                      A                      A
 Frequencies --   1252.4348              1276.3215              1283.3891
 Red. masses --      1.2268                 7.9162                 1.6657
 Frc consts  --      1.1338                 7.5978                 1.6164
 IR Inten    --    106.1352               392.8674               454.3492

                     55                     56                     57
                      A                      A                      A
 Frequencies --   1317.4756              1332.6050              1388.5145
 Red. masses --      1.1250                 4.4905                 1.6881
 Frc consts  --      1.1505                 4.6984                 1.9176
 IR Inten    --      2.0256                45.8434               125.9880

                     58                     59                     60
                      A                      A                      A
 Frequencies --   1401.4926              1405.3832              1411.8552
 Red. masses --      1.2468                 1.3764                 1.1988
 Frc consts  --      1.4429                 1.6017                 1.4079
 IR Inten    --     28.1895                22.0389                 5.7286

                     61                     62                     63
                      A                      A                      A
 Frequencies --   1458.0296              1458.2785              1462.4401
 Red. masses --      1.0891                 1.0720                 1.0495
 Frc consts  --      1.3641                 1.3432                 1.3225
 IR Inten    --     27.7330                 8.7929                17.9330

                     64                     65                     66
                      A                      A                      A
 Frequencies --   1463.8699              1466.4343              1472.2053
 Red. masses --      1.0520                 1.0449                 1.0669
 Frc consts  --      1.3282                 1.3239                 1.3624
 IR Inten    --      2.7876                20.8167                23.7098

                     67                     68                     69
                      A                      A                      A
 Frequencies --   1483.0252              1489.8842              1617.3824
 Red. masses --      1.0921                 1.0957                 7.7629
 Frc consts  --      1.4151                 1.4330                11.9647
 IR Inten    --      6.4289                13.3616               152.3471

                     70                     71                     72
                      A                      A                      A
 Frequencies --   1671.0874              1688.7161              1690.7360
 Red. masses --     12.6865                 8.1761                11.4700
 Frc consts  --     20.8733                13.7376                19.3181
 IR Inten    --   1080.7422                72.7112               135.8726

                     73                     74                     75
                      A                      A                      A
 Frequencies --   1790.7974              3030.1925              3031.7633
 Red. masses --      9.4727                 1.0469                 1.0599
 Frc consts  --     17.8985                 5.6634                 5.7397
 IR Inten    --    493.9708                11.6012                20.1235

                     76                     77                     78
                      A                      A                      A
 Frequencies --   3040.6685              3042.7906              3066.6733
 Red. masses --      1.0407                 1.0425                 1.1015
 Frc consts  --      5.6689                 5.6866                 6.1034
 IR Inten    --     14.2480                12.1739                 3.9864

                     79                     80                     81
                      A                      A                      A
 Frequencies --   3085.5977              3088.6006              3093.4778
 Red. masses --      1.0986                 1.0971                 1.0613
 Frc consts  --      6.1627                 6.1665                 5.9836
 IR Inten    --     13.5894                13.5762                10.9206

                     82                     83                     84
                      A                      A                      A
 Frequencies --   3094.8149              3137.3173              3145.6673
 Red. masses --      1.0856                 1.1035                 1.1000
 Frc consts  --      6.1262                 6.3991                 6.4131
 IR Inten    --     17.0533                 3.6148                 5.4574

                     85                     86                     87
                      A                      A                      A
 Frequencies --   3160.9533              3168.3835              3782.9970
 Red. masses --      1.0949                 1.1057                 1.0664
 Frc consts  --      6.4455                 6.5396                 8.9916
 IR Inten    --     32.6968                 6.0776               127.9263

 - Thermochemistry -
 -------------------
 Temperature   298.150 Kelvin.  Pressure   1.00000 Atm.
 Atom     1 has atomic number  6 and mass  12.00000

 Molecular mass:   254.06128 amu.
 Principal axes and moments of inertia in atomic units:
                           1         2         3
     Eigenvalues --  2248.747369074.72128**********
           X            0.79707  -0.60063  -0.06257
           Y            0.58748   0.79523  -0.14992
           Z            0.13981   0.08274   0.98672
 This molecule is an asymmetric top.
 Rotational symmetry number  1.
 Warning -- assumption of classical behavior for rotation
           may cause significant error
 Rotational temperatures (Kelvin)      0.03852     0.00954     0.00815
 Rotational constants (GHZ):           0.80255     0.19888     0.16987
 Zero-point vibrational energy     627588.5 (Joules/Mol)
                                  149.99724 (Kcal/Mol)
 Warning -- explicit consideration of  29 degrees of freedom as
           vibrations may cause significant error
 Vibrational temperatures:     28.70    32.38    48.97    87.71    94.20
          (Kelvin)             96.48   108.94   125.07   132.69   154.29
                              160.97   251.87   288.14   294.82   376.98
                              446.21   459.40   493.68   515.82   554.40
                              595.88   606.49   621.75   678.36   694.72
                              746.42   792.04   839.22   846.02   913.96
                              987.26  1038.63  1080.04  1131.59  1142.86
                             1152.06  1234.67  1288.53  1356.28  1438.00
                             1457.14  1473.60  1500.75  1519.97  1524.73
                             1533.67  1597.22  1612.77  1648.90  1675.62
                             1772.25  1801.97  1836.34  1846.51  1895.55
                             1917.32  1997.76  2016.44  2022.03  2031.34
                             2097.78  2098.14  2104.13  2106.18  2109.87
                             2118.18  2133.74  2143.61  2327.05  2404.32
                             2429.69  2432.59  2576.56  4359.77  4362.03
                             4374.84  4377.90  4412.26  4439.49  4443.81
                             4450.82  4452.75  4513.90  4525.91  4547.91
                             4558.60  5442.89

 Zero-point correction=                           0.239036 (Hartree/Particle)
 Thermal correction to Energy=                    0.258118
 Thermal correction to Enthalpy=                  0.259063
 Thermal correction to Gibbs Free Energy=         0.187967
 Sum of electronic and zero-point Energies=          -1164.816824
 Sum of electronic and thermal Energies=             -1164.797741
 Sum of electronic and thermal Enthalpies=           -1164.796797
 Sum of electronic and thermal Free Energies=        -1164.867893

                     E (Thermal)             CV                S
                      KCal/Mol        Cal/Mol-Kelvin    Cal/Mol-Kelvin
 Total                  161.972             66.591            149.633
 Electronic               0.000              0.000              0.000
 Translational            0.889              2.981             42.497
 Rotational               0.889              2.981             33.738
 Vibrational            160.194             60.630             73.397
 Vibration     1          0.593              1.986              6.640
 Vibration     2          0.593              1.985              6.400
 Vibration     3          0.594              1.983              5.579
 Vibration     4          0.597              1.973              4.426
 Vibration     5          0.597              1.971              4.285
 Vibration     6          0.598              1.970              4.238
 Vibration     7          0.599              1.965              3.999
 Vibration     8          0.601              1.958              3.728
 Vibration     9          0.602              1.955              3.612
 Vibration    10          0.606              1.943              3.318
 Vibration    11          0.607              1.940              3.236
 Vibration    12          0.627              1.873              2.381
 Vibration    13          0.638              1.840              2.131
 Vibration    14          0.640              1.833              2.089
 Vibration    15          0.669              1.742              1.648
 Vibration    16          0.699              1.654              1.362
 Vibration    17          0.705              1.637              1.314
 Vibration    18          0.722              1.589              1.198
 Vibration    19          0.733              1.558              1.129
 Vibration    20          0.754              1.502              1.018
 Vibration    21          0.778              1.439              0.912
 Vibration    22          0.784              1.423              0.887
 Vibration    23          0.793              1.400              0.852
 Vibration    24          0.828              1.313              0.733
 Vibration    25          0.839              1.288              0.702
 Vibration    26          0.874              1.208              0.613
 Vibration    27          0.906              1.139              0.543
 Vibration    28          0.940              1.067              0.479
 Vibration    29          0.945              1.057              0.471

 Optimization completed.
    -- Stationary point found.
 Normal termination of Gaussian 16 at Sat Feb 10 17:04:06 2024.
