 Q-Chem 5.4, Q-Chem, Inc., Pleasanton, CA (2021)
 Q-Chem 5.4.0 for Intel X86 EM64T Linux

User input:
--------------------------------------------------------------
$molecule
-2 1
C                  1.5729390000      1.1147160000     -1.6012390000
C                  0.1947460000      0.8954130000     -1.3431880000
C                 -0.2994150000      0.1548800000     -0.2309400000
C                  0.5616920000     -0.4527790000      0.7547800000
C                  1.9533140000     -0.2193700000      0.4757900000
C                  2.4228770000      0.5051410000     -0.6131200000
O                  2.0373570000      1.7911560000     -2.6166630000
O                  0.1577850000     -1.1313180000      1.7766290000
C                 -1.7565390000     -0.0031260000     -0.0715790000
F                 -2.5020900000      0.6134070000     -1.0637560000
F                 -2.2264000000     -1.3067080000     -0.0878380000
F                 -2.2945270000      0.5150940000      1.0955060000
H                 -0.5101410000      1.3265150000     -2.0479340000
H                  2.6577390000     -0.6543920000      1.1866440000
H                  3.4988040000      0.6346890000     -0.7504920000
$end
$rem
MAX_SCF_CYCLES=200
BASIS  =  6-311++G(d,p)
GUI  =  2
JOB_TYPE  =  SP
METHOD  =  B3LYP
SOLVENT_METHOD = COSMO
$end
$solvent
dielectric 37.219
opticaldielectric 1.43
$end

--------------------------------------------------------------

             Standard Nuclear Orientation (Angstroms)
    I     Atom           X                Y                Z
 ----------------------------------------------------------------
    1      C       2.2474879165     0.6864307737     0.0000472314
    2      C       0.8624201920     0.9957646705    -0.0000462533
    3      C      -0.1724408084     0.0166106783    -0.0000157729
    4      C       0.0875192061    -1.4028326752    -0.0000495995
    5      C       1.4958104559    -1.6954804459     0.0000518230
    6      C       2.4960769362    -0.7308056009     0.0000638051
    7      O       3.2042573398     1.5746499500    -0.0000857566
    8      O      -0.8178626421    -2.3237100427    -0.0000815586
    9      C      -1.5768874254     0.4650545114     0.0000494825
   10      F      -1.7286373442     1.8424964478     0.0003765877
   11      F      -2.3372625386     0.0640971405    -1.0868831829
   12      F      -2.3373457758     0.0635039583     1.0865717807
   13      H       0.5957021833     2.0484959016    -0.0000234175
   14      H       1.7589022905    -2.7545152971     0.0000813624
   15      H       3.5435300349    -1.0408292537     0.0000896080
 ----------------------------------------------------------------

   11    -718.7074099904      5.66e-06  Convergence criterion met
 Total energy in the final basis set =     -718.7074099904
    5    -719.0043257419      9.15e-06  Convergence criterion met
 Total energy in the final basis set =     -719.0043257419

                    Orbital Energies (a.u.)
 --------------------------------------------------------------

 Alpha MOs
 -- Occupied --
-24.6925 -24.6886 -24.6886 -19.0315 -19.0263 -10.4061 -10.1922 -10.1804
-10.1534 -10.1395 -10.1384 -10.1363  -1.2853  -1.2004  -1.1975  -0.9472
 -0.9344  -0.8019  -0.7465  -0.6838  -0.6551  -0.5961  -0.5772  -0.5683
 -0.5485  -0.4963  -0.4550  -0.4548  -0.4391  -0.4367  -0.4190  -0.4135
 -0.4033  -0.3948  -0.3748  -0.3714  -0.3649  -0.3423  -0.3304  -0.3242
 -0.2414  -0.2324  -0.2106  -0.2082  -0.1362

          Ground-State Mulliken Net Atomic Charges

     Atom                 Charge (a.u.)
  ----------------------------------------
      1 C                    -0.427323
      2 C                    -0.401778
      3 C                     0.326345
      4 C                    -0.414038
      5 C                    -0.119568
      6 C                     0.062409
      7 O                    -0.790759
      8 O                    -0.719130
      9 C                     0.534473
     10 F                    -0.221022
     11 F                    -0.157238
     12 F                    -0.157126
     13 H                     0.151991
     14 H                     0.165267
     15 H                     0.167497
  ----------------------------------------
  Sum of atomic charges =    -2.000000

                    Cartesian Multipole Moments
 -----------------------------------------------------------------
    Charge (ESU x 10^10)
                -9.6064
    Dipole Moment (Debye)
         X      -6.8168      Y       1.1577      Z       0.0016
       Tot       6.9144
    Quadrupole Moments (Debye-Ang)
        XX    -127.7876     XY     -26.7378     YY    -106.3162
        XZ      -0.0023     YZ      -0.0009     ZZ     -76.8519

 Total job time:  18.76s(wall), 128.48s(cpu)
        *  Thank you very much for using Q-Chem.  Have a nice day.  *
