 Q-Chem 5.4, Q-Chem, Inc., Pleasanton, CA (2021)
 Q-Chem 5.4.0 for Intel X86 EM64T Linux

User input:
--------------------------------------------------------------
$molecule
-1 1
C                 -3.4922130000      2.4023360000      1.1174340000
C                 -4.2239260000      2.2805180000      2.2864620000
C                 -3.8238750000      1.3453960000      3.2449080000
C                 -2.3615490000      1.6025730000      0.8865000000
C                 -1.9509940000      0.6610180000      1.8404930000
C                 -2.7063050000      0.5522640000      3.0202910000
C                 -1.6275000000      1.7975810000     -0.4024770000
C                 -0.4359580000      0.9573880000     -0.6400590000
C                 -0.0116220000      0.0066630000      0.3062810000
C                 -0.7281890000     -0.2361780000      1.6389580000
C                  0.2693290000      1.1322660000     -1.8472480000
C                  1.3912790000      0.3740760000     -2.1264260000
C                  1.8180330000     -0.5753040000     -1.1939200000
C                  1.1270250000     -0.7516830000     -0.0033340000
O                 -2.0209670000      2.6290620000     -1.2103180000
S                  2.3634780000      0.6197400000     -3.6599900000
O                  1.4362390000      1.3210380000     -4.5782910000
O                  3.5213080000      1.4327310000     -3.2085060000
O                  2.7214450000     -0.7631440000     -4.0674740000
C                  0.2727210000      0.0319340000      2.7978770000
C                 -1.1949170000     -1.7181820000      1.6916970000
H                 -3.7657870000      3.1137700000      0.3476920000
H                 -5.0959600000      2.9025700000      2.4566580000
H                 -4.3841500000      1.2350670000      4.1676980000
H                 -2.4182350000     -0.1648330000      3.7800190000
H                 -0.0815810000      1.8625450000     -2.5652390000
H                  2.6876620000     -1.1800140000     -1.4237510000
H                  1.4862010000     -1.5003070000      0.6943050000
H                  0.6080760000      1.0714720000      2.7802180000
H                  1.1524390000     -0.6073020000      2.7050670000
H                 -0.1855640000     -0.1642660000      3.7704040000
H                 -0.3469860000     -2.3954790000      1.5757300000
H                 -1.9038450000     -1.9243830000      0.8864770000
H                 -1.6811530000     -1.9464930000      2.6434310000
$end
$rem
MAX_SCF_CYCLES=200
BASIS  =  6-311++G(d,p)
GUI  =  2
JOB_TYPE  =  SP
METHOD  =  B3LYP
SOLVENT_METHOD = PCM
$end
$pcm
theory = CPCM
$end
$solvent
dielectric 37.219
opticaldielectric 1.43
$end

--------------------------------------------------------------

             Standard Nuclear Orientation (Angstroms)
    I     Atom           X                Y                Z
 ----------------------------------------------------------------
    1      C      -3.4922130000     2.4023360000     1.1174340000
    2      C      -4.2239260000     2.2805180000     2.2864620000
    3      C      -3.8238750000     1.3453960000     3.2449080000
    4      C      -2.3615490000     1.6025730000     0.8865000000
    5      C      -1.9509940000     0.6610180000     1.8404930000
    6      C      -2.7063050000     0.5522640000     3.0202910000
    7      C      -1.6275000000     1.7975810000    -0.4024770000
    8      C      -0.4359580000     0.9573880000    -0.6400590000
    9      C      -0.0116220000     0.0066630000     0.3062810000
   10      C      -0.7281890000    -0.2361780000     1.6389580000
   11      C       0.2693290000     1.1322660000    -1.8472480000
   12      C       1.3912790000     0.3740760000    -2.1264260000
   13      C       1.8180330000    -0.5753040000    -1.1939200000
   14      C       1.1270250000    -0.7516830000    -0.0033340000
   15      O      -2.0209670000     2.6290620000    -1.2103180000
   16      S       2.3634780000     0.6197400000    -3.6599900000
   17      O       1.4362390000     1.3210380000    -4.5782910000
   18      O       3.5213080000     1.4327310000    -3.2085060000
   19      O       2.7214450000    -0.7631440000    -4.0674740000
   20      C       0.2727210000     0.0319340000     2.7978770000
   21      C      -1.1949170000    -1.7181820000     1.6916970000
   22      H      -3.7657870000     3.1137700000     0.3476920000
   23      H      -5.0959600000     2.9025700000     2.4566580000
   24      H      -4.3841500000     1.2350670000     4.1676980000
   25      H      -2.4182350000    -0.1648330000     3.7800190000
   26      H      -0.0815810000     1.8625450000    -2.5652390000
   27      H       2.6876620000    -1.1800140000    -1.4237510000
   28      H       1.4862010000    -1.5003070000     0.6943050000
   29      H       0.6080760000     1.0714720000     2.7802180000
   30      H       1.1524390000    -0.6073020000     2.7050670000
   31      H      -0.1855640000    -0.1642660000     3.7704040000
   32      H      -0.3469860000    -2.3954790000     1.5757300000
   33      H      -1.9038450000    -1.9243830000     0.8864770000
   34      H      -1.6811530000    -1.9464930000     2.6434310000
 ----------------------------------------------------------------

    9   -1317.0378850367      5.48e-06  Convergence criterion met
 Total energy in the final basis set =    -1317.0378850367

                    Orbital Energies (a.u.)
 --------------------------------------------------------------

 Alpha MOs
 -- Occupied --
-89.0494 -19.1153 -19.0964 -19.0948 -19.0947 -10.2687 -10.2095 -10.2049
-10.2010 -10.1996 -10.1955 -10.1923 -10.1907 -10.1896 -10.1858 -10.1852
-10.1824 -10.1806 -10.1804 -10.1637 -10.1637  -8.1083  -6.0710  -6.0709
 -6.0700  -1.1153  -1.0511  -0.9811  -0.9780  -0.8916  -0.8705  -0.8263
 -0.7858  -0.7661  -0.7602  -0.7394  -0.6917  -0.6641  -0.6553  -0.6338
 -0.6101  -0.5940  -0.5734  -0.5456  -0.5343  -0.5033  -0.4882  -0.4797
 -0.4728  -0.4580  -0.4535  -0.4507  -0.4464  -0.4438  -0.4376  -0.4328
 -0.4271  -0.4160  -0.4136  -0.4043  -0.3835  -0.3764  -0.3756  -0.3668
 -0.3649  -0.3493  -0.3437  -0.3407  -0.3393  -0.3278  -0.3107  -0.3033
 -0.2930  -0.2719  -0.2672  -0.2665  -0.2619  -0.2605  -0.2563

          Ground-State Mulliken Net Atomic Charges

     Atom                 Charge (a.u.)
  ----------------------------------------
      1 C                     0.078284
      2 C                    -0.456078
      3 C                    -0.493926
      4 C                     0.458389
      5 C                     0.410093
      6 C                    -0.221117
      7 C                    -0.732126
      8 C                     0.853559
      9 C                     0.430591
     10 C                     0.358693
     11 C                     0.339797
     12 C                    -1.033548
     13 C                    -0.718910
     14 C                    -0.357024
     15 O                    -0.330043
     16 S                     0.778233
     17 O                    -0.394378
     18 O                    -0.364326
     19 O                    -0.396099
     20 C                    -0.869130
     21 C                    -0.868269
     22 H                     0.210283
     23 H                     0.207945
     24 H                     0.217563
     25 H                     0.175204
     26 H                     0.231369
     27 H                     0.238909
     28 H                     0.183526
     29 H                     0.187194
     30 H                     0.174253
     31 H                     0.171276
     32 H                     0.173181
     33 H                     0.186719
     34 H                     0.169915
  ----------------------------------------
  Sum of atomic charges =    -1.000000

                    Cartesian Multipole Moments
 -----------------------------------------------------------------
    Charge (ESU x 10^10)
                -4.8032
    Dipole Moment (Debye)
         X     -11.8192      Y      -7.6822      Z      25.2329
       Tot      28.9034
    Quadrupole Moments (Debye-Ang)
        XX    -168.9335     XY      -7.9718     YY    -149.4319
        XZ      39.4750     YZ      16.5262     ZZ    -210.7584

 Total job time:  118.34s(wall), 593.39s(cpu)
        *  Thank you very much for using Q-Chem.  Have a nice day.  *
