 Gaussian 16, Revision A.03,
 Gaussian 16:  ES64L-G16RevA.03 25-Dec-2016

 ----------------------------------------------------------------
 #P UB3LYP/6-311++G(d,p) SCRF=(PCM,Solvent=n,n-DiMethylFormamide)
 ----------------------------------------------------------------

 ------------------
 Radical PCM in DMF
 ------------------
 Symbolic Z-matrix:
 Charge = -1 Multiplicity = 2

                         Standard orientation:
 ---------------------------------------------------------------------
 Center     Atomic      Atomic             Coordinates (Angstroms)
 Number     Number       Type             X           Y           Z
 ---------------------------------------------------------------------
      1          6           0       -2.747808    2.304529   -0.716274
      2          8           0       -2.424982    1.317184    0.260418
      3          6           0       -1.211385    0.688150    0.093181
      4          6           0       -1.211222   -0.688504   -0.093665
      5          8           0       -2.424611   -1.317925   -0.261077
      6          6           0       -2.747859   -2.303951    0.716774
      7          6           0        0.005333   -1.465045   -0.198216
      8          8           0       -0.003898   -2.711605   -0.387747
      9          6           0        1.257941   -0.704505   -0.088205
     10          6           0        2.489750   -1.382640   -0.177144
     11          6           0        3.689094   -0.698542   -0.089820
     12          6           0        3.688918    0.699099    0.089906
     13          6           0        2.489407    1.382906    0.177137
     14          6           0        1.257768    0.704478    0.088145
     15          6           0        0.005033    1.464812    0.198168
     16          8           0       -0.004331    2.711318    0.388138
     17          1           0       -1.999600    3.099572   -0.728376
     18          1           0       -2.830987    1.846385   -1.710781
     19          1           0       -3.720960    2.709613   -0.429165
     20          1           0       -1.998471   -3.097829    0.731770
     21          1           0       -3.719756   -2.711198    0.428478
     22          1           0       -2.833760   -1.844099    1.710267
     23          1           0        2.458791   -2.457218   -0.317172
     24          1           0        4.629824   -1.237081   -0.159379
     25          1           0        4.629513    1.237871    0.159503
     26          1           0        2.458168    2.457486    0.317076
 ---------------------------------------------------------------------

 SCF Done:  E(UB3LYP) =  -764.514227689     A.U. after   18 cycles

 The electronic state is 2-A.
 Alpha  occ. eigenvalues --  -19.13630 -19.13628 -19.07724 -19.07723 -10.22437
 Alpha  occ. eigenvalues --  -10.22435 -10.21795 -10.21740 -10.20574 -10.20573
 Alpha  occ. eigenvalues --  -10.17428 -10.17383 -10.17319 -10.17270 -10.17032
 Alpha  occ. eigenvalues --  -10.17031  -1.06225  -1.04291  -0.99920  -0.99668
 Alpha  occ. eigenvalues --   -0.85884  -0.80267  -0.75115  -0.74633  -0.70745
 Alpha  occ. eigenvalues --   -0.67871  -0.66173  -0.60668  -0.60119  -0.56351
 Alpha  occ. eigenvalues --   -0.52912  -0.51886  -0.49918  -0.46881  -0.46733
 Alpha  occ. eigenvalues --   -0.46354  -0.44603  -0.44168  -0.43536  -0.42268
 Alpha  occ. eigenvalues --   -0.42127  -0.41193  -0.40785  -0.39603  -0.37524
 Alpha  occ. eigenvalues --   -0.36336  -0.35607  -0.34883  -0.34300  -0.34011
 Alpha  occ. eigenvalues --   -0.29292  -0.28827  -0.26683  -0.25739  -0.24007
 Alpha  occ. eigenvalues --   -0.23968  -0.23185  -0.15259
 Alpha virt. eigenvalues --   -0.03348  -0.01335  -0.00314   0.00646   0.01045
 Alpha virt. eigenvalues --    0.02038   0.02601   0.02937   0.03135   0.04405
 Alpha virt. eigenvalues --    0.04507   0.04689   0.05830   0.05853   0.06131

  Beta  occ. eigenvalues --  -19.13608 -19.13606 -19.07119 -19.07119 -10.22256
  Beta  occ. eigenvalues --  -10.22255 -10.21671 -10.21615 -10.20567 -10.20567
  Beta  occ. eigenvalues --  -10.17374 -10.17329 -10.17282 -10.17234 -10.17024
  Beta  occ. eigenvalues --  -10.17024  -1.06099  -1.04153  -0.98894  -0.98642
  Beta  occ. eigenvalues --   -0.85676  -0.79837  -0.74913  -0.74478  -0.70479
  Beta  occ. eigenvalues --   -0.67711  -0.65470  -0.60559  -0.59817  -0.56089
  Beta  occ. eigenvalues --   -0.52749  -0.51703  -0.49809  -0.46488  -0.46474
  Beta  occ. eigenvalues --   -0.46214  -0.44444  -0.44068  -0.43411  -0.42210
  Beta  occ. eigenvalues --   -0.41947  -0.40529  -0.39710  -0.39180  -0.36211
  Beta  occ. eigenvalues --   -0.35281  -0.35248  -0.34679  -0.33889  -0.33392
  Beta  occ. eigenvalues --   -0.29029  -0.28436  -0.25047  -0.24738  -0.23476
  Beta  occ. eigenvalues --   -0.23424  -0.22351
  Beta virt. eigenvalues --   -0.08728  -0.02586  -0.00621  -0.00008   0.00747
  Beta virt. eigenvalues --    0.01062   0.02048   0.02634   0.02954   0.03159
  Beta virt. eigenvalues --    0.04420   0.04574   0.05394   0.05850   0.06138

 Mulliken charges and spin densities:
               1          2
     1  C   -0.271093   0.002521
     2  O   -0.192344   0.001000
     3  C    0.037557   0.109204
     4  C    0.039804   0.109314
     5  O   -0.192226   0.000980
     6  C   -0.271255   0.002526
     7  C   -0.628387   0.079676
     8  O   -0.472245   0.224538
     9  C    0.467961   0.024572
    10  C    0.148154   0.033364
    11  C   -0.404155   0.027916
    12  C   -0.403886   0.027918
    13  C    0.148447   0.033401
    14  C    0.469000   0.024660
    15  C   -0.629816   0.079625
    16  O   -0.472200   0.224581
    17  H    0.169446  -0.000254
    18  H    0.137921   0.000944
    19  H    0.157801   0.001039
    20  H    0.169363  -0.000257
    21  H    0.157891   0.001043
    22  H    0.137937   0.000943
    23  H    0.163236  -0.002235
    24  H    0.184921  -0.002392
    25  H    0.184921  -0.002391
    26  H    0.163248  -0.002237
 Sum of Mulliken charges =  -1.00000   1.00000

 Dipole moment (field-independent basis, Debye):
    X=              1.1077    Y=              0.0034    Z=              0.0007  Tot=              1.1077
 Quadrupole moment (field-independent basis, Debye-Ang):
   XX=            -96.5266   YY=           -124.9482   ZZ=            -99.2111
   XY=             -0.0023   XZ=             -0.0038   YZ=            -10.0597

 Normal termination of Gaussian 16 at Sun Jan 21 08:28:32 2024.
