 Q-Chem 5.4, Q-Chem, Inc., Pleasanton, CA (2021)
 Q-Chem 5.4.0 for Intel X86 EM64T Linux

User input:
--------------------------------------------------------------
$molecule
-1 2
Cl                -2.6621130000     -1.7380530000     -0.0115800000
C                 -1.2001950000     -0.7452470000     -0.0061050000
C                 -1.3153630000      0.6114060000     -0.0381800000
C                 -0.1661540000      1.4911170000     -0.0360560000
O                 -0.2821950000      2.7373530000     -0.0656340000
C                  1.1241190000      0.8061200000      0.0033070000
C                  1.2256610000     -0.5635990000      0.0354150000
Cl                 2.7861320000     -1.3620180000      0.0823790000
C                  0.0667780000     -1.4604740000      0.0333900000
O                  0.1648980000     -2.7018310000      0.0626630000
Cl                 2.5443730000      1.8345430000      0.0073280000
H                 -2.2859410000      1.0906810000     -0.0669270000
$end
$rem
MAX_SCF_CYCLES=200
BASIS  =  6-311++G(d,p)
GUI  =  2
JOB_TYPE  =  SP
METHOD  =  B3LYP
SOLVENT_METHOD = COSMO
$end
$solvent
dielectric 37.219
opticaldielectric 1.43
$end

--------------------------------------------------------------

             Standard Nuclear Orientation (Angstroms)
    I     Atom           X                Y                Z
 ----------------------------------------------------------------
    1      Cl      3.4161843917     0.2344268773    -0.0000440990
    2      C       1.6519375081     0.3360678967     0.0000254041
    3      C       1.0545417790     1.5599625732     0.0000177797
    4      C      -0.3832726492     1.7250896413     0.0000629201
    5      O      -0.9232528475     2.8546319900    -0.0000228197
    6      C      -1.1391427700     0.4743957901     0.0000264378
    7      C      -0.5233465887    -0.7537193932     0.0000334665
    8      Cl     -1.4529133120    -2.2405462027    -0.0000307649
    9      C       0.9315799616    -0.9286119445     0.0000862509
   10      O       1.4844367829    -2.0447664932     0.0000330586
   11      Cl     -2.8859097048     0.6280080728    -0.0000175919
   12      H       1.6416016998     2.4698599396    -0.0000237179
 ----------------------------------------------------------------

   10   -1760.5210793940      6.69e-06  Convergence criterion met
 Total energy in the final basis set =    -1760.5210793940
    5   -1760.5983305890      3.99e-06  Convergence criterion met
 Total energy in the final basis set =    -1760.5983305890

                    Orbital Energies (a.u.)
 --------------------------------------------------------------

 Alpha MOs
 -- Occupied --
********-101.5614-101.5579 -19.1036 -19.1012 -10.2573 -10.2519 -10.2479
-10.2456 -10.2414 -10.1871  -9.4762  -9.4758  -9.4723  -7.2408  -7.2402
 -7.2365  -7.2315  -7.2312  -7.2303  -7.2302  -7.2275  -7.2268  -1.0357
 -1.0287  -0.9058  -0.8798  -0.8556  -0.8099  -0.7323  -0.7005  -0.6090
 -0.5886  -0.5230  -0.4917  -0.4652  -0.4514  -0.4440  -0.4352  -0.4187
 -0.4087  -0.4029  -0.3797  -0.3518  -0.3414  -0.3354  -0.3220  -0.3123
 -0.2907  -0.2735  -0.2669  -0.2566  -0.1848

 Beta MOs
 -- Occupied --
********-101.5613-101.5578 -19.0969 -19.0943 -10.2559 -10.2507 -10.2469
-10.2442 -10.2402 -10.1860  -9.4762  -9.4758  -9.4722  -7.2408  -7.2403
 -7.2366  -7.2313  -7.2309  -7.2303  -7.2301  -7.2273  -7.2268  -1.0243
 -1.0168  -0.9028  -0.8780  -0.8543  -0.8063  -0.7296  -0.6906  -0.6049
 -0.5843  -0.5207  -0.4880  -0.4622  -0.4432  -0.4361  -0.4287  -0.4142
 -0.4011  -0.3858  -0.3725  -0.3402  -0.3348  -0.3335  -0.3216  -0.3119
 -0.2671  -0.2662  -0.2606  -0.2500

          Ground-State Mulliken Net Atomic Charges

     Atom                 Charge (a.u.)    Spin (a.u.)
  --------------------------------------------------------
      1 Cl                    0.208575       0.004200
      2 C                     1.225702       0.093477
      3 C                    -0.527374       0.079156
      4 C                    -1.104195       0.114358
      5 O                    -0.443035       0.243631
      6 C                     0.420590       0.080545
      7 C                     0.626533       0.059622
      8 Cl                    0.307951       0.004739
      9 C                    -1.877088       0.075229
     10 O                    -0.376638       0.243763
     11 Cl                    0.309218       0.008381
     12 H                     0.229762      -0.007103
  --------------------------------------------------------
  Sum of atomic charges =    -1.000000

                    Cartesian Multipole Moments
 -----------------------------------------------------------------
    Charge (ESU x 10^10)
                -4.8032
    Dipole Moment (Debye)
         X      -0.3622      Y      -0.2990      Z      -0.0006
       Tot       0.4696
    Quadrupole Moments (Debye-Ang)
        XX    -103.6469     XY      15.0854     YY    -116.7873
        XZ      -0.0008     YZ       0.0005     ZZ     -85.4234

 Total job time:  49.16s(wall), 139.30s(cpu)
        *  Thank you very much for using Q-Chem.  Have a nice day.  *
