 Q-Chem 5.4, Q-Chem, Inc., Pleasanton, CA (2021)
 Q-Chem 5.4.0 for Intel X86 EM64T Linux

User input:
--------------------------------------------------------------
$molecule
-1 2
C                  3.3128630000     -0.9469420000     -0.1004030000
O                  1.9344520000     -1.1544410000      0.0951290000
C                  1.0739450000     -0.1063580000     -0.0844190000
C                  1.5313570000      1.1544130000     -0.4554590000
C                  0.6248330000      2.2148530000     -0.6333750000
C                 -0.7222320000      2.0114820000     -0.4412210000
C                 -1.2120720000      0.7436680000     -0.0650160000
C                 -2.6727980000      0.6125870000      0.1203640000
O                 -3.4510730000      1.5920290000     -0.0499580000
C                 -3.1363250000     -0.6884880000      0.5022080000
C                 -2.2847700000     -1.7483290000      0.6855360000
C                 -0.8513140000     -1.6823480000      0.5198030000
O                 -0.1439240000     -2.7043940000      0.7085550000
C                 -0.3182710000     -0.3562230000      0.1242810000
H                  3.7860280000     -1.9097120000      0.0976580000
H                  3.5434090000     -0.6383100000     -1.1293880000
H                  3.7209900000     -0.1970320000      0.5911600000
H                  2.5869620000      1.3319980000     -0.6107400000
H                  1.0009430000      3.1918910000     -0.9231930000
H                 -1.4488680000      2.8044340000     -0.5691930000
H                 -4.2081630000     -0.8010490000      0.6423970000
H                 -2.6659710000     -2.7237310000      0.9752760000
$end
$rem
MAX_SCF_CYCLES=200
BASIS  =  6-311++G(d,p)
GUI  =  2
JOB_TYPE  =  SP
METHOD  =  B3LYP
SOLVENT_METHOD = COSMO
$end
$solvent
dielectric 37.219
opticaldielectric 1.43
$end

--------------------------------------------------------------

             Standard Nuclear Orientation (Angstroms)
    I     Atom           X                Y                Z
 ----------------------------------------------------------------
    1      C       3.7615110952     0.2361312622    -0.0005622674
    2      O       2.4271219541     0.6841385561     0.0001910986
    3      C       1.4176030069    -0.2389319997     0.0001663305
    4      C       1.6818232605    -1.6051777983     0.0002630632
    5      C       0.6248641646    -2.5329764436     0.0002134803
    6      C      -0.6791463933    -2.0943154347     0.0000659467
    7      C      -0.9744357415    -0.7153194379    -0.0000231312
    8      C      -2.4018760138    -0.3310244028    -0.0001462010
    9      O      -3.3196548460    -1.1980366153    -0.0003167410
   10      C      -2.6661044496     1.0773937186    -0.0000780942
   11      C      -1.6636820215     2.0139657983     0.0001064843
   12      C      -0.2535086911     1.7008712411     0.0001192192
   13      O       0.6004232083     2.6235880263     0.0001531014
   14      C       0.0758345330     0.2549414200     0.0000853367
   15      H       4.3745123886     1.1384996668    -0.0007252885
   16      H       3.9990258612    -0.3593112625     0.8917662794
   17      H       3.9980541981    -0.3590298090    -0.8933235452
   18      H       2.7009613822    -1.9675422631     0.0004067092
   19      H       0.8510594788    -3.5954697975     0.0003208070
   20      H      -1.5178157210    -2.7797228615     0.0000258576
   21      H      -3.7110618740     1.3760969344    -0.0001306008
   22      H      -1.8951547413     3.0756121171     0.0001791073
 ----------------------------------------------------------------

   11    -649.8735778233      3.66e-06  Convergence criterion met
 Total energy in the final basis set =     -649.8735778233
    5    -649.9671990797      6.22e-06  Convergence criterion met
 Total energy in the final basis set =     -649.9671990797

                    Orbital Energies (a.u.)
 --------------------------------------------------------------

 Alpha MOs
 -- Occupied --
-19.1517 -19.0790 -19.0769 -10.2394 -10.2273 -10.2229 -10.2133 -10.1802
-10.1770 -10.1741 -10.1694 -10.1625 -10.1623 -10.1613  -1.0703  -1.0035
 -1.0013  -0.8570  -0.8034  -0.7597  -0.7427  -0.6954  -0.6753  -0.6177
 -0.6085  -0.5606  -0.5180  -0.5062  -0.4883  -0.4717  -0.4675  -0.4556
 -0.4366  -0.4209  -0.4165  -0.4092  -0.3961  -0.3877  -0.3814  -0.3645
 -0.3594  -0.3522  -0.3340  -0.3203  -0.2802  -0.2543  -0.2464  -0.2355
 -0.2322  -0.1547

 Beta MOs
 -- Occupied --
-19.1516 -19.0729 -19.0705 -10.2394 -10.2260 -10.2211 -10.2133 -10.1799
-10.1765 -10.1737 -10.1688 -10.1623 -10.1606 -10.1600  -1.0702  -0.9927
 -0.9902  -0.8551  -0.7979  -0.7585  -0.7405  -0.6941  -0.6662  -0.6146
 -0.6063  -0.5590  -0.5159  -0.5034  -0.4867  -0.4697  -0.4670  -0.4541
 -0.4346  -0.4157  -0.4086  -0.4032  -0.3928  -0.3855  -0.3602  -0.3576
 -0.3518  -0.3506  -0.3334  -0.3157  -0.2515  -0.2484  -0.2407  -0.2299
 -0.2260

          Ground-State Mulliken Net Atomic Charges

     Atom                 Charge (a.u.)    Spin (a.u.)
  --------------------------------------------------------
      1 C                    -0.305292      -0.000429
      2 O                    -0.171709      -0.000353
      3 C                     0.248709       0.037738
      4 C                    -0.077207       0.047243
      5 C                    -0.431175       0.024470
      6 C                    -0.024670       0.042426
      7 C                     0.046177       0.015852
      8 C                    -0.344058       0.116717
      9 O                    -0.539579       0.217002
     10 C                    -0.194790       0.068492
     11 C                    -0.074148       0.136153
     12 C                    -0.307713       0.062975
     13 O                    -0.528212       0.228925
     14 C                     0.178923       0.029605
     15 H                     0.203255      -0.000159
     16 H                     0.167844       0.000367
     17 H                     0.167937       0.000367
     18 H                     0.203993      -0.002883
     19 H                     0.216864      -0.002081
     20 H                     0.169118      -0.002802
     21 H                     0.199505      -0.007690
     22 H                     0.196226      -0.011933
  --------------------------------------------------------
  Sum of atomic charges =    -1.000000

                    Cartesian Multipole Moments
 -----------------------------------------------------------------
    Charge (ESU x 10^10)
                -4.8032
    Dipole Moment (Debye)
         X       8.4730      Y      -4.3144      Z      -0.0006
       Tot       9.5082
    Quadrupole Moments (Debye-Ang)
        XX    -101.4162     XY     -20.5287     YY    -103.4510
        XZ      -0.0096     YZ      -0.0020     ZZ     -86.8394

 Total job time:  58.77s(wall), 450.67s(cpu)
        *  Thank you very much for using Q-Chem.  Have a nice day.  *
