 Gaussian 16, Revision A.03,
 Gaussian 16:  ES64L-G16RevA.03 25-Dec-2016

 ----------------------------------------------------------------------
 #P UB3LYP/6-311++G(d,p) nosym opt freq SCRF=(PCM,Solvent=n,n-DiMethylF
 ormamide)
 ----------------------------------------------------------------------

 -------
 Reduced
 -------
 Symbolic Z-matrix:
 Charge = -2 Multiplicity = 1

 SCF Done:  E(UB3LYP) =  -763.472031944     A.U. after   16 cycles
 SCF Done:  E(UB3LYP) =  -763.473076194     A.U. after   14 cycles
 SCF Done:  E(UB3LYP) =  -763.473574346     A.U. after   14 cycles
 SCF Done:  E(UB3LYP) =  -763.474358094     A.U. after   13 cycles
 SCF Done:  E(UB3LYP) =  -763.474362167     A.U. after   12 cycles
 SCF Done:  E(UB3LYP) =  -763.474382818     A.U. after   12 cycles
 SCF Done:  E(UB3LYP) =  -763.474392938     A.U. after   11 cycles
 SCF Done:  E(UB3LYP) =  -763.474403496     A.U. after   11 cycles
 SCF Done:  E(UB3LYP) =  -763.474404581     A.U. after   10 cycles
 SCF Done:  E(UB3LYP) =  -763.474405502     A.U. after   10 cycles
 SCF Done:  E(UB3LYP) =  -763.474406124     A.U. after   10 cycles
 SCF Done:  E(UB3LYP) =  -763.474406342     A.U. after    9 cycles
 SCF Done:  E(UB3LYP) =  -763.474406442     A.U. after    9 cycles
 Optimization completed.
    -- Stationary point found.
 Normal termination of Gaussian 16 at Sun Feb 11 02:45:58 2024.

 ----------------------------------------------------------------------
 #P Geom=AllCheck Guess=TCheck SCRF=Check GenChk UB3LYP/6-311++G(d,p) F
 req
 ----------------------------------------------------------------------

 Structure from the checkpoint file:  "262-an.chk"
 -------
 Reduced
 -------
 Charge = -2 Multiplicity = 1

                          Input orientation:
 ---------------------------------------------------------------------
 Center     Atomic      Atomic             Coordinates (Angstroms)
 Number     Number       Type             X           Y           Z
 ---------------------------------------------------------------------
      1          6           0        3.305011   -2.157485    0.296055
      2          6           0        2.017699   -1.699497   -0.334900
      3          8           0        1.873679   -1.469725   -1.518114
      4          8           0        1.991619    0.939989    0.607951
      5          6           0        0.798507    1.347335    0.343477
      6          6           0        0.494407    2.728059    0.223227
      7          6           0       -0.794020    3.201778   -0.059132
      8          6           0       -1.851751    2.328750   -0.237439
      9          6           0       -1.644141    0.929234   -0.139474
     10          6           0       -2.803463    0.038490   -0.328234
     11          8           0       -3.977484    0.517552   -0.573728
     12          6           0       -2.549517   -1.345015   -0.219794
     13          6           0       -1.264417   -1.844690    0.053383
     14          6           0       -0.193390   -1.000246    0.225677
     15          8           0        1.037713   -1.614059    0.581401
     16          6           0       -0.329530    0.416196    0.145159
     17          1           0        3.755610   -1.297417    0.797269
     18          1           0        3.987002   -2.528972   -0.467045
     19          1           0        3.121040   -2.927255    1.047028
     20          1           0        1.315061    3.427301    0.362962
     21          1           0       -0.958914    4.274417   -0.137605
     22          1           0       -2.850511    2.684653   -0.454167
     23          1           0       -3.379364   -2.034011   -0.349956
     24          1           0       -1.100845   -2.915384    0.135997
 ---------------------------------------------------------------------

 SCF Done:  E(UB3LYP) =  -763.474406442     A.U. after    1 cycles

 Alpha  occ. eigenvalues --  -19.15198 -19.10146 -19.02648 -19.02502 -10.29515
 Alpha  occ. eigenvalues --  -10.19220 -10.19035 -10.18611 -10.16607 -10.14878
 Alpha  occ. eigenvalues --  -10.14541 -10.14269 -10.14269 -10.12546 -10.12451
 Alpha  occ. eigenvalues --  -10.12235  -1.09412  -1.01108  -0.94251  -0.94031
 Alpha  occ. eigenvalues --   -0.81967  -0.78298  -0.74571  -0.70781  -0.69629
 Alpha  occ. eigenvalues --   -0.66615  -0.59680  -0.58656  -0.56958  -0.50343
 Alpha  occ. eigenvalues --   -0.48412  -0.48207  -0.47084  -0.46647  -0.45129
 Alpha  occ. eigenvalues --   -0.42672  -0.41796  -0.40349  -0.39282  -0.38375
 Alpha  occ. eigenvalues --   -0.37575  -0.37332  -0.36460  -0.36273  -0.35122
 Alpha  occ. eigenvalues --   -0.33574  -0.32309  -0.31610  -0.29938  -0.28174
 Alpha  occ. eigenvalues --   -0.27706  -0.27196  -0.22032  -0.20903  -0.19362
 Alpha  occ. eigenvalues --   -0.17830  -0.13734
 Alpha virt. eigenvalues --    0.00117   0.00333   0.00906   0.00965   0.01330
 Alpha virt. eigenvalues --    0.01728   0.02704   0.03384   0.03919   0.04149
 Alpha virt. eigenvalues --    0.05493   0.05832   0.05905   0.06644   0.07211

  Beta  occ. eigenvalues --  -19.15198 -19.10146 -19.02648 -19.02502 -10.29515
  Beta  occ. eigenvalues --  -10.19220 -10.19035 -10.18611 -10.16607 -10.14878
  Beta  occ. eigenvalues --  -10.14541 -10.14269 -10.14269 -10.12546 -10.12451
  Beta  occ. eigenvalues --  -10.12235  -1.09412  -1.01108  -0.94251  -0.94031
  Beta  occ. eigenvalues --   -0.81967  -0.78298  -0.74571  -0.70781  -0.69629
  Beta  occ. eigenvalues --   -0.66615  -0.59680  -0.58656  -0.56958  -0.50343
  Beta  occ. eigenvalues --   -0.48412  -0.48207  -0.47084  -0.46647  -0.45129
  Beta  occ. eigenvalues --   -0.42672  -0.41796  -0.40349  -0.39282  -0.38375
  Beta  occ. eigenvalues --   -0.37575  -0.37332  -0.36460  -0.36273  -0.35122
  Beta  occ. eigenvalues --   -0.33574  -0.32309  -0.31610  -0.29938  -0.28174
  Beta  occ. eigenvalues --   -0.27706  -0.27196  -0.22032  -0.20903  -0.19362
  Beta  occ. eigenvalues --   -0.17830  -0.13734
  Beta virt. eigenvalues --    0.00117   0.00333   0.00906   0.00965   0.01330
  Beta virt. eigenvalues --    0.01728   0.02704   0.03384   0.03919   0.04149
  Beta virt. eigenvalues --    0.05493   0.05832   0.05905   0.06644   0.07211

 Mulliken charges and spin densities:
               1          2
     1  C   -0.489457   0.000000
     2  C    0.077871  -0.000000
     3  O   -0.342776   0.000000
     4  O   -0.638397  -0.000000
     5  C   -0.092916   0.000000
     6  C   -0.246166   0.000000
     7  C   -0.340055  -0.000000
     8  C   -0.182449   0.000000
     9  C    0.398112  -0.000000
    10  C   -0.619910  -0.000000
    11  O   -0.659927   0.000000
    12  C   -0.115925   0.000000
    13  C    0.069316  -0.000000
    14  C   -0.677814   0.000000
    15  O   -0.024723  -0.000000
    16  C    0.637276  -0.000000
    17  H    0.195144  -0.000000
    18  H    0.158352   0.000000
    19  H    0.167071  -0.000000
    20  H    0.133376  -0.000000
    21  H    0.153045  -0.000000
    22  H    0.135592  -0.000000
    23  H    0.142473   0.000000
    24  H    0.162887  -0.000000
 Sum of Mulliken charges =  -2.00000   0.00000

 Dipole moment (field-independent basis, Debye):
    X=              9.2584    Y=             -6.1148    Z=              2.7061  Tot=             11.4206
 Quadrupole moment (field-independent basis, Debye-Ang):
   XX=           -169.4737   YY=           -110.6496   ZZ=           -112.4327
   XY=              1.1935   XZ=             -6.0981   YZ=             -4.5991

  Exact polarizability: 327.719   4.630 308.005  27.938  -2.929 161.782
 Approx polarizability: 362.964   0.188 341.857  35.715  -8.663 184.314

                      1                      2                      3
                      A                      A                      A
 Frequencies --     52.1194                67.4722                88.2371
 Red. masses --      4.7540                 4.2954                 6.6078
 Frc consts  --      0.0076                 0.0115                 0.0303
 IR Inten    --      3.7371                10.8769                 7.7969

                      4                      5                      6
                      A                      A                      A
 Frequencies --    112.9914               137.7838               147.8801
 Red. masses --      5.1611                 1.2571                 4.7083
 Frc consts  --      0.0388                 0.0141                 0.0607
 IR Inten    --      8.0554                 5.3931                 2.5512

                      7                      8                      9
                      A                      A                      A
 Frequencies --    196.5310               263.2690               274.1151
 Red. masses --      5.9681                 5.9186                 7.6642
 Frc consts  --      0.1358                 0.2417                 0.3393
 IR Inten    --      1.7503                 4.2644                16.0001

                     10                     11                     12
                      A                      A                      A
 Frequencies --    305.6584               359.8354               378.2683
 Red. masses --      4.3524                 9.1532                 6.4560
 Frc consts  --      0.2396                 0.6983                 0.5443
 IR Inten    --      8.8888                 6.9907                 4.0587

                     13                     14                     15
                      A                      A                      A
 Frequencies --    395.5230               472.0555               482.8489
 Red. masses --      9.5833                 6.4409                 3.8477
 Frc consts  --      0.8833                 0.8456                 0.5285
 IR Inten    --      0.9264                 0.9764                 0.1113

                     16                     17                     18
                      A                      A                      A
 Frequencies --    504.8688               530.9586               544.7956
 Red. masses --      5.3991                 7.2855                 3.6643
 Frc consts  --      0.8108                 1.2101                 0.6408
 IR Inten    --     36.7758                19.1296                 3.4140

                     19                     20                     21
                      A                      A                      A
 Frequencies --    574.5025               608.9673               624.6770
 Red. masses --      3.0237                 4.9616                 5.0968
 Frc consts  --      0.5880                 1.0841                 1.1718
 IR Inten    --     16.8983                 3.6900                 7.7222

                     22                     23                     24
                      A                      A                      A
 Frequencies --    632.2475               680.4645               713.7868
 Red. masses --      4.9085                 5.7511                 2.1955
 Frc consts  --      1.1560                 1.5690                 0.6590
 IR Inten    --     10.9431                 1.2757                10.4332

                     25                     26                     27
                      A                      A                      A
 Frequencies --    741.8219               761.6349               780.8484
 Red. masses --      1.5917                 4.2553                 3.1991
 Frc consts  --      0.5161                 1.4544                 1.1493
 IR Inten    --     92.0710               102.9942                46.2449

                     28                     29                     30
                      A                      A                      A
 Frequencies --    804.3962               816.7490               841.2385
 Red. masses --      2.4771                 4.3737                 1.7271
 Frc consts  --      0.9444                 1.7190                 0.7201
 IR Inten    --     82.7238                 0.3409                 6.6713

                     31                     32                     33
                      A                      A                      A
 Frequencies --    890.9569               929.2146               949.5151
 Red. masses --      1.5795                 3.8549                 1.2394
 Frc consts  --      0.7387                 1.9611                 0.6584
 IR Inten    --      1.1982                22.5403                 1.2154

                     34                     35                     36
                      A                      A                      A
 Frequencies --    960.3127              1001.1088              1040.8537
 Red. masses --      6.1248                 2.6203                 2.4099
 Frc consts  --      3.3279                 1.5472                 1.5382
 IR Inten    --     92.8097                41.8360               291.4036

                     37                     38                     39
                      A                      A                      A
 Frequencies --   1051.2123              1080.4217              1124.3999
 Red. masses --      1.7778                 1.6823                 1.5419
 Frc consts  --      1.1575                 1.1570                 1.1486
 IR Inten    --     27.7939                 5.3762                96.4892

                     40                     41                     42
                      A                      A                      A
 Frequencies --   1154.9328              1164.7346              1207.7645
 Red. masses --      1.2668                 1.9827                 3.6492
 Frc consts  --      0.9956                 1.5847                 3.1363
 IR Inten    --    115.3897                 7.9795                42.2596

                     43                     44                     45
                      A                      A                      A
 Frequencies --   1240.7701              1254.6071              1313.2468
 Red. masses --      4.6816                 4.3418                 2.6139
 Frc consts  --      4.2465                 4.0266                 2.6560
 IR Inten    --    453.9231               448.1712               235.3646

                     46                     47                     48
                      A                      A                      A
 Frequencies --   1327.1266              1357.1280              1382.6937
 Red. masses --      4.0273                 3.6192                 1.3466
 Frc consts  --      4.1791                 3.9274                 1.5168
 IR Inten    --    144.6261                23.0934               160.1743

                     49                     50                     51
                      A                      A                      A
 Frequencies --   1385.6628              1426.9732              1445.0921
 Red. masses --      3.9684                 5.8971                 3.1894
 Frc consts  --      4.4893                 7.0749                 3.9242
 IR Inten    --     14.2173              1361.5943               574.3807

                     52                     53                     54
                      A                      A                      A
 Frequencies --   1465.3042              1468.1136              1506.9407
 Red. masses --      1.0679                 1.0565                 4.2179
 Frc consts  --      1.3509                 1.3416                 5.6433
 IR Inten    --     28.0668                24.0244               695.5944

                     55                     56                     57
                      A                      A                      A
 Frequencies --   1565.5231              1580.6047              1597.4078
 Red. masses --      4.8124                 6.6222                 6.6537
 Frc consts  --      6.9491                 9.7476                10.0033
 IR Inten    --    192.9294                27.5468                41.9634

                     58                     59                     60
                      A                      A                      A
 Frequencies --   1735.9189              3050.2580              3115.5234
 Red. masses --     11.1473                 1.0355                 1.0852
 Frc consts  --     19.7914                 5.6763                 6.2064
 IR Inten    --    530.5387                 7.5474                59.6158

                     61                     62                     63
                      A                      A                      A
 Frequencies --   3116.2640              3136.3187              3139.6754
 Red. masses --      1.0999                 1.0858                 1.0918
 Frc consts  --      6.2934                 6.2929                 6.3412
 IR Inten    --      7.8606                68.0046               105.5995

                     64                     65                     66
                      A                      A                      A
 Frequencies --   3145.4208              3155.6359              3194.6742
 Red. masses --      1.1041                 1.0934                 1.0899
 Frc consts  --      6.4361                 6.4149                 6.5536
 IR Inten    --     19.9279                62.3484                23.5041

 - Thermochemistry -
 -------------------
 Temperature   298.150 Kelvin.  Pressure   1.00000 Atm.
 Atom     1 has atomic number  6 and mass  12.00000

 Molecular mass:   216.04226 amu.
 Principal axes and moments of inertia in atomic units:
                           1         2         3
     Eigenvalues --  2051.260683908.622975557.54673
           X            0.87338   0.47932  -0.08640
           Y           -0.48544   0.87109  -0.07449
           Z            0.03956   0.10700   0.99347
 This molecule is an asymmetric top.
 Rotational symmetry number  1.
 Warning -- assumption of classical behavior for rotation
           may cause significant error
 Rotational temperatures (Kelvin)      0.04222     0.02216     0.01558
 Rotational constants (GHZ):           0.87982     0.46173     0.32474
 Zero-point vibrational energy     445961.0 (Joules/Mol)
                                  106.58724 (Kcal/Mol)
 Warning -- explicit consideration of  20 degrees of freedom as
           vibrations may cause significant error
 Vibrational temperatures:     74.99    97.08   126.95   162.57   198.24
          (Kelvin)            212.77   282.76   378.79   394.39   439.77
                              517.72   544.24   569.07   679.18   694.71
                              726.39   763.93   783.84   826.58   876.17
                              898.77   909.66   979.04  1026.98  1067.32
                             1095.82  1123.47  1157.35  1175.12  1210.35
                             1281.89  1336.93  1366.14  1381.68  1440.37
                             1497.56  1512.46  1554.49  1617.76  1661.69
                             1675.79  1737.70  1785.19  1805.10  1889.47
                             1909.44  1952.60  1989.39  1993.66  2053.10
                             2079.17  2108.25  2112.29  2168.15  2252.44
                             2274.14  2298.31  2497.60  4388.64  4482.54
                             4483.61  4512.46  4517.29  4525.56  4540.26
                             4596.42

 Zero-point correction=                           0.169858 (Hartree/Particle)
 Thermal correction to Energy=                    0.182940
 Thermal correction to Enthalpy=                  0.183884
 Thermal correction to Gibbs Free Energy=         0.129882
 Sum of electronic and zero-point Energies=           -763.304549
 Sum of electronic and thermal Energies=              -763.291466
 Sum of electronic and thermal Enthalpies=            -763.290522
 Sum of electronic and thermal Free Energies=         -763.344524

                     E (Thermal)             CV                S
                      KCal/Mol        Cal/Mol-Kelvin    Cal/Mol-Kelvin
 Total                  114.797             50.727            113.656
 Electronic               0.000              0.000              0.000
 Translational            0.889              2.981             42.014
 Rotational               0.889              2.981             32.166
 Vibrational            113.019             44.765             39.476
 Vibration     1          0.596              1.977              4.735
 Vibration     2          0.598              1.970              4.226
 Vibration     3          0.601              1.957              3.699
 Vibration     4          0.607              1.939              3.217
 Vibration     5          0.614              1.916              2.834
 Vibration     6          0.617              1.905              2.699
 Vibration     7          0.636              1.845              2.165
 Vibration     8          0.670              1.740              1.640
 Vibration     9          0.676              1.721              1.570
 Vibration    10          0.696              1.663              1.386
 Vibration    11          0.734              1.555              1.123
 Vibration    12          0.749              1.516              1.046
 Vibration    13          0.762              1.480              0.979
 Vibration    14          0.829              1.312              0.732
 Vibration    15          0.839              1.288              0.702
 Vibration    16          0.860              1.239              0.646
 Vibration    17          0.886              1.182              0.585
 Vibration    18          0.900              1.151              0.555
 Vibration    19          0.931              1.086              0.496
 Vibration    20          0.968              1.013              0.434

 Optimization completed.
    -- Stationary point found.
 Normal termination of Gaussian 16 at Sun Feb 11 03:09:10 2024.
