 Q-Chem 5.4, Q-Chem, Inc., Pleasanton, CA (2021)
 Q-Chem 5.4.0 for Intel X86 EM64T Linux

User input:
--------------------------------------------------------------
$molecule
0 1
C                 -1.3550040000     -2.0310740000      1.1258560000
C                 -1.4205820000     -1.9980520000     -0.3553350000
C                 -0.7926880000     -1.0490490000     -1.0599480000
C                 -0.0029990000      0.0114680000     -0.3811510000
C                  0.0630520000     -0.0204280000      1.0975050000
C                 -0.5628820000     -0.9678910000      1.8145850000
O                 -1.9302300000     -2.8995130000      1.7635390000
O                  0.5690660000      0.8761970000     -1.0250620000
C                 -0.5326280000     -1.0524730000      3.3130530000
O                  0.2474040000      0.0111570000      3.8253370000
C                  0.4028940000      0.1158610000      5.1849390000
C                 -0.1597230000     -0.7628290000      6.1126810000
C                  1.1855530000      1.1904690000      5.6206540000
C                  1.4023380000      1.3821570000      6.9783970000
C                  0.0683320000     -0.5556140000      7.4759320000
C                  0.8448160000      0.5097440000      7.9167760000
H                 -2.0048560000     -2.7861370000     -0.8174120000
H                 -0.8245070000     -1.0021090000     -2.1428180000
H                  0.6428520000      0.7604370000      1.5734260000
H                 -0.1196090000     -2.0241670000      3.6124520000
H                 -1.5591820000     -1.0100740000      3.6987550000
H                 -0.7679600000     -1.5999980000      5.7976270000
H                  1.6114690000      1.8587630000      4.8819740000
H                  2.0102610000      2.2176380000      7.3069090000
H                 -0.3710600000     -1.2411440000      8.1918900000
H                  1.0158020000      0.6619470000      8.9757100000
$end
$rem
MAX_SCF_CYCLES=200
BASIS  =  6-311++G(d,p)
GUI  =  2
JOB_TYPE  =  SP
METHOD  =  B3LYP
SOLVENT_METHOD = COSMO
$end
$solvent
dielectric 37.219
opticaldielectric 1.43
$end

--------------------------------------------------------------

             Standard Nuclear Orientation (Angstroms)
    I     Atom           X                Y                Z
 ----------------------------------------------------------------
    1      C       2.4204921013    -1.4099000905    -0.0004810071
    2      C       3.8554550231    -1.0354683992    -0.0006445851
    3      C       4.2415186744     0.2460508836    -0.0001609847
    4      C       3.2421116323     1.3461669760     0.0005730022
    5      C       1.8092967541     0.9735476262     0.0005981707
    6      C       1.4105541672    -0.3089060534     0.0002184170
    7      O       2.0741834759    -2.5811305611    -0.0010950787
    8      O       3.5957083341     2.5143301199     0.0010475968
    9      C      -0.0248950362    -0.7481796808     0.0003944220
   10      O      -0.8624452441     0.3923038119    -0.0004097126
   11      C      -2.2225058354     0.2082037890    -0.0002209624
   12      C      -2.8490772285    -1.0394923014     0.0011857168
   13      C      -2.9887229031     1.3787143159    -0.0014606361
   14      C      -4.3746048844     1.2978615873    -0.0012371751
   15      C      -4.2452632592    -1.1032492663     0.0013982204
   16      C      -5.0135556697     0.0551909888     0.0001940120
   17      H       4.5568009597    -1.8625613960    -0.0011738588
   18      H       5.2833435113     0.5467571370    -0.0002474884
   19      H       1.0967737935     1.7888573150     0.0009565710
   20      H      -0.2117663694    -1.3740392193     0.8823199450
   21      H      -0.2116117897    -1.3752403338    -0.8806893506
   22      H      -2.2759635547    -1.9568814999     0.0021762087
   23      H      -2.4798982416     2.3351481926    -0.0025354609
   24      H      -4.9603287367     2.2102462150    -0.0021696078
   25      H      -4.7264485390    -2.0748829740     0.0025086248
   26      H      -6.0952947760    -0.0046726539     0.0003723090
 ----------------------------------------------------------------

    9    -727.2305050917      6.93e-06  Convergence criterion met
 Total energy in the final basis set =     -727.2305050917
    4    -727.2480832813      9.02e-06  Convergence criterion met
 Total energy in the final basis set =     -727.2480832813

                    Orbital Energies (a.u.)
 --------------------------------------------------------------

 Alpha MOs
 -- Occupied --
-19.1692 -19.1499 -19.1469 -10.2950 -10.2906 -10.2476 -10.2459 -10.2261
-10.2134 -10.2126 -10.2081 -10.1822 -10.1815 -10.1808 -10.1778 -10.1738
 -1.0870  -1.0804  -1.0764  -0.8744  -0.8618  -0.8139  -0.7637  -0.7560
 -0.7282  -0.6979  -0.6429  -0.6233  -0.6027  -0.5953  -0.5550  -0.5217
 -0.5179  -0.4987  -0.4968  -0.4895  -0.4810  -0.4580  -0.4534  -0.4510
 -0.4415  -0.4344  -0.4269  -0.4269  -0.4076  -0.3945  -0.3802  -0.3693
 -0.3426  -0.3396  -0.3163  -0.2987  -0.2972  -0.2859  -0.2663  -0.2386

          Ground-State Mulliken Net Atomic Charges

     Atom                 Charge (a.u.)
  ----------------------------------------
      1 C                    -1.182128
      2 C                     0.278637
      3 C                     0.114700
      4 C                    -0.345243
      5 C                    -0.515483
      6 C                     0.837991
      7 O                    -0.274811
      8 O                    -0.310766
      9 C                    -0.126007
     10 O                    -0.130032
     11 C                     0.492092
     12 C                    -0.044451
     13 C                    -0.101314
     14 C                    -0.272237
     15 C                    -0.341354
     16 C                    -0.415670
     17 H                     0.261436
     18 H                     0.268479
     19 H                     0.241601
     20 H                     0.263947
     21 H                     0.263879
     22 H                     0.191803
     23 H                     0.200374
     24 H                     0.222202
     25 H                     0.232171
     26 H                     0.190186
  ----------------------------------------
  Sum of atomic charges =     0.000000

                    Cartesian Multipole Moments
 -----------------------------------------------------------------
    Charge (ESU x 10^10)
                -0.0000
    Dipole Moment (Debye)
         X      -0.3029      Y      -2.0428      Z       0.0007
       Tot       2.0651
    Quadrupole Moments (Debye-Ang)
        XX     -79.1427     XY      -8.9004     YY    -105.5799
        XZ      -0.0083     YZ      -0.0182     ZZ     -95.3955

 Total job time:  64.43s(wall), 305.90s(cpu)
        *  Thank you very much for using Q-Chem.  Have a nice day.  *
