 Gaussian 16, Revision A.03,
 Gaussian 16:  ES64L-G16RevA.03 25-Dec-2016

 --------------------------------------
 #P UB3LYP/6-311++G(d,p) nosym opt freq
 --------------------------------------

 -------
 Radical
 -------
 Symbolic Z-matrix:
 Charge = -1 Multiplicity = 2

 SCF Done:  E(UB3LYP) =  -727.265383037     A.U. after   23 cycles
 SCF Done:  E(UB3LYP) =  -727.305938678     A.U. after   18 cycles
 SCF Done:  E(UB3LYP) =  -727.313391715     A.U. after   17 cycles
 SCF Done:  E(UB3LYP) =  -727.314254768     A.U. after   15 cycles
 SCF Done:  E(UB3LYP) =  -727.314372244     A.U. after   15 cycles
 SCF Done:  E(UB3LYP) =  -727.314381417     A.U. after   14 cycles
 SCF Done:  E(UB3LYP) =  -727.314382169     A.U. after   13 cycles
 Optimization completed.
    -- Stationary point found.
 Normal termination of Gaussian 16 at Wed Dec 20 01:47:10 2023.

 ----------------------------------------------------------------------
 #P Geom=AllCheck Guess=TCheck SCRF=Check GenChk UB3LYP/6-311++G(d,p) F
 req
 ----------------------------------------------------------------------

 Structure from the checkpoint file:  "065-rad.chk"
 -------
 Radical
 -------
 Charge = -1 Multiplicity = 2

                          Input orientation:
 ---------------------------------------------------------------------
 Center     Atomic      Atomic             Coordinates (Angstroms)
 Number     Number       Type             X           Y           Z
 ---------------------------------------------------------------------
      1          6           0       -1.353293   -2.033368    1.159707
      2          6           0       -1.414602   -1.998117   -0.282335
      3          6           0       -0.779769   -1.034592   -1.020962
      4          6           0        0.000346    0.020446   -0.406867
      5          6           0        0.063224   -0.013127    1.042063
      6          6           0       -0.570314   -0.975175    1.783516
      7          8           0       -1.935394   -2.918573    1.857758
      8          8           0        0.587815    0.911634   -1.085686
      9          6           0       -0.529231   -1.044310    3.284331
     10          8           0        0.260162    0.029437    3.824827
     11          6           0        0.404473    0.119961    5.163735
     12          6           0       -0.162902   -0.763869    6.093346
     13          6           0        1.187694    1.190943    5.627659
     14          6           0        1.396662    1.371107    6.987300
     15          6           0        0.057853   -0.567450    7.458419
     16          6           0        0.833132    0.492541    7.918467
     17          1           0       -1.995905   -2.782588   -0.759677
     18          1           0       -0.839412   -1.027274   -2.105980
     19          1           0        0.641506    0.766730    1.524555
     20          1           0       -0.108683   -2.005463    3.603521
     21          1           0       -1.546838   -0.991545    3.689611
     22          1           0       -0.769250   -1.595354    5.761881
     23          1           0        1.618141    1.863723    4.895288
     24          1           0        2.004571    2.204105    7.325592
     25          1           0       -0.387793   -1.259721    8.165631
     26          1           0        0.997736    0.635188    8.980569
 ---------------------------------------------------------------------

 SCF Done:  E(UB3LYP) =  -727.314382169     A.U. after    1 cycles

 Alpha  occ. eigenvalues --  -19.05546 -18.93968 -18.93648 -10.15064 -10.11536
 Alpha  occ. eigenvalues --  -10.09815 -10.09791 -10.09032 -10.08875 -10.08783
 Alpha  occ. eigenvalues --  -10.08475 -10.08129 -10.04532 -10.03210 -10.03124
 Alpha  occ. eigenvalues --  -10.03022  -0.97345  -0.86027  -0.85512  -0.77231
 Alpha  occ. eigenvalues --   -0.69919  -0.67178  -0.66582  -0.63202  -0.58304
 Alpha  occ. eigenvalues --   -0.54525  -0.52835  -0.50911  -0.46793  -0.44405
 Alpha  occ. eigenvalues --   -0.43113  -0.40151  -0.38671  -0.37161  -0.36419
 Alpha  occ. eigenvalues --   -0.34493  -0.33446  -0.33127  -0.31202  -0.29822
 Alpha  occ. eigenvalues --   -0.29565  -0.28851  -0.27313  -0.26617  -0.26305
 Alpha  occ. eigenvalues --   -0.24488  -0.23987  -0.22844  -0.22675  -0.22414
 Alpha  occ. eigenvalues --   -0.17751  -0.14455  -0.13863  -0.12505  -0.10443
 Alpha  occ. eigenvalues --   -0.09784  -0.02579
 Alpha virt. eigenvalues --    0.05953   0.06525   0.07736   0.08022   0.08922
 Alpha virt. eigenvalues --    0.10359   0.11050   0.11265   0.11646   0.12693
 Alpha virt. eigenvalues --    0.12864   0.13441   0.14443   0.14654   0.15307

  Beta  occ. eigenvalues --  -19.05548 -18.93271 -18.92865 -10.15064 -10.11545
  Beta  occ. eigenvalues --  -10.09814 -10.09790 -10.09032 -10.08876 -10.08783
  Beta  occ. eigenvalues --  -10.08338 -10.08048 -10.04442 -10.03111 -10.02986
  Beta  occ. eigenvalues --  -10.02893  -0.97348  -0.84815  -0.84152  -0.77229
  Beta  occ. eigenvalues --   -0.69480  -0.67091  -0.66451  -0.63022  -0.58062
  Beta  occ. eigenvalues --   -0.53767  -0.52703  -0.50738  -0.46576  -0.44250
  Beta  occ. eigenvalues --   -0.42805  -0.40104  -0.38620  -0.37101  -0.36393
  Beta  occ. eigenvalues --   -0.34473  -0.33040  -0.32935  -0.30936  -0.29664
  Beta  occ. eigenvalues --   -0.29445  -0.28837  -0.27269  -0.25575  -0.25168
  Beta  occ. eigenvalues --   -0.24221  -0.23132  -0.22600  -0.22173  -0.20154
  Beta  occ. eigenvalues --   -0.17746  -0.13853  -0.11682  -0.10859  -0.09784
  Beta  occ. eigenvalues --   -0.09070
  Beta virt. eigenvalues --    0.04764   0.05952   0.06547   0.07734   0.08028
  Beta virt. eigenvalues --    0.08920   0.10370   0.11056   0.11269   0.12066
  Beta virt. eigenvalues --    0.12713   0.13442   0.13781   0.14462   0.14755

 Mulliken charges and spin densities:
               1          2
     1  C   -1.252574   0.010763
     2  C    0.251728   0.121328
     3  C    0.167411   0.110753
     4  C   -0.668857   0.106207
     5  C   -0.305117   0.061457
     6  C    0.706481   0.077728
     7  O   -0.409099   0.255560
     8  O   -0.403941   0.277235
     9  C   -0.133962  -0.004794
    10  O   -0.073344  -0.000106
    11  C    0.421469  -0.003282
    12  C    0.066204  -0.000220
    13  C   -0.124932   0.000838
    14  C   -0.203128   0.000676
    15  C   -0.334743   0.000104
    16  C   -0.348204  -0.000320
    17  H    0.144131  -0.007787
    18  H    0.149301  -0.008898
    19  H    0.162512  -0.009483
    20  H    0.213089   0.006229
    21  H    0.213108   0.006233
    22  H    0.163066  -0.000208
    23  H    0.158343   0.000017
    24  H    0.154063  -0.000025
    25  H    0.166807  -0.000019
    26  H    0.120190   0.000015
 Sum of Mulliken charges =  -1.00000   1.00000

 Dipole moment (field-independent basis, Debye):
    X=              2.0625    Y=              3.3617    Z=             -4.2862  Tot=              5.8246
 Quadrupole moment (field-independent basis, Debye-Ang):
   XX=           -108.3203   YY=           -117.7679   ZZ=           -126.7097
   XY=            -11.3556   XZ=              5.9351   YZ=             10.6970

  Exact polarizability: 133.693  51.909 171.316   2.878  -8.854 248.927
 Approx polarizability: 218.257  99.853 294.878 -22.044 -47.465 339.384

                      1                      2                      3
                      A                      A                      A
 Frequencies --     23.9330                33.7207                65.5367
 Red. masses --      4.0097                 5.4789                 6.4094
 Frc consts  --      0.0014                 0.0037                 0.0162
 IR Inten    --      0.2093                 0.0465                 0.0395

                      4                      5                      6
                      A                      A                      A
 Frequencies --     92.0368               129.1999               182.5941
 Red. masses --      4.1438                 6.8027                 7.0129
 Frc consts  --      0.0207                 0.0669                 0.1378
 IR Inten    --      0.0028                15.7267                 1.4663

                      7                      8                      9
                      A                      A                      A
 Frequencies --    200.6638               230.9441               232.9137
 Red. masses --      2.8754                 7.4434                 5.2697
 Frc consts  --      0.0682                 0.2339                 0.1684
 IR Inten    --      1.2395                 5.5750                 0.0548

                     10                     11                     12
                      A                      A                      A
 Frequencies --    322.3981               404.7021               413.8354
 Red. masses --      5.7397                 9.9076                 3.2120
 Frc consts  --      0.3515                 0.9561                 0.3241
 IR Inten    --      0.2516                13.6806                 1.6298

                     13                     14                     15
                      A                      A                      A
 Frequencies --    421.4726               448.6395               473.4309
 Red. masses --      3.1140                 5.5246                10.0907
 Frc consts  --      0.3259                 0.6552                 1.3325
 IR Inten    --      0.1665                 4.8020                 0.0913

                     16                     17                     18
                      A                      A                      A
 Frequencies --    515.9778               518.1848               586.0992
 Red. masses --      2.7494                 6.3680                 2.2418
 Frc consts  --      0.4313                 1.0074                 0.4537
 IR Inten    --     10.8185                 0.2938                 3.2761

                     19                     20                     21
                      A                      A                      A
 Frequencies --    591.7967               618.5140               629.2938
 Red. masses --      5.3593                 6.4624                 6.3945
 Frc consts  --      1.1059                 1.4566                 1.4920
 IR Inten    --      0.1485                 4.6336                 0.7544

                     22                     23                     24
                      A                      A                      A
 Frequencies --    698.1380               742.7468               748.8817
 Red. masses --      2.1093                 4.9532                 5.8054
 Frc consts  --      0.6057                 1.6100                 1.9183
 IR Inten    --     28.3779                 0.0043                14.9068

                     25                     26                     27
                      A                      A                      A
 Frequencies --    752.3952               807.5647               808.0384
 Red. masses --      1.6960                 1.5861                 5.8534
 Frc consts  --      0.5657                 0.6094                 2.2518
 IR Inten    --     62.1639                18.5744                28.6409

                     28                     29                     30
                      A                      A                      A
 Frequencies --    824.7785               858.7187               879.3770
 Red. masses --      1.2533                 6.4824                 1.5240
 Frc consts  --      0.5023                 2.8164                 0.6944
 IR Inten    --      0.5859                 7.8623                 4.5123

                     31                     32                     33
                      A                      A                      A
 Frequencies --    887.8759               939.7613               941.6849
 Red. masses --      1.5247                 1.2642                 2.6781
 Frc consts  --      0.7082                 0.6578                 1.3992
 IR Inten    --     40.7881                 0.2344                 3.0995

                     34                     35                     36
                      A                      A                      A
 Frequencies --    954.3548               962.7381              1003.3258
 Red. masses --      1.3136                 1.2405                 6.0929
 Frc consts  --      0.7049                 0.6774                 3.6137
 IR Inten    --      0.0084                 0.2014                 6.2852

                     37                     38                     39
                      A                      A                      A
 Frequencies --   1019.7222              1025.7344              1045.4448
 Red. masses --      6.2913                 1.6852                 2.1169
 Frc consts  --      3.8544                 1.0446                 1.3632
 IR Inten    --    110.1188                 0.5445                43.7198

                     40                     41                     42
                      A                      A                      A
 Frequencies --   1094.2738              1102.6138              1146.3997
 Red. masses --      1.8026                 1.5658                 2.1575
 Frc consts  --      1.2718                 1.1216                 1.6706
 IR Inten    --      1.1445                13.1035                26.9977

                     43                     44                     45
                      A                      A                      A
 Frequencies --   1172.8683              1192.3601              1213.0794
 Red. masses --      1.1003                 1.1592                 2.7982
 Frc consts  --      0.8917                 0.9710                 2.4261
 IR Inten    --      3.3935                26.2264                13.4725

                     46                     47                     48
                      A                      A                      A
 Frequencies --   1239.6243              1245.1049              1284.3659
 Red. masses --      1.0649                 1.5646                 4.2830
 Frc consts  --      0.9642                 1.4291                 4.1627
 IR Inten    --      2.1629                14.8453               393.6722

                     49                     50                     51
                      A                      A                      A
 Frequencies --   1325.9013              1335.0631              1357.5464
 Red. masses --      2.3282                 2.0825                 2.0378
 Frc consts  --      2.4116                 2.1870                 2.2127
 IR Inten    --     26.0916                46.1213                28.8805

                     52                     53                     54
                      A                      A                      A
 Frequencies --   1398.1128              1445.1358              1481.5857
 Red. masses --      1.7464                 4.0496                 2.0617
 Frc consts  --      2.0113                 4.9829                 2.6664
 IR Inten    --     41.5587                27.8737                 7.3804

                     55                     56                     57
                      A                      A                      A
 Frequencies --   1484.1889              1489.1050              1522.6530
 Red. masses --      2.7387                 1.8266                 3.7889
 Frc consts  --      3.5544                 2.3863                 5.1757
 IR Inten    --      7.9237                 4.1529               414.2673

                     58                     59                     60
                      A                      A                      A
 Frequencies --   1525.7625              1531.6328              1614.0550
 Red. masses --      3.4879                 3.6946                 5.7794
 Frc consts  --      4.7839                 5.1066                 8.8709
 IR Inten    --    254.0422                 9.4510                36.0419

                     61                     62                     63
                      A                      A                      A
 Frequencies --   1639.1036              1649.3385              3000.5077
 Red. masses --      5.6816                 6.9945                 1.0551
 Frc consts  --      8.9936                11.2106                 5.5966
 IR Inten    --    137.7485                 4.2055                24.5366

                     64                     65                     66
                      A                      A                      A
 Frequencies --   3029.8114              3131.8913              3148.9479
 Red. masses --      1.1064                 1.0851                 1.0845
 Frc consts  --      5.9839                 6.2707                 6.3360
 IR Inten    --     26.6996                21.2788                 2.2836

                     67                     68                     69
                      A                      A                      A
 Frequencies --   3154.2241              3157.3102              3176.5113
 Red. masses --      1.0945                 1.0894                 1.0941
 Frc consts  --      6.4159                 6.3985                 6.5047
 IR Inten    --     50.8963                26.0775                43.2748

                     70                     71                     72
                      A                      A                      A
 Frequencies --   3177.4382              3188.6347              3210.6155
 Red. masses --      1.0891                 1.0943                 1.0917
 Frc consts  --      6.4786                 6.5551                 6.6300
 IR Inten    --      7.3915                 7.3729                 2.7719

 - Thermochemistry -
 -------------------
 Temperature   298.150 Kelvin.  Pressure   1.00000 Atm.
 Atom     1 has atomic number  6 and mass  12.00000

 Molecular mass:   214.06299 amu.
 Principal axes and moments of inertia in atomic units:
                           1         2         3
     Eigenvalues --  1428.217707457.441058874.48827
           X            0.18289   0.54783   0.81636
           Y            0.17714   0.79841  -0.57547
           Z            0.96704  -0.24985  -0.04898
 This molecule is an asymmetric top.
 Rotational symmetry number  1.
 Warning -- assumption of classical behavior for rotation
           may cause significant error
 Rotational temperatures (Kelvin)      0.06064     0.01161     0.00976
 Rotational constants (GHZ):           1.26363     0.24201     0.20336
 Zero-point vibrational energy     513813.7 (Joules/Mol)
                                  122.80441 (Kcal/Mol)
 Warning -- explicit consideration of  20 degrees of freedom as
           vibrations may cause significant error
 Vibrational temperatures:     34.43    48.52    94.29   132.42   185.89
          (Kelvin)            262.71   288.71   332.28   335.11   463.86
                              582.28   595.42   606.41   645.49   681.16
                              742.38   745.55   843.27   851.46   889.90
                              905.41  1004.46  1068.65  1077.47  1082.53
                             1161.91  1162.59  1186.67  1235.50  1265.23
                             1277.46  1352.11  1354.87  1373.10  1385.17
                             1443.56  1467.15  1475.80  1504.16  1574.42
                             1586.42  1649.41  1687.50  1715.54  1745.35
                             1783.54  1791.43  1847.92  1907.68  1920.86
                             1953.21  2011.57  2079.23  2131.67  2135.42
                             2142.49  2190.76  2195.23  2203.68  2322.27
                             2358.30  2373.03  4317.06  4359.22  4506.09
                             4530.63  4538.23  4542.67  4570.29  4571.62
                             4587.73  4619.36

 Zero-point correction=                           0.195701 (Hartree/Particle)
 Thermal correction to Energy=                    0.208899
 Thermal correction to Enthalpy=                  0.209843
 Thermal correction to Gibbs Free Energy=         0.153184
 Sum of electronic and zero-point Energies=           -727.118681
 Sum of electronic and thermal Energies=              -727.105483
 Sum of electronic and thermal Enthalpies=            -727.104539
 Sum of electronic and thermal Free Energies=         -727.161198

                     E (Thermal)             CV                S
                      KCal/Mol        Cal/Mol-Kelvin    Cal/Mol-Kelvin
 Total                  131.086             51.006            119.249
 Electronic               0.000              0.000              1.377
 Translational            0.889              2.981             41.987
 Rotational               0.889              2.981             32.913
 Vibrational            129.308             45.045             42.971
 Vibration     1          0.593              1.985              6.278
 Vibration     2          0.594              1.983              5.598
 Vibration     3          0.597              1.971              4.283
 Vibration     4          0.602              1.955              3.616
 Vibration     5          0.612              1.924              2.958
 Vibration     6          0.630              1.863              2.302
 Vibration     7          0.638              1.839              2.127
 Vibration     8          0.653              1.794              1.872
 Vibration     9          0.654              1.791              1.856
 Vibration    10          0.707              1.631              1.298
 Vibration    11          0.770              1.460              0.946
 Vibration    12          0.777              1.440              0.913
 Vibration    13          0.784              1.424              0.887
 Vibration    14          0.808              1.364              0.800
 Vibration    15          0.830              1.309              0.728
 Vibration    16          0.871              1.215              0.619
 Vibration    17          0.873              1.210              0.614
 Vibration    18          0.943              1.061              0.474
 Vibration    19          0.949              1.049              0.464
 Vibration    20          0.978              0.993              0.419

 Optimization completed.
    -- Stationary point found.
 Normal termination of Gaussian 16 at Wed Dec 20 02:20:22 2023.
