 Q-Chem 5.4, Q-Chem, Inc., Pleasanton, CA (2021)
 Q-Chem 5.4.0 for Intel X86 EM64T Linux

User input:
--------------------------------------------------------------
$molecule
0 1
C                  2.9064240000      2.5203060000     -0.3617340000
O                  2.5440130000      1.1511030000     -0.2392320000
C                  1.2388050000      0.8123170000     -0.1632530000
C                  0.2170920000      1.7673700000     -0.1917370000
C                 -1.1135770000      1.3941090000     -0.1176010000
C                 -1.4825980000      0.0489260000     -0.0118490000
O                 -2.7739820000     -0.3406100000      0.0570870000
C                 -3.8041890000      0.6380760000      0.0144990000
C                 -0.4711600000     -0.9420990000      0.0200750000
C                 -0.8369580000     -2.3914790000      0.1283760000
O                 -1.9808040000     -2.7995330000      0.2517110000
C                  0.2628690000     -3.3807160000      0.0837050000
C                  1.5458830000     -3.0207300000      0.0134990000
C                  1.9708560000     -1.6036710000     -0.0253970000
O                  3.1660450000     -1.3554020000     -0.0292920000
C                  0.8975440000     -0.5581430000     -0.0556460000
H                  3.9936600000      2.5257290000     -0.4092960000
H                  2.5792870000      3.1026960000      0.5063690000
H                  2.5013120000      2.9640820000     -1.2776480000
H                  0.4553400000      2.8184750000     -0.2728090000
H                 -1.8692170000      2.1664390000     -0.1433080000
H                 -4.7347180000      0.0775530000      0.0801670000
H                 -3.7378940000      1.3297120000      0.8613030000
H                 -3.7860760000      1.2017650000     -0.9245720000
H                 -0.0543060000     -4.4168640000      0.1301870000
H                  2.3573510000     -3.7402130000     -0.0017270000
$end

$rem
BASIS  =  6-311++G(d,p)
GUI  =  2
JOB_TYPE  =  SP
METHOD  =  B3LYP
SCF_CONVERGENCE  = 8
SOLVENT_METHOD = sm12
$end

$smx
solvent dimethylformamide
charges CM5
$end

--------------------------------------------------------------

             Standard Nuclear Orientation (Angstroms)
    I     Atom           X                Y                Z
 ----------------------------------------------------------------
    1      C       2.9064240000     2.5203060000    -0.3617340000
    2      O       2.5440130000     1.1511030000    -0.2392320000
    3      C       1.2388050000     0.8123170000    -0.1632530000
    4      C       0.2170920000     1.7673700000    -0.1917370000
    5      C      -1.1135770000     1.3941090000    -0.1176010000
    6      C      -1.4825980000     0.0489260000    -0.0118490000
    7      O      -2.7739820000    -0.3406100000     0.0570870000
    8      C      -3.8041890000     0.6380760000     0.0144990000
    9      C      -0.4711600000    -0.9420990000     0.0200750000
   10      C      -0.8369580000    -2.3914790000     0.1283760000
   11      O      -1.9808040000    -2.7995330000     0.2517110000
   12      C       0.2628690000    -3.3807160000     0.0837050000
   13      C       1.5458830000    -3.0207300000     0.0134990000
   14      C       1.9708560000    -1.6036710000    -0.0253970000
   15      O       3.1660450000    -1.3554020000    -0.0292920000
   16      C       0.8975440000    -0.5581430000    -0.0556460000
   17      H       3.9936600000     2.5257290000    -0.4092960000
   18      H       2.5792870000     3.1026960000     0.5063690000
   19      H       2.5013120000     2.9640820000    -1.2776480000
   20      H       0.4553400000     2.8184750000    -0.2728090000
   21      H      -1.8692170000     2.1664390000    -0.1433080000
   22      H      -4.7347180000     0.0775530000     0.0801670000
   23      H      -3.7378940000     1.3297120000     0.8613030000
   24      H      -3.7860760000     1.2017650000    -0.9245720000
   25      H      -0.0543060000    -4.4168640000     0.1301870000
   26      H       2.3573510000    -3.7402130000    -0.0017270000
 ----------------------------------------------------------------

   15    -764.3469742571      3.75e-09  Convergence criterion met
 Total energy in the final basis set =     -764.3703770401

                    Orbital Energies (a.u.)
 --------------------------------------------------------------

 Alpha MOs
 -- Occupied --
-19.1607 -19.1606 -19.1184 -19.1184 -10.2731 -10.2731 -10.2578 -10.2578
-10.2190 -10.2190 -10.2083 -10.2079 -10.2015 -10.2007 -10.1970 -10.1964
 -1.0828  -1.0818  -1.0524  -1.0507  -0.8816  -0.8341  -0.7810  -0.7796
 -0.7242  -0.6970  -0.6895  -0.6439  -0.6344  -0.5771  -0.5446  -0.5410
 -0.5181  -0.5171  -0.4937  -0.4798  -0.4768  -0.4714  -0.4532  -0.4399
 -0.4390  -0.4341  -0.4211  -0.4199  -0.4079  -0.4058  -0.3908  -0.3879
 -0.3563  -0.3474  -0.3413  -0.3094  -0.2978  -0.2816  -0.2664  -0.2567
 -0.2250

          Ground-State Mulliken Net Atomic Charges

     Atom                 Charge (a.u.)
  ----------------------------------------
      1 C                    -0.182755
      2 O                    -0.197388
      3 C                     0.083915
      4 C                     1.462381
      5 C                     1.459841
      6 C                     0.089565
      7 O                    -0.197546
      8 C                    -0.182421
      9 C                    -1.180088
     10 C                    -1.087892
     11 O                    -0.315776
     12 C                     0.070241
     13 C                     0.069724
     14 C                    -1.082478
     15 O                    -0.315555
     16 C                    -1.185796
     17 H                     0.205756
     18 H                     0.232209
     19 H                     0.232139
     20 H                     0.389055
     21 H                     0.389496
     22 H                     0.206094
     23 H                     0.232432
     24 H                     0.231767
     25 H                     0.286496
     26 H                     0.286585
  ----------------------------------------
  Sum of atomic charges =     0.000000

                    Cartesian Multipole Moments
 -----------------------------------------------------------------
    Charge (ESU x 10^10)
                 0.0000
    Dipole Moment (Debye)
         X      -1.8216      Y       6.3583      Z      -0.6571
       Tot       6.6467
    Quadrupole Moments (Debye-Ang)
        XX     -96.3869     XY      -5.0614     YY     -79.8094
        XZ       0.3440     YZ      -0.4784     ZZ     -93.3708

 Total job time:  475.87s(wall), 3664.92s(cpu)
        *  Thank you very much for using Q-Chem.  Have a nice day.  *
