 Gaussian 16, Revision A.03,
 Gaussian 16:  ES64L-G16RevA.03 25-Dec-2016

 --------------------------------------
 #P UB3LYP/6-311++G(d,p) nosym opt freq
 --------------------------------------

 --------
 Oxidized
 --------
 Symbolic Z-matrix:
 Charge =  0 Multiplicity = 1

 SCF Done:  E(UB3LYP) =  -764.350132958     A.U. after   16 cycles
 SCF Done:  E(UB3LYP) =  -764.350144243     A.U. after   12 cycles
 SCF Done:  E(UB3LYP) =  -764.350134946     A.U. after   11 cycles
 SCF Done:  E(UB3LYP) =  -764.350148913     A.U. after   11 cycles
 SCF Done:  E(UB3LYP) =  -764.350150199     A.U. after   10 cycles
 SCF Done:  E(UB3LYP) =  -764.350150262     A.U. after    9 cycles
 SCF Done:  E(UB3LYP) =  -764.350150298     A.U. after    9 cycles
 SCF Done:  E(UB3LYP) =  -764.350150340     A.U. after   10 cycles
 SCF Done:  E(UB3LYP) =  -764.350150375     A.U. after   10 cycles
 SCF Done:  E(UB3LYP) =  -764.350150406     A.U. after   10 cycles
 SCF Done:  E(UB3LYP) =  -764.350150435     A.U. after   10 cycles
 SCF Done:  E(UB3LYP) =  -764.350150462     A.U. after   10 cycles
 SCF Done:  E(UB3LYP) =  -764.350150489     A.U. after   10 cycles
 SCF Done:  E(UB3LYP) =  -764.350150512     A.U. after   10 cycles
 SCF Done:  E(UB3LYP) =  -764.350150532     A.U. after   10 cycles
 SCF Done:  E(UB3LYP) =  -764.350150544     A.U. after    9 cycles
 Optimization completed.
    -- Stationary point found.
 Normal termination of Gaussian 16 at Fri Jan 19 05:11:09 2024.

 ----------------------------------------------------------------------
 #P Geom=AllCheck Guess=TCheck SCRF=Check GenChk UB3LYP/6-311++G(d,p) F
 req
 ----------------------------------------------------------------------

 Structure from the checkpoint file:  "261.chk"
 --------
 Oxidized
 --------
 Charge =  0 Multiplicity = 1

                          Input orientation:
 ---------------------------------------------------------------------
 Center     Atomic      Atomic             Coordinates (Angstroms)
 Number     Number       Type             X           Y           Z
 ---------------------------------------------------------------------
      1          6           0        2.906424    2.520306   -0.361734
      2          8           0        2.544013    1.151103   -0.239232
      3          6           0        1.238805    0.812317   -0.163253
      4          6           0        0.217092    1.767370   -0.191737
      5          6           0       -1.113577    1.394109   -0.117601
      6          6           0       -1.482598    0.048926   -0.011849
      7          8           0       -2.773982   -0.340610    0.057087
      8          6           0       -3.804189    0.638076    0.014499
      9          6           0       -0.471160   -0.942099    0.020075
     10          6           0       -0.836958   -2.391479    0.128376
     11          8           0       -1.980804   -2.799533    0.251711
     12          6           0        0.262869   -3.380716    0.083705
     13          6           0        1.545883   -3.020730    0.013499
     14          6           0        1.970856   -1.603671   -0.025397
     15          8           0        3.166045   -1.355402   -0.029292
     16          6           0        0.897544   -0.558143   -0.055646
     17          1           0        3.993660    2.525729   -0.409296
     18          1           0        2.579287    3.102696    0.506369
     19          1           0        2.501312    2.964082   -1.277648
     20          1           0        0.455340    2.818475   -0.272809
     21          1           0       -1.869217    2.166439   -0.143308
     22          1           0       -4.734718    0.077553    0.080167
     23          1           0       -3.737894    1.329712    0.861303
     24          1           0       -3.786076    1.201765   -0.924572
     25          1           0       -0.054306   -4.416864    0.130187
     26          1           0        2.357351   -3.740213   -0.001727
 ---------------------------------------------------------------------

 SCF Done:  E(UB3LYP) =  -764.350150544     A.U. after    2 cycles

 Alpha  occ. eigenvalues --  -19.16796 -19.16795 -19.11509 -19.11509 -10.26985
 Alpha  occ. eigenvalues --  -10.26984 -10.26096 -10.26094 -10.23772 -10.23771
 Alpha  occ. eigenvalues --  -10.21033 -10.20988 -10.20318 -10.20259 -10.20001
 Alpha  occ. eigenvalues --  -10.19916  -1.09001  -1.08895  -1.04852  -1.04670
 Alpha  occ. eigenvalues --   -0.88485  -0.83372  -0.78778  -0.78282  -0.73632
 Alpha  occ. eigenvalues --   -0.70491  -0.69282  -0.64615  -0.63847  -0.58527
 Alpha  occ. eigenvalues --   -0.54898  -0.54882  -0.52473  -0.52074  -0.49414
 Alpha  occ. eigenvalues --   -0.49087  -0.48547  -0.47715  -0.45968  -0.44580
 Alpha  occ. eigenvalues --   -0.43998  -0.43914  -0.43325  -0.42392  -0.40660
 Alpha  occ. eigenvalues --   -0.40416  -0.39431  -0.39336  -0.36614  -0.35630
 Alpha  occ. eigenvalues --   -0.35051  -0.31686  -0.29534  -0.28377  -0.26183
 Alpha  occ. eigenvalues --   -0.25310  -0.22915
 Alpha virt. eigenvalues --   -0.11373  -0.03569  -0.03481  -0.02029  -0.00705
 Alpha virt. eigenvalues --    0.00528   0.01344   0.01839   0.01927   0.02697
 Alpha virt. eigenvalues --    0.03279   0.03772   0.03843   0.04266   0.04786

  Beta  occ. eigenvalues --  -19.16796 -19.16795 -19.11509 -19.11509 -10.26985
  Beta  occ. eigenvalues --  -10.26984 -10.26096 -10.26094 -10.23772 -10.23771
  Beta  occ. eigenvalues --  -10.21033 -10.20988 -10.20318 -10.20259 -10.20001
  Beta  occ. eigenvalues --  -10.19916  -1.09001  -1.08895  -1.04852  -1.04670
  Beta  occ. eigenvalues --   -0.88485  -0.83372  -0.78778  -0.78282  -0.73632
  Beta  occ. eigenvalues --   -0.70491  -0.69282  -0.64615  -0.63847  -0.58527
  Beta  occ. eigenvalues --   -0.54898  -0.54882  -0.52473  -0.52074  -0.49414
  Beta  occ. eigenvalues --   -0.49087  -0.48547  -0.47715  -0.45968  -0.44580
  Beta  occ. eigenvalues --   -0.43998  -0.43914  -0.43325  -0.42392  -0.40660
  Beta  occ. eigenvalues --   -0.40416  -0.39431  -0.39336  -0.36614  -0.35630
  Beta  occ. eigenvalues --   -0.35051  -0.31686  -0.29534  -0.28377  -0.26183
  Beta  occ. eigenvalues --   -0.25310  -0.22915
  Beta virt. eigenvalues --   -0.11373  -0.03569  -0.03481  -0.02029  -0.00705
  Beta virt. eigenvalues --    0.00528   0.01344   0.01839   0.01927   0.02697
  Beta virt. eigenvalues --    0.03279   0.03772   0.03843   0.04266   0.04786

 Mulliken charges and spin densities:
               1          2
     1  C   -0.296798  -0.000000
     2  O   -0.100671   0.000000
     3  C   -0.001952  -0.000000
     4  C   -0.155447   0.000000
     5  C   -0.155535   0.000000
     6  C    0.000380   0.000000
     7  O   -0.100683  -0.000000
     8  C   -0.296721   0.000000
     9  C    0.047793  -0.000000
    10  C   -0.058352  -0.000000
    11  O   -0.238272   0.000000
    12  C   -0.087583  -0.000000
    13  C   -0.088373  -0.000000
    14  C   -0.057500  -0.000000
    15  O   -0.238283  -0.000000
    16  C    0.047223   0.000000
    17  H    0.203881   0.000000
    18  H    0.147254  -0.000000
    19  H    0.145721  -0.000000
    20  H    0.182953   0.000000
    21  H    0.182953   0.000000
    22  H    0.203874  -0.000000
    23  H    0.147231   0.000000
    24  H    0.145730   0.000000
    25  H    0.210570  -0.000000
    26  H    0.210607   0.000000
 Sum of Mulliken charges =  -0.00000  -0.00000

 Dipole moment (field-independent basis, Debye):
    X=             -1.3818    Y=              4.8191    Z=             -0.5457  Tot=              5.0429
 Quadrupole moment (field-independent basis, Debye-Ang):
   XX=            -97.1815   YY=            -81.4854   ZZ=            -93.4104
   XY=             -4.7848   XZ=              0.3363   YZ=             -0.3131

  Exact polarizability: 210.344   4.389 194.789  -4.997  -7.169  85.242
 Approx polarizability: 363.838  18.697 300.632  -9.653 -11.913 133.687

                      1                      2                      3
                      A                      A                      A
 Frequencies --     13.7709                31.3436                69.5867
 Red. masses --      6.4550                 7.7554                 3.2616
 Frc consts  --      0.0007                 0.0045                 0.0093
 IR Inten    --     12.9403                 0.0076                 0.7341

                      4                      5                      6
                      A                      A                      A
 Frequencies --     90.1292               103.3400               197.0741
 Red. masses --      3.5827                 3.9423                 3.2502
 Frc consts  --      0.0171                 0.0248                 0.0744
 IR Inten    --      0.0039                 4.0051                 0.5431

                      7                      8                      9
                      A                      A                      A
 Frequencies --    207.2258               223.2571               236.8248
 Red. masses --      5.1459                 5.8491                 2.1104
 Frc consts  --      0.1302                 0.1718                 0.0697
 IR Inten    --      3.4042                 1.3140                 0.0227

                     10                     11                     12
                      A                      A                      A
 Frequencies --    239.4414               260.4068               336.1849
 Red. masses --      1.4600                 1.1459                 4.1192
 Frc consts  --      0.0493                 0.0458                 0.2743
 IR Inten    --      0.0122                 0.7905                 5.3325

                     13                     14                     15
                      A                      A                      A
 Frequencies --    350.6155               351.2077               379.3024
 Red. masses --      6.0649                 8.4434                 4.6627
 Frc consts  --      0.4393                 0.6136                 0.3952
 IR Inten    --      1.9242                 0.4864                 0.0011

                     16                     17                     18
                      A                      A                      A
 Frequencies --    391.9023               443.6091               488.7823
 Red. masses --     10.0994                11.1412                 5.4142
 Frc consts  --      0.9139                 1.2918                 0.7621
 IR Inten    --      4.0529                19.3142                 0.0189

                     19                     20                     21
                      A                      A                      A
 Frequencies --    502.5846               519.3941               545.6828
 Red. masses --      6.6651                 5.0887                 2.8654
 Frc consts  --      0.9919                 0.8088                 0.5027
 IR Inten    --      8.4284                 0.7285                 1.0518

                     22                     23                     24
                      A                      A                      A
 Frequencies --    632.2006               655.3315               662.7487
 Red. masses --      6.0628                 2.2937                 4.4069
 Frc consts  --      1.4277                 0.5804                 1.1405
 IR Inten    --     23.6645                 9.2874                 1.0572

                     25                     26                     27
                      A                      A                      A
 Frequencies --    716.4415               734.3867               760.1234
 Red. masses --      6.1998                 5.7440                 5.8107
 Frc consts  --      1.8749                 1.8252                 1.9781
 IR Inten    --      0.0327                19.8677                 0.5196

                     28                     29                     30
                      A                      A                      A
 Frequencies --    803.1189               818.5382               874.6801
 Red. masses --     10.1281                 1.6316                 2.1711
 Frc consts  --      3.8489                 0.6441                 0.9787
 IR Inten    --      0.0385                31.4310                46.9905

                     31                     32                     33
                      A                      A                      A
 Frequencies --    874.8085               917.3811               926.7585
 Red. masses --      7.7811                 6.8772                 1.3368
 Frc consts  --      3.5085                 3.4101                 0.6765
 IR Inten    --      3.9682                 4.0894                 0.0006

                     34                     35                     36
                      A                      A                      A
 Frequencies --   1015.8771              1048.3409              1074.6204
 Red. masses --      1.2513                 5.4791                 6.3597
 Frc consts  --      0.7608                 3.5478                 4.3271
 IR Inten    --      0.0382               153.6629                45.8953

                     37                     38                     39
                      A                      A                      A
 Frequencies --   1120.2732              1123.6447              1163.6948
 Red. masses --      4.2744                 1.7432                 1.2726
 Frc consts  --      3.1606                 1.2968                 1.0154
 IR Inten    --    119.7758                45.3136                 0.0013

                     40                     41                     42
                      A                      A                      A
 Frequencies --   1163.9725              1187.4757              1204.7317
 Red. masses --      1.2734                 1.3998                 1.3588
 Frc consts  --      1.0165                 1.1630                 1.1620
 IR Inten    --      1.6761                 1.6470                 2.1687

                     43                     44                     45
                      A                      A                      A
 Frequencies --   1206.6295              1267.1232              1269.3882
 Red. masses --      1.3176                 2.3453                 2.7534
 Frc consts  --      1.1303                 2.2186                 2.6141
 IR Inten    --     71.9949                70.5312               231.9427

                     46                     47                     48
                      A                      A                      A
 Frequencies --   1307.0868              1308.6721              1344.6469
 Red. masses --      5.3025                 3.9868                 7.4613
 Frc consts  --      5.3375                 4.0229                 7.9484
 IR Inten    --    158.2538               318.3775                29.7457

                     49                     50                     51
                      A                      A                      A
 Frequencies --   1392.5044              1420.1169              1461.1155
 Red. masses --      1.8904                 5.5882                 1.5090
 Frc consts  --      2.1597                 6.6401                 1.8980
 IR Inten    --      0.6930                35.5587                78.5375

                     52                     53                     54
                      A                      A                      A
 Frequencies --   1479.3171              1495.8832              1496.0440
 Red. masses --      1.2124                 1.3726                 1.0491
 Frc consts  --      1.5633                 1.8096                 1.3834
 IR Inten    --      0.9773                99.6477                19.7012

                     55                     56                     57
                      A                      A                      A
 Frequencies --   1496.1472              1501.7707              1505.4895
 Red. masses --      1.0556                 1.0604                 1.3422
 Frc consts  --      1.3922                 1.4090                 1.7924
 IR Inten    --      3.7774                 7.7293                 0.0759

                     58                     59                     60
                      A                      A                      A
 Frequencies --   1595.9185              1620.6676              1682.2652
 Red. masses --      5.6876                 6.2593                 9.0872
 Frc consts  --      8.5350                 9.6864                15.1520
 IR Inten    --    137.5228                96.5323                34.8935

                     61                     62                     63
                      A                      A                      A
 Frequencies --   1715.1535              1716.6739              3002.8171
 Red. masses --     11.6644                 9.0752                 1.0350
 Frc consts  --     20.2171                15.7574                 5.4984
 IR Inten    --    470.8580                10.6761                39.4168

                     64                     65                     66
                      A                      A                      A
 Frequencies --   3003.6664              3063.8103              3063.9063
 Red. masses --      1.0351                 1.1063                 1.1063
 Frc consts  --      5.5023                 6.1183                 6.1188
 IR Inten    --     94.7500                 0.1413                71.5356

                     67                     68                     69
                      A                      A                      A
 Frequencies --   3139.1828              3139.3206              3171.4900
 Red. masses --      1.0985                 1.0986                 1.0868
 Frc consts  --      6.3782                 6.3788                 6.4407
 IR Inten    --     28.2060                 2.2738                 1.3356

                     70                     71                     72
                      A                      A                      A
 Frequencies --   3190.4285              3205.4149              3220.0963
 Red. masses --      1.0994                 1.0868                 1.0933
 Frc consts  --      6.5933                 6.5789                 6.6790
 IR Inten    --      8.1077                 6.0707                 3.6622

 - Thermochemistry -
 -------------------
 Temperature   298.150 Kelvin.  Pressure   1.00000 Atm.
 Atom     1 has atomic number  6 and mass  12.00000

 Molecular mass:   218.05791 amu.
 Principal axes and moments of inertia in atomic units:
                           1         2         3
     Eigenvalues --  2500.897493550.173706026.18257
           X            0.96146  -0.27246   0.03689
           Y            0.26972   0.96068   0.06587
           Z           -0.05338  -0.05338   0.99715
 This molecule is an asymmetric top.
 Rotational symmetry number  1.
 Warning -- assumption of classical behavior for rotation
           may cause significant error
 Rotational temperatures (Kelvin)      0.03463     0.02440     0.01437
 Rotational constants (GHZ):           0.72164     0.50835     0.29948
 Zero-point vibrational energy     514056.7 (Joules/Mol)
                                  122.86249 (Kcal/Mol)
 Warning -- explicit consideration of  21 degrees of freedom as
           vibrations may cause significant error
 Vibrational temperatures:     19.81    45.10   100.12   129.68   148.68
          (Kelvin)            283.55   298.15   321.22   340.74   344.50
                              374.67   483.70   504.46   505.31   545.73
                              563.86   638.25   703.25   723.11   747.29
                              785.12   909.60   942.88   953.55  1030.80
                             1056.62  1093.65  1155.51  1177.69  1258.47
                             1258.65  1319.91  1333.40  1461.62  1508.33
                             1546.14  1611.82  1616.67  1674.30  1674.70
                             1708.51  1733.34  1736.07  1823.11  1826.37
                             1880.61  1882.89  1934.65  2003.50  2043.23
                             2102.22  2128.41  2152.24  2152.47  2152.62
                             2160.71  2166.06  2296.17  2331.78  2420.40
                             2467.72  2469.91  4320.38  4321.61  4408.14
                             4408.28  4516.58  4516.78  4563.07  4590.32
                             4611.88  4633.00

 Zero-point correction=                           0.195794 (Hartree/Particle)
 Thermal correction to Energy=                    0.210097
 Thermal correction to Enthalpy=                  0.211041
 Thermal correction to Gibbs Free Energy=         0.152689
 Sum of electronic and zero-point Energies=           -764.154357
 Sum of electronic and thermal Energies=              -764.140054
 Sum of electronic and thermal Enthalpies=            -764.139110
 Sum of electronic and thermal Free Energies=         -764.197462

                     E (Thermal)             CV                S
                      KCal/Mol        Cal/Mol-Kelvin    Cal/Mol-Kelvin
 Total                  131.838             53.231            122.812
 Electronic               0.000              0.000              0.000
 Translational            0.889              2.981             42.042
 Rotational               0.889              2.981             32.348
 Vibrational            130.060             47.270             48.422
 Vibration     1          0.593              1.986              7.375
 Vibration     2          0.594              1.983              5.743
 Vibration     3          0.598              1.969              4.165
 Vibration     4          0.602              1.956              3.657
 Vibration     5          0.605              1.947              3.390
 Vibration     6          0.636              1.844              2.160
 Vibration     7          0.641              1.830              2.068
 Vibration     8          0.649              1.806              1.933
 Vibration     9          0.656              1.784              1.827
 Vibration    10          0.657              1.780              1.807
 Vibration    11          0.668              1.745              1.659
 Vibration    12          0.717              1.603              1.230
 Vibration    13          0.728              1.574              1.163
 Vibration    14          0.728              1.573              1.161
 Vibration    15          0.749              1.514              1.042
 Vibration    16          0.759              1.487              0.993
 Vibration    17          0.803              1.375              0.815
 Vibration    18          0.845              1.275              0.687
 Vibration    19          0.858              1.244              0.652
 Vibration    20          0.874              1.207              0.611
 Vibration    21          0.901              1.149              0.553

 Optimization completed.
    -- Stationary point found.
 Normal termination of Gaussian 16 at Fri Jan 19 06:05:34 2024.
