 Gaussian 16, Revision A.03,
 Gaussian 16:  ES64L-G16RevA.03 25-Dec-2016

 ----------------------------------------------------------------------
 #P UB3LYP/6-311++G(d,p) nosym opt freq SCRF=(PCM,Solvent=n,n-DiMethylF
 ormamide)
 ----------------------------------------------------------------------

 -------
 Reduced
 -------
 Symbolic Z-matrix:
 Charge = -2 Multiplicity = 1

 SCF Done:  E(UB3LYP) =  -1168.48002229     A.U. after   18 cycles
 SCF Done:  E(UB3LYP) =  -1168.48140063     A.U. after   13 cycles
 SCF Done:  E(UB3LYP) =  -1168.48162448     A.U. after   13 cycles
 SCF Done:  E(UB3LYP) =  -1168.48161167     A.U. after   13 cycles
 SCF Done:  E(UB3LYP) =  -1168.48166252     A.U. after   13 cycles
 SCF Done:  E(UB3LYP) =  -1168.48166728     A.U. after   11 cycles
 SCF Done:  E(UB3LYP) =  -1168.48166817     A.U. after   11 cycles
 Optimization completed.
    -- Stationary point found.
 Normal termination of Gaussian 16 at Sun Feb 11 02:02:49 2024.

 ----------------------------------------------------------------------
 #P Geom=AllCheck Guess=TCheck SCRF=Check GenChk UB3LYP/6-311++G(d,p) F
 req
 ----------------------------------------------------------------------

 Structure from the checkpoint file:  "230-an.chk"
 -------
 Reduced
 -------
 Charge = -2 Multiplicity = 1

                          Input orientation:
 ---------------------------------------------------------------------
 Center     Atomic      Atomic             Coordinates (Angstroms)
 Number     Number       Type             X           Y           Z
 ---------------------------------------------------------------------
      1          6           0        5.734048   -5.233114    1.106081
      2          6           0        6.475290   -5.297988   -0.057418
      3          6           0        6.233976   -4.362440   -1.093425
      4          6           0        4.725604   -4.257012    1.304025
      5          6           0        4.474136   -3.308195    0.247229
      6          6           0        5.259275   -3.399592   -0.934414
      7          6           0        3.994730   -4.228466    2.563173
      8          6           0        3.014539   -3.215005    2.612383
      9          6           0        2.706274   -2.303335    1.569601
     10          6           0        3.448131   -2.303312    0.362020
     11          8           0        4.257040   -5.055098    3.529011
     12          8           0        3.198553   -1.422999   -0.583035
     13          1           0        5.908548   -5.939787    1.909839
     14          1           0        7.239129   -6.059856   -0.178798
     15          1           0        5.064299   -2.678404   -1.720070
     16         17           0        2.137717   -3.043764    4.172169
     17          1           0        6.815560   -4.404754   -2.009522
     18          7           0        1.708663   -1.291741    1.691802
     19          6           0        0.304654   -1.745181    1.667706
     20          6           0       -0.658007   -0.560616    1.748841
     21          6           0       -2.127959   -0.986476    1.688182
     22          1           0        1.858397   -0.716154    0.861055
     23          1           0        0.133597   -2.411318    2.515483
     24          1           0        0.091480   -2.327328    0.754770
     25          1           0       -0.444058    0.134982    0.927720
     26          1           0       -0.466162   -0.012002    2.677693
     27          1           0       -2.353178   -1.505145    0.750931
     28          1           0       -2.794250   -0.122159    1.757434
     29          1           0       -2.377364   -1.664716    2.510584
 ---------------------------------------------------------------------

 SCF Done:  E(UB3LYP) =  -1168.48166817     A.U. after    1 cycles

 Alpha  occ. eigenvalues -- -101.52248 -19.02023 -19.01879 -14.28263 -10.18119
 Alpha  occ. eigenvalues --  -10.17946 -10.17626 -10.16962 -10.16299 -10.15715
 Alpha  occ. eigenvalues --  -10.15297 -10.15099 -10.14928 -10.14816 -10.14722
 Alpha  occ. eigenvalues --  -10.14275 -10.14217  -9.43706  -7.20088  -7.19252
 Alpha  occ. eigenvalues --   -7.19185  -0.93743  -0.93103  -0.88525  -0.82943
 Alpha  occ. eigenvalues --   -0.82293  -0.77104  -0.75323  -0.72469  -0.69544
 Alpha  occ. eigenvalues --   -0.66017  -0.63506  -0.58366  -0.58236  -0.56831
 Alpha  occ. eigenvalues --   -0.53260  -0.49547  -0.47515  -0.46050  -0.44423
 Alpha  occ. eigenvalues --   -0.43844  -0.42593  -0.40989  -0.40212  -0.39260
 Alpha  occ. eigenvalues --   -0.38725  -0.38448  -0.37378  -0.36457  -0.35286
 Alpha  occ. eigenvalues --   -0.34969  -0.34188  -0.33419  -0.32954  -0.32609
 Alpha  occ. eigenvalues --   -0.31384  -0.30758  -0.29819  -0.28362  -0.24992
 Alpha  occ. eigenvalues --   -0.23006  -0.22417  -0.20489  -0.19973  -0.19295
 Alpha  occ. eigenvalues --   -0.11637
 Alpha virt. eigenvalues --   -0.00774  -0.00130   0.00486   0.00962   0.01430
 Alpha virt. eigenvalues --    0.01676   0.02188   0.02494   0.03778   0.04354
 Alpha virt. eigenvalues --    0.04692   0.04906   0.05439   0.05724   0.06213

  Beta  occ. eigenvalues -- -101.52248 -19.02023 -19.01879 -14.28263 -10.18119
  Beta  occ. eigenvalues --  -10.17946 -10.17626 -10.16962 -10.16299 -10.15715
  Beta  occ. eigenvalues --  -10.15297 -10.15099 -10.14928 -10.14816 -10.14722
  Beta  occ. eigenvalues --  -10.14275 -10.14217  -9.43706  -7.20088  -7.19252
  Beta  occ. eigenvalues --   -7.19185  -0.93743  -0.93103  -0.88525  -0.82943
  Beta  occ. eigenvalues --   -0.82293  -0.77104  -0.75323  -0.72469  -0.69544
  Beta  occ. eigenvalues --   -0.66017  -0.63506  -0.58366  -0.58236  -0.56831
  Beta  occ. eigenvalues --   -0.53260  -0.49547  -0.47515  -0.46050  -0.44423
  Beta  occ. eigenvalues --   -0.43844  -0.42593  -0.40989  -0.40212  -0.39260
  Beta  occ. eigenvalues --   -0.38725  -0.38448  -0.37378  -0.36457  -0.35286
  Beta  occ. eigenvalues --   -0.34969  -0.34188  -0.33419  -0.32954  -0.32609
  Beta  occ. eigenvalues --   -0.31384  -0.30758  -0.29819  -0.28362  -0.24992
  Beta  occ. eigenvalues --   -0.23006  -0.22417  -0.20489  -0.19973  -0.19295
  Beta  occ. eigenvalues --   -0.11637
  Beta virt. eigenvalues --   -0.00774  -0.00130   0.00486   0.00962   0.01430
  Beta virt. eigenvalues --    0.01676   0.02188   0.02494   0.03778   0.04354
  Beta virt. eigenvalues --    0.04692   0.04906   0.05439   0.05724   0.06213

 Mulliken charges and spin densities:
               1          2
     1  C    0.028673   0.000000
     2  C   -0.450060  -0.000000
     3  C   -0.400382  -0.000000
     4  C    0.207734   0.000000
     5  C    0.254127   0.000000
     6  C   -0.044397   0.000000
     7  C   -0.704637   0.000000
     8  C    1.041710   0.000000
     9  C   -0.605197  -0.000000
    10  C   -0.920156  -0.000000
    11  O   -0.649505   0.000000
    12  O   -0.693586   0.000000
    13  H    0.155016   0.000000
    14  H    0.154946  -0.000000
    15  H    0.153770  -0.000000
    16  Cl   0.228782  -0.000000
    17  H    0.156906   0.000000
    18  N    0.044854  -0.000000
    19  C   -0.495566   0.000000
    20  C   -0.011508  -0.000000
    21  C   -0.621102   0.000000
    22  H    0.260192   0.000000
    23  H    0.095766   0.000000
    24  H    0.141298   0.000000
    25  H    0.123776   0.000000
    26  H    0.128251  -0.000000
    27  H    0.134292  -0.000000
    28  H    0.144980   0.000000
    29  H    0.141025  -0.000000
 Sum of Mulliken charges =  -2.00000  -0.00000

 Dipole moment (field-independent basis, Debye):
    X=            -36.0147    Y=             31.2294    Z=            -16.8449  Tot=             50.5578
 Quadrupole moment (field-independent basis, Debye-Ang):
   XX=           -259.3284   YY=           -246.2259   ZZ=           -187.5918
   XY=            125.4789   XZ=            -61.9043   YZ=             75.2836

  Exact polarizability: 331.905 -98.066 291.113 -78.002 -15.804 340.468
 Approx polarizability: 346.408-104.475 325.240 -81.315 -26.833 380.701

                      1                      2                      3
                      A                      A                      A
 Frequencies --     39.6278                50.2663                70.6523
 Red. masses --      4.4457                 3.8887                 1.7421
 Frc consts  --      0.0041                 0.0058                 0.0051
 IR Inten    --      5.0346                 3.1882                 0.6339

                      4                      5                      6
                      A                      A                      A
 Frequencies --     85.0919               124.6250               154.7777
 Red. masses --      7.2778                 4.4447                 5.3672
 Frc consts  --      0.0310                 0.0407                 0.0758
 IR Inten    --     12.2366                 8.6099                 4.3399

                      7                      8                      9
                      A                      A                      A
 Frequencies --    168.1086               188.1678               208.5078
 Red. masses --      2.7868                 6.4866                 7.3096
 Frc consts  --      0.0464                 0.1353                 0.1872
 IR Inten    --     15.4756                 3.9659                 2.7037

                     10                     11                     12
                      A                      A                      A
 Frequencies --    232.3604               250.1129               273.5834
 Red. masses --      1.1767                 3.9049                 5.3332
 Frc consts  --      0.0374                 0.1439                 0.2352
 IR Inten    --      0.4269                13.0706                 1.4393

                     13                     14                     15
                      A                      A                      A
 Frequencies --    289.0523               313.0980               344.4639
 Red. masses --      5.1329                 7.8098                 9.1187
 Frc consts  --      0.2527                 0.4511                 0.6375
 IR Inten    --      4.7011                 2.8606                 0.3847

                     16                     17                     18
                      A                      A                      A
 Frequencies --    366.0409               375.3985               421.1858
 Red. masses --      8.9103                 6.6990                 3.8291
 Frc consts  --      0.7034                 0.5562                 0.4002
 IR Inten    --     15.3472                 1.3191                 4.7634

                     19                     20                     21
                      A                      A                      A
 Frequencies --    462.2773               481.6765               506.7660
 Red. masses --      3.6702                 8.8278                 8.4250
 Frc consts  --      0.4621                 1.2067                 1.2748
 IR Inten    --      5.8154                 1.3546                12.9303

                     22                     23                     24
                      A                      A                      A
 Frequencies --    550.7145               600.5388               664.8431
 Red. masses --      4.6603                 7.4018                 6.4742
 Frc consts  --      0.8327                 1.5728                 1.6861
 IR Inten    --      5.8849                 4.5215                43.4860

                     25                     26                     27
                      A                      A                      A
 Frequencies --    677.9518               698.6433               713.0471
 Red. masses --      4.5008                 5.8646                 3.5561
 Frc consts  --      1.2188                 1.6865                 1.0653
 IR Inten    --     42.1403                19.3530                62.5281

                     28                     29                     30
                      A                      A                      A
 Frequencies --    756.6113               771.5403               782.2717
 Red. masses --      1.0825                 1.8364                 4.9005
 Frc consts  --      0.3651                 0.6441                 1.7669
 IR Inten    --      6.0826                57.6510                70.1889

                     31                     32                     33
                      A                      A                      A
 Frequencies --    785.7270               849.2027               859.2133
 Red. masses --      6.8439                 1.8183                 1.5690
 Frc consts  --      2.4894                 0.7726                 0.6824
 IR Inten    --    209.4023               131.8455                 0.2370

                     34                     35                     36
                      A                      A                      A
 Frequencies --    881.0190               900.4062               927.5963
 Red. masses --      2.3183                 1.5001                 2.2910
 Frc consts  --      1.0602                 0.7165                 1.1614
 IR Inten    --     16.0469                31.3905                36.5407

                     37                     38                     39
                      A                      A                      A
 Frequencies --    971.0945               980.4819               994.5589
 Red. masses --      1.3537                 1.2425                 2.7780
 Frc consts  --      0.7521                 0.7038                 1.6190
 IR Inten    --      4.2933                 0.1787               125.2497

                     40                     41                     42
                      A                      A                      A
 Frequencies --   1020.1869              1039.6120              1073.7293
 Red. masses --      2.0221                 2.8843                 2.8578
 Frc consts  --      1.2400                 1.8367                 1.9412
 IR Inten    --     54.9203                23.1004                74.2003

                     43                     44                     45
                      A                      A                      A
 Frequencies --   1092.3293              1126.4708              1133.7820
 Red. masses --      2.7117                 1.8081                 1.9347
 Frc consts  --      1.9064                 1.3518                 1.4653
 IR Inten    --    107.9621                52.6240                21.0323

                     46                     47                     48
                      A                      A                      A
 Frequencies --   1147.5200              1173.1335              1182.5688
 Red. masses --      2.3076                 2.7812                 1.8364
 Frc consts  --      1.7903                 2.2551                 1.5131
 IR Inten    --    256.7511                26.1230               144.8623

                     49                     50                     51
                      A                      A                      A
 Frequencies --   1214.7670              1244.3652              1268.3931
 Red. masses --      2.7145                 2.0675                 1.3916
 Frc consts  --      2.3600                 1.8862                 1.3191
 IR Inten    --    437.7511                33.9681                38.0292

                     52                     53                     54
                      A                      A                      A
 Frequencies --   1317.2769              1322.3642              1328.7221
 Red. masses --      1.1651                 1.6266                 3.1296
 Frc consts  --      1.1912                 1.6758                 3.2554
 IR Inten    --     11.4269               139.4639               265.1029

                     55                     56                     57
                      A                      A                      A
 Frequencies --   1366.4199              1390.6813              1394.8590
 Red. masses --      5.9266                 2.3036                 2.1029
 Frc consts  --      6.5196                 2.6249                 2.4106
 IR Inten    --   1101.1119               674.8705               172.7484

                     58                     59                     60
                      A                      A                      A
 Frequencies --   1403.9116              1418.5522              1438.8897
 Red. masses --      1.2960                 4.1962                 3.0406
 Frc consts  --      1.5050                 4.9750                 3.7090
 IR Inten    --     17.1797                 2.3581                31.6827

                     61                     62                     63
                      A                      A                      A
 Frequencies --   1478.1975              1481.1091              1488.3168
 Red. masses --      1.0627                 2.5199                 1.0455
 Frc consts  --      1.3682                 3.2569                 1.3644
 IR Inten    --      5.3771                90.3445                15.8386

                     64                     65                     66
                      A                      A                      A
 Frequencies --   1495.6445              1509.9686              1514.9358
 Red. masses --      1.0818                 1.2798                 2.8400
 Frc consts  --      1.4258                 1.7192                 3.8403
 IR Inten    --      1.7256                63.1123                50.0081

                     67                     68                     69
                      A                      A                      A
 Frequencies --   1540.3201              1585.2854              1609.6263
 Red. masses --      1.5495                 5.9494                 5.5019
 Frc consts  --      2.1660                 8.8093                 8.3987
 IR Inten    --    208.6128                13.2705                15.9015

                     70                     71                     72
                      A                      A                      A
 Frequencies --   2924.7125              3004.3529              3014.9592
 Red. masses --      1.0738                 1.0627                 1.0356
 Frc consts  --      5.4117                 5.6515                 5.5461
 IR Inten    --    151.0847                58.8305                54.7278

                     73                     74                     75
                      A                      A                      A
 Frequencies --   3036.8794              3071.6405              3079.3527
 Red. masses --      1.0966                 1.0986                 1.1006
 Frc consts  --      5.9587                 6.1070                 6.1488
 IR Inten    --     30.9889                38.9871                75.0194

                     76                     77                     78
                      A                      A                      A
 Frequencies --   3080.4572              3139.7517              3155.3460
 Red. masses --      1.0917                 1.0848                 1.0893
 Frc consts  --      6.1035                 6.3006                 6.3901
 IR Inten    --    106.2031                17.5953                33.5877

                     79                     80                     81
                      A                      A                      A
 Frequencies --   3173.0263              3177.0102              3417.8192
 Red. masses --      1.0911                 1.0940                 1.0715
 Frc consts  --      6.4724                 6.5057                 7.3744
 IR Inten    --     37.7035                66.1596                62.8160

 - Thermochemistry -
 -------------------
 Temperature   298.150 Kelvin.  Pressure   1.00000 Atm.
 Atom     1 has atomic number  6 and mass  12.00000

 Molecular mass:   249.05566 amu.
 Principal axes and moments of inertia in atomic units:
                           1         2         3
     Eigenvalues --  2512.038946704.102858801.96659
           X            0.84458   0.05351   0.53274
           Y           -0.46224  -0.42927   0.77593
           Z           -0.27021   0.90159   0.33782
 This molecule is an asymmetric top.
 Rotational symmetry number  1.
 Warning -- assumption of classical behavior for rotation
           may cause significant error
 Rotational temperatures (Kelvin)      0.03448     0.01292     0.00984
 Rotational constants (GHZ):           0.71844     0.26920     0.20504
 Zero-point vibrational energy     579283.0 (Joules/Mol)
                                  138.45195 (Kcal/Mol)
 Warning -- explicit consideration of  23 degrees of freedom as
           vibrations may cause significant error
 Vibrational temperatures:     57.02    72.32   101.65   122.43   179.31
          (Kelvin)            222.69   241.87   270.73   300.00   334.31
                              359.86   393.63   415.88   450.48   495.61
                              526.65   540.11   605.99   665.11   693.03
                              729.12   792.36   864.04   956.56   975.42
                             1005.19  1025.92  1088.59  1110.07  1125.51
                             1130.49  1221.81  1236.22  1267.59  1295.48
                             1334.60  1397.19  1410.69  1430.95  1467.82
                             1495.77  1544.86  1571.62  1620.74  1631.26
                             1651.03  1687.88  1701.45  1747.78  1790.36
                             1824.93  1895.27  1902.59  1911.73  1965.97
                             2000.88  2006.89  2019.92  2040.98  2070.24
                             2126.80  2130.99  2141.36  2151.90  2172.51
                             2179.65  2216.18  2280.87  2315.89  4208.01
                             4322.59  4337.85  4369.39  4419.41  4430.50
                             4432.09  4517.40  4539.84  4565.28  4571.01
                             4917.48

 Zero-point correction=                           0.220637 (Hartree/Particle)
 Thermal correction to Energy=                    0.236066
 Thermal correction to Enthalpy=                  0.237010
 Thermal correction to Gibbs Free Energy=         0.177288
 Sum of electronic and zero-point Energies=          -1168.261031
 Sum of electronic and thermal Energies=             -1168.245602
 Sum of electronic and thermal Enthalpies=           -1168.244658
 Sum of electronic and thermal Free Energies=        -1168.304380

                     E (Thermal)             CV                S
                      KCal/Mol        Cal/Mol-Kelvin    Cal/Mol-Kelvin
 Total                  148.134             58.645            125.697
 Electronic               0.000              0.000              0.000
 Translational            0.889              2.981             42.438
 Rotational               0.889              2.981             33.360
 Vibrational            146.356             52.683             49.898
 Vibration     1          0.594              1.981              5.278
 Vibration     2          0.595              1.977              4.807
 Vibration     3          0.598              1.968              4.135
 Vibration     4          0.601              1.960              3.770
 Vibration     5          0.610              1.928              3.027
 Vibration     6          0.620              1.897              2.613
 Vibration     7          0.625              1.882              2.457
 Vibration     8          0.633              1.856              2.246
 Vibration     9          0.642              1.828              2.057
 Vibration    10          0.653              1.791              1.861
 Vibration    11          0.663              1.763              1.730
 Vibration    12          0.676              1.722              1.573
 Vibration    13          0.686              1.694              1.480
 Vibration    14          0.701              1.649              1.346
 Vibration    15          0.723              1.587              1.191
 Vibration    16          0.739              1.542              1.096
 Vibration    17          0.746              1.523              1.058
 Vibration    18          0.784              1.424              0.888
 Vibration    19          0.820              1.334              0.760
 Vibration    20          0.838              1.291              0.706
 Vibration    21          0.862              1.235              0.641
 Vibration    22          0.906              1.138              0.543
 Vibration    23          0.959              1.031              0.449

                           ! Non-Optimized Parameters !
 Normal termination of Gaussian 16 at Sun Feb 11 02:38:08 2024.
