 Gaussian 16, Revision A.03,
 Gaussian 16:  ES64L-G16RevA.03 25-Dec-2016

 ----------------------------------------------------------------
 #P UB3LYP/6-311++G(d,p) SCRF=(PCM,Solvent=n,n-DiMethylFormamide)
 ----------------------------------------------------------------

 ------------------
 Quinone PCM in DMF
 ------------------
 Symbolic Z-matrix:
 Charge =  0 Multiplicity = 1

                         Standard orientation:
 ---------------------------------------------------------------------
 Center     Atomic      Atomic             Coordinates (Angstroms)
 Number     Number       Type             X           Y           Z
 ---------------------------------------------------------------------
      1          6           0       -2.799298    1.397281    0.000092
      2          6           0       -4.000557    0.699014    0.000070
      3          6           0       -4.000518   -0.699120   -0.000004
      4          6           0       -1.584821    0.703484    0.000032
      5          6           0       -1.584781   -0.703509   -0.000026
      6          6           0       -2.799227   -1.397345   -0.000036
      7          6           0       -0.311217    1.463812   -0.000061
      8          6           0        0.943732    0.714622   -0.000045
      9          6           0        0.943771   -0.714590   -0.000049
     10          6           0       -0.311132   -1.463820   -0.000017
     11          6           0        2.163832    1.411543   -0.000035
     12          6           0        3.377838    0.685982    0.000067
     13          6           0        2.163870   -1.411481    0.000026
     14          6           0        3.377862   -0.685909    0.000077
     15          8           0       -0.323000    2.705926    0.000133
     16          8           0       -0.322818   -2.705928   -0.000208
     17          8           0        2.242823    2.747051   -0.000166
     18          1           0       -2.776927    2.479751    0.000085
     19          1           0       -4.939641    1.240442    0.000082
     20          1           0       -4.939577   -1.240592   -0.000011
     21          1           0       -2.776791   -2.479808   -0.000022
     22          1           0        1.314187    3.089916   -0.000344
     23          8           0        2.242889   -2.747004    0.000138
     24          1           0        4.304607   -1.246954    0.000172
     25          1           0        4.304565    1.247058    0.000098
     26          1           0        1.314296   -3.089960    0.000208
 ---------------------------------------------------------------------

 SCF Done:  E(UB3LYP) =  -839.479755134     A.U. after   14 cycles

 The electronic state is 1-A.
 Alpha  occ. eigenvalues --  -19.16756 -19.16755 -19.14067 -19.14067 -10.29040
 Alpha  occ. eigenvalues --  -10.29039 -10.27070 -10.27068 -10.21365 -10.21315
 Alpha  occ. eigenvalues --  -10.21302 -10.21259 -10.20736 -10.20672 -10.20201
 Alpha  occ. eigenvalues --  -10.20166 -10.20125 -10.20109  -1.09673  -1.09513
 Alpha  occ. eigenvalues --   -1.06391  -1.06262  -0.89892  -0.88222  -0.82219
 Alpha  occ. eigenvalues --   -0.78472  -0.77957  -0.76935  -0.70596  -0.67537
 Alpha  occ. eigenvalues --   -0.66525  -0.63609  -0.60814  -0.57581  -0.56498
 Alpha  occ. eigenvalues --   -0.55927  -0.54396  -0.50769  -0.49759  -0.49257
 Alpha  occ. eigenvalues --   -0.47361  -0.46953  -0.45789  -0.45611  -0.45391
 Alpha  occ. eigenvalues --   -0.44279  -0.43919  -0.43473  -0.43086  -0.40726
 Alpha  occ. eigenvalues --   -0.39398  -0.39030  -0.38661  -0.38163  -0.37249
 Alpha  occ. eigenvalues --   -0.33761  -0.30109  -0.29810  -0.28516  -0.28310
 Alpha  occ. eigenvalues --   -0.28250  -0.23760
 Alpha virt. eigenvalues --   -0.12649  -0.07438  -0.04375  -0.01839  -0.00632
 Alpha virt. eigenvalues --    0.00290   0.00736   0.01501   0.02148   0.02870
 Alpha virt. eigenvalues --    0.03647   0.03708   0.03826   0.04160   0.04184

  Beta  occ. eigenvalues --  -19.16756 -19.16755 -19.14067 -19.14067 -10.29040
  Beta  occ. eigenvalues --  -10.29039 -10.27070 -10.27068 -10.21365 -10.21315
  Beta  occ. eigenvalues --  -10.21302 -10.21259 -10.20736 -10.20672 -10.20201
  Beta  occ. eigenvalues --  -10.20166 -10.20125 -10.20109  -1.09673  -1.09513
  Beta  occ. eigenvalues --   -1.06391  -1.06262  -0.89892  -0.88222  -0.82219
  Beta  occ. eigenvalues --   -0.78472  -0.77957  -0.76935  -0.70596  -0.67537
  Beta  occ. eigenvalues --   -0.66525  -0.63609  -0.60814  -0.57581  -0.56498
  Beta  occ. eigenvalues --   -0.55927  -0.54396  -0.50769  -0.49759  -0.49257
  Beta  occ. eigenvalues --   -0.47361  -0.46953  -0.45789  -0.45611  -0.45391
  Beta  occ. eigenvalues --   -0.44279  -0.43919  -0.43473  -0.43086  -0.40726
  Beta  occ. eigenvalues --   -0.39398  -0.39030  -0.38661  -0.38163  -0.37249
  Beta  occ. eigenvalues --   -0.33761  -0.30109  -0.29810  -0.28516  -0.28310
  Beta  occ. eigenvalues --   -0.28250  -0.23760
  Beta virt. eigenvalues --   -0.12649  -0.07438  -0.04375  -0.01839  -0.00632
  Beta virt. eigenvalues --    0.00290   0.00736   0.01501   0.02148   0.02870
  Beta virt. eigenvalues --    0.03647   0.03708   0.03826   0.04160   0.04184

 Mulliken charges and spin densities:
               1          2
     1  C    0.110683  -0.000000
     2  C   -0.433356  -0.000000
     3  C   -0.433335   0.000000
     4  C    0.052437   0.000000
     5  C    0.052507  -0.000000
     6  C    0.110687   0.000000
     7  C   -0.281325   0.000000
     8  C    0.614632   0.000000
     9  C    0.614581  -0.000000
    10  C   -0.281345  -0.000000
    11  C   -0.337279  -0.000000
    12  C   -0.058115   0.000000
    13  C   -0.337143  -0.000000
    14  C   -0.058114   0.000000
    15  O   -0.330717   0.000000
    16  O   -0.330719   0.000000
    17  O   -0.311687   0.000000
    18  H    0.191090  -0.000000
    19  H    0.209001   0.000000
    20  H    0.209003   0.000000
    21  H    0.191086   0.000000
    22  H    0.342139  -0.000000
    23  O   -0.311728  -0.000000
    24  H    0.232433   0.000000
    25  H    0.232433   0.000000
    26  H    0.342152   0.000000
 Sum of Mulliken charges =  -0.00000   0.00000

 Dipole moment (field-independent basis, Debye):
    X=             -2.6171    Y=             -0.0001    Z=              0.0000  Tot=              2.6171
 Quadrupole moment (field-independent basis, Debye-Ang):
   XX=            -78.4372   YY=           -118.4582   ZZ=           -104.9360
   XY=              0.0008   XZ=              0.0003   YZ=             -0.0038

 Normal termination of Gaussian 16 at Tue Jan 16 05:02:22 2024.
