 Q-Chem 5.4, Q-Chem, Inc., Pleasanton, CA (2021)
 Q-Chem 5.4.0 for Intel X86 EM64T Linux

User input:
--------------------------------------------------------------
$molecule
0 1
C                  4.9029970000     -2.8623300000     -0.3630670000
C                  5.6242480000     -1.9593240000     -1.1344150000
C                  5.0332520000     -0.7631140000     -1.5522490000
C                  3.5821630000     -2.5776760000     -0.0015730000
C                  2.9874270000     -1.3738800000     -0.4220410000
C                  3.7217120000     -0.4713050000     -1.1982320000
C                  2.8258940000     -3.5522360000      0.8221110000
C                  1.4474290000     -3.2304490000      1.1860720000
C                  0.8433200000     -2.0076170000      0.7590090000
C                  1.5884370000     -1.0473370000     -0.0526500000
C                  0.7096640000     -4.1371010000      1.9658330000
C                 -0.6241450000     -3.8250770000      2.3177490000
C                 -0.4835350000     -1.7216860000      1.1223230000
C                 -1.2040090000     -2.6512800000      1.9078190000
O                  3.3609220000     -4.6119130000      1.1879220000
O                  1.0732700000      0.0183050000     -0.4294500000
O                  1.2072560000     -5.2999230000      2.4018010000
H                  5.3415860000     -3.7941920000     -0.0291290000
H                  6.6476550000     -2.1836850000     -1.4124840000
H                  5.5989310000     -0.0609540000     -2.1539160000
H                  3.2452170000      0.4491570000     -1.5111740000
H                  2.1378360000     -5.3571370000      2.0691330000
O                 -1.1148320000     -0.5990540000      0.7603470000
H                 -2.2252320000     -2.4069470000      2.1743360000
H                 -1.1710960000     -4.5408630000      2.9195170000
H                 -0.4740780000     -0.0693730000      0.2229680000
$end
$rem
MAX_SCF_CYCLES=200
BASIS  =  6-311++G(d,p)
GUI  =  2
JOB_TYPE  =  SP
METHOD  =  B3LYP
SOLVENT_METHOD = PCM
$end
$pcm
theory = CPCM
$end
$solvent
dielectric 37.219
opticaldielectric 1.43
$end

--------------------------------------------------------------

             Standard Nuclear Orientation (Angstroms)
    I     Atom           X                Y                Z
 ----------------------------------------------------------------
    1      C       4.9029970000    -2.8623300000    -0.3630670000
    2      C       5.6242480000    -1.9593240000    -1.1344150000
    3      C       5.0332520000    -0.7631140000    -1.5522490000
    4      C       3.5821630000    -2.5776760000    -0.0015730000
    5      C       2.9874270000    -1.3738800000    -0.4220410000
    6      C       3.7217120000    -0.4713050000    -1.1982320000
    7      C       2.8258940000    -3.5522360000     0.8221110000
    8      C       1.4474290000    -3.2304490000     1.1860720000
    9      C       0.8433200000    -2.0076170000     0.7590090000
   10      C       1.5884370000    -1.0473370000    -0.0526500000
   11      C       0.7096640000    -4.1371010000     1.9658330000
   12      C      -0.6241450000    -3.8250770000     2.3177490000
   13      C      -0.4835350000    -1.7216860000     1.1223230000
   14      C      -1.2040090000    -2.6512800000     1.9078190000
   15      O       3.3609220000    -4.6119130000     1.1879220000
   16      O       1.0732700000     0.0183050000    -0.4294500000
   17      O       1.2072560000    -5.2999230000     2.4018010000
   18      H       5.3415860000    -3.7941920000    -0.0291290000
   19      H       6.6476550000    -2.1836850000    -1.4124840000
   20      H       5.5989310000    -0.0609540000    -2.1539160000
   21      H       3.2452170000     0.4491570000    -1.5111740000
   22      H       2.1378360000    -5.3571370000     2.0691330000
   23      O      -1.1148320000    -0.5990540000     0.7603470000
   24      H      -2.2252320000    -2.4069470000     2.1743360000
   25      H      -1.1710960000    -4.5408630000     2.9195170000
   26      H      -0.4740780000    -0.0693730000     0.2229680000
 ----------------------------------------------------------------

    9    -839.4838671103      3.28e-06  Convergence criterion met
 Total energy in the final basis set =     -839.4838671103

                    Orbital Energies (a.u.)
 --------------------------------------------------------------

 Alpha MOs
 -- Occupied --
-19.1659 -19.1659 -19.1389 -19.1389 -10.2886 -10.2886 -10.2685 -10.2685
-10.2111 -10.2109 -10.2106 -10.2105 -10.2041 -10.2035 -10.1986 -10.1984
-10.1981 -10.1977  -1.0949  -1.0933  -1.0623  -1.0610  -0.8964  -0.8796
 -0.8195  -0.7820  -0.7768  -0.7670  -0.7036  -0.6726  -0.6626  -0.6336
 -0.6053  -0.5731  -0.5623  -0.5567  -0.5420  -0.5052  -0.4946  -0.4896
 -0.4717  -0.4681  -0.4552  -0.4530  -0.4515  -0.4395  -0.4375  -0.4327
 -0.4289  -0.4057  -0.3911  -0.3888  -0.3833  -0.3794  -0.3693  -0.3358
 -0.2995  -0.2959  -0.2834  -0.2806  -0.2799  -0.2357

          Ground-State Mulliken Net Atomic Charges

     Atom                 Charge (a.u.)
  ----------------------------------------
      1 C                     0.093281
      2 C                    -0.443499
      3 C                    -0.444829
      4 C                     0.037120
      5 C                     0.043313
      6 C                     0.092948
      7 C                    -0.266866
      8 C                     0.624095
      9 C                     0.625322
     10 C                    -0.264706
     11 C                    -0.321247
     12 C                    -0.087732
     13 C                    -0.323599
     14 C                    -0.086883
     15 O                    -0.343388
     16 O                    -0.343451
     17 O                    -0.324400
     18 H                     0.202442
     19 H                     0.224572
     20 H                     0.224678
     21 H                     0.202287
     22 H                     0.353240
     23 O                    -0.324327
     24 H                     0.248993
     25 H                     0.249168
     26 H                     0.353469
  ----------------------------------------
  Sum of atomic charges =     0.000000

                    Cartesian Multipole Moments
 -----------------------------------------------------------------
    Charge (ESU x 10^10)
                 0.0000
    Dipole Moment (Debye)
         X       2.2391      Y       0.6738      Z      -1.2401
       Tot       2.6468
    Quadrupole Moments (Debye-Ang)
        XX     -78.8446     XY       6.9523     YY    -116.4770
        XZ     -13.9859     YZ       3.5116     ZZ    -101.4577

 Total job time:  49.25s(wall), 362.61s(cpu)
        *  Thank you very much for using Q-Chem.  Have a nice day.  *
