 Q-Chem 5.4, Q-Chem, Inc., Pleasanton, CA (2021)
 Q-Chem 5.4.0 for Intel X86 EM64T Linux

User input:
--------------------------------------------------------------
$molecule
-1 2
O                  1.9790880000     -3.0746810000      0.8565720000
C                  1.4692790000     -1.9572620000      0.5853430000
C                  0.0802760000     -1.6883200000      0.4938290000
C                 -0.4629890000     -0.4408790000      0.1913880000
O                  0.3985180000      0.6367420000     -0.0422020000
C                  1.7484600000      0.4672040000      0.0253800000
C                  2.5363300000      1.5947200000     -0.2212760000
C                  3.9278090000      1.4884010000     -0.1676290000
C                  4.5273620000      0.2639510000      0.1303800000
C                  3.7301440000     -0.8545390000      0.3747800000
C                  2.3329170000     -0.7736300000      0.3270070000
C                 -1.8420010000     -0.0880690000      0.0800170000
C                 -2.8864850000     -1.0426590000      0.2819370000
C                 -4.2194840000     -0.6896500000      0.1710470000
C                 -4.6049140000      0.6238730000     -0.1451540000
C                 -3.5945880000      1.5766740000     -0.3472250000
C                 -2.2548170000      1.2414520000     -0.2403130000
H                 -0.5906270000     -2.5181130000      0.6733990000
H                  2.0477870000      2.5348450000     -0.4506840000
H                  4.5382230000      2.3653470000     -0.3595070000
H                  5.6090000000      0.1828970000      0.1716530000
H                  4.1571430000     -1.8229110000      0.6094840000
H                 -2.6346340000     -2.0670490000      0.5275340000
H                 -4.9796700000     -1.4491870000      0.3332010000
H                 -5.6519800000      0.8927590000     -0.2303180000
H                 -3.8626560000      2.6009410000     -0.5930800000
H                 -1.4974900000      1.9971430000     -0.4016160000
$end
$rem
MAX_SCF_CYCLES=200
BASIS  =  6-311++G(d,p)
GUI  =  2
JOB_TYPE  =  SP
METHOD  =  B3LYP
SOLVENT_METHOD = PCM
$end
$pcm
theory = CPCM
$end
$solvent
dielectric 37.219
opticaldielectric 1.43
$end

--------------------------------------------------------------

             Standard Nuclear Orientation (Angstroms)
    I     Atom           X                Y                Z
 ----------------------------------------------------------------
    1      O       1.9790880000    -3.0746810000     0.8565720000
    2      C       1.4692790000    -1.9572620000     0.5853430000
    3      C       0.0802760000    -1.6883200000     0.4938290000
    4      C      -0.4629890000    -0.4408790000     0.1913880000
    5      O       0.3985180000     0.6367420000    -0.0422020000
    6      C       1.7484600000     0.4672040000     0.0253800000
    7      C       2.5363300000     1.5947200000    -0.2212760000
    8      C       3.9278090000     1.4884010000    -0.1676290000
    9      C       4.5273620000     0.2639510000     0.1303800000
   10      C       3.7301440000    -0.8545390000     0.3747800000
   11      C       2.3329170000    -0.7736300000     0.3270070000
   12      C      -1.8420010000    -0.0880690000     0.0800170000
   13      C      -2.8864850000    -1.0426590000     0.2819370000
   14      C      -4.2194840000    -0.6896500000     0.1710470000
   15      C      -4.6049140000     0.6238730000    -0.1451540000
   16      C      -3.5945880000     1.5766740000    -0.3472250000
   17      C      -2.2548170000     1.2414520000    -0.2403130000
   18      H      -0.5906270000    -2.5181130000     0.6733990000
   19      H       2.0477870000     2.5348450000    -0.4506840000
   20      H       4.5382230000     2.3653470000    -0.3595070000
   21      H       5.6090000000     0.1828970000     0.1716530000
   22      H       4.1571430000    -1.8229110000     0.6094840000
   23      H      -2.6346340000    -2.0670490000     0.5275340000
   24      H      -4.9796700000    -1.4491870000     0.3332010000
   25      H      -5.6519800000     0.8927590000    -0.2303180000
   26      H      -3.8626560000     2.6009410000    -0.5930800000
   27      H      -1.4974900000     1.9971430000    -0.4016160000
 ----------------------------------------------------------------

    8    -728.3725174503      9.06e-06  Convergence criterion met
 Total energy in the final basis set =     -728.3725174503

                    Orbital Energies (a.u.)
 --------------------------------------------------------------

 Alpha MOs
 -- Occupied --
-19.1681 -19.0605 -10.2383 -10.2231 -10.2157 -10.1745 -10.1744 -10.1730
-10.1701 -10.1685 -10.1679 -10.1644 -10.1640 -10.1624 -10.1600 -10.1576
-10.1480  -1.0878  -0.9877  -0.8589  -0.8461  -0.7934  -0.7659  -0.7436
 -0.7360  -0.7246  -0.6539  -0.6311  -0.6001  -0.5890  -0.5772  -0.5321
 -0.5212  -0.5136  -0.4785  -0.4597  -0.4551  -0.4536  -0.4352  -0.4279
 -0.4201  -0.4130  -0.4035  -0.3992  -0.3798  -0.3752  -0.3696  -0.3568
 -0.3500  -0.3491  -0.3373  -0.3204  -0.2906  -0.2565  -0.2546  -0.2366
 -0.2337  -0.2232  -0.1103

 Beta MOs
 -- Occupied --
-19.1665 -19.0573 -10.2384 -10.2183 -10.2135 -10.1744 -10.1741 -10.1734
-10.1695 -10.1681 -10.1675 -10.1651 -10.1647 -10.1607 -10.1582 -10.1549
-10.1480  -1.0844  -0.9818  -0.8570  -0.8436  -0.7882  -0.7636  -0.7417
 -0.7338  -0.7218  -0.6489  -0.6290  -0.5980  -0.5876  -0.5744  -0.5296
 -0.5195  -0.5119  -0.4768  -0.4589  -0.4530  -0.4444  -0.4343  -0.4270
 -0.4190  -0.4122  -0.4013  -0.3970  -0.3742  -0.3700  -0.3585  -0.3561
 -0.3472  -0.3426  -0.3365  -0.3194  -0.2772  -0.2508  -0.2476  -0.2309
 -0.2300  -0.2096

          Ground-State Mulliken Net Atomic Charges

     Atom                 Charge (a.u.)    Spin (a.u.)
  --------------------------------------------------------
      1 O                    -0.579355       0.118580
      2 C                    -0.710401       0.165737
      3 C                    -0.536016      -0.014397
      4 C                     0.521833       0.269831
      5 O                    -0.057295       0.036176
      6 C                    -1.610491      -0.020319
      7 C                    -0.356876       0.030439
      8 C                    -0.493402       0.034043
      9 C                    -0.209948       0.006551
     10 C                     0.295881       0.073332
     11 C                     1.984221      -0.018161
     12 C                     0.998991      -0.054295
     13 C                    -0.603486       0.148031
     14 C                    -0.577357      -0.057081
     15 C                    -0.435224       0.216057
     16 C                    -0.409830      -0.061807
     17 C                    -0.046384       0.166275
     18 H                     0.198411       0.000482
     19 H                     0.195512      -0.003258
     20 H                     0.204493      -0.002389
     21 H                     0.191285      -0.000613
     22 H                     0.178121      -0.006210
     23 H                     0.117138      -0.008569
     24 H                     0.204139       0.002547
     25 H                     0.167031      -0.014422
     26 H                     0.199890       0.002905
     27 H                     0.169119      -0.009465
  --------------------------------------------------------
  Sum of atomic charges =    -1.000000

                    Cartesian Multipole Moments
 -----------------------------------------------------------------
    Charge (ESU x 10^10)
                -4.8032
    Dipole Moment (Debye)
         X      -2.6892      Y       8.3092      Z      -2.4616
       Tot       9.0738
    Quadrupole Moments (Debye-Ang)
        XX    -119.7636     XY      20.6298     YY    -125.4088
        XZ      -5.2794     YZ       4.9238     ZZ    -111.0767

 Total job time:  55.24s(wall), 366.41s(cpu)
        *  Thank you very much for using Q-Chem.  Have a nice day.  *
