 Gaussian 16, Revision A.03,
 Gaussian 16:  ES64L-G16RevA.03 25-Dec-2016

 ----------------------------------------------------------------
 #P UB3LYP/6-311++G(d,p) SCRF=(PCM,Solvent=n,n-DiMethylFormamide)
 ----------------------------------------------------------------

 ------------------
 Radical PCM in DMF
 ------------------
 Symbolic Z-matrix:
 Charge = -1 Multiplicity = 2

                         Standard orientation:
 ---------------------------------------------------------------------
 Center     Atomic      Atomic             Coordinates (Angstroms)
 Number     Number       Type             X           Y           Z
 ---------------------------------------------------------------------
      1          6           0        1.118635    2.528441    0.000112
      2          6           0        0.338470    1.240080   -0.000067
      3          6           0       -1.034127    1.222268   -0.000105
      4          6           0       -1.809597   -0.000029   -0.000120
      5          8           0       -3.076267   -0.000030    0.000068
      6          6           0       -1.034108   -1.222301    0.000055
      7          6           0        0.338495   -1.240078    0.000007
      8          6           0        1.118705   -2.528399    0.000040
      9          6           0        1.102962    0.000015   -0.000103
     10          8           0        2.371122    0.000015   -0.000038
     11          1           0        1.776894    2.589354   -0.873589
     12          1           0        0.448544    3.393261   -0.000160
     13          1           0        1.776208    2.589474    0.874334
     14          1           0       -1.599542    2.151828   -0.000060
     15          1           0       -1.599477   -2.151890    0.000198
     16          1           0        0.448635   -3.393227    0.000541
     17          1           0        1.776995   -2.589080    0.873743
     18          1           0        1.776296   -2.589592   -0.874156
 ---------------------------------------------------------------------

 SCF Done:  E(UB3LYP) =  -460.380609199     A.U. after   17 cycles

 The electronic state is 2-A.
 Alpha  occ. eigenvalues --  -19.07283 -19.07226 -10.21383 -10.21136 -10.16856
 Alpha  occ. eigenvalues --  -10.16855 -10.15598 -10.15597 -10.15349 -10.15348
 Alpha  occ. eigenvalues --   -0.99344  -0.99062  -0.82303  -0.77472  -0.71337
 Alpha  occ. eigenvalues --   -0.67199  -0.65333  -0.56520  -0.54917  -0.48099
 Alpha  occ. eigenvalues --   -0.45939  -0.42785  -0.42338  -0.40350  -0.39953
 Alpha  occ. eigenvalues --   -0.39588  -0.39327  -0.38051  -0.37185  -0.35698
 Alpha  occ. eigenvalues --   -0.35389  -0.34462  -0.27305  -0.24237  -0.23920
 Alpha  occ. eigenvalues --   -0.23243  -0.15658
 Alpha virt. eigenvalues --   -0.00283  -0.00021   0.01044   0.01540   0.02991
 Alpha virt. eigenvalues --    0.03211   0.03274   0.03602   0.05569   0.05600
 Alpha virt. eigenvalues --    0.06206   0.06696   0.07367   0.08435   0.09517

  Beta  occ. eigenvalues --  -19.06599 -19.06553 -10.21245 -10.20957 -10.16741
  Beta  occ. eigenvalues --  -10.16740 -10.15606 -10.15606 -10.15251 -10.15251
  Beta  occ. eigenvalues --   -0.98146  -0.97850  -0.81713  -0.77266  -0.70935
  Beta  occ. eigenvalues --   -0.67017  -0.64469  -0.56160  -0.54499  -0.47900
  Beta  occ. eigenvalues --   -0.45483  -0.41898  -0.41897  -0.40224  -0.39790
  Beta  occ. eigenvalues --   -0.39517  -0.38812  -0.37086  -0.36183  -0.35083
  Beta  occ. eigenvalues --   -0.34251  -0.33172  -0.24141  -0.23484  -0.23286
  Beta  occ. eigenvalues --   -0.22636
  Beta virt. eigenvalues --   -0.08448  -0.00259   0.01046   0.01288   0.01573
  Beta virt. eigenvalues --    0.03281   0.03281   0.03628   0.05038   0.05618
  Beta virt. eigenvalues --    0.05716   0.06204   0.06744   0.07853   0.08429

 Mulliken charges and spin densities:
               1          2
     1  C   -0.389217   0.004758
     2  C    1.273205   0.093894
     3  C   -0.552601   0.055023
     4  C   -0.315360   0.144568
     5  O   -0.524591   0.232810
     6  C   -0.552582   0.055011
     7  C    1.273171   0.093909
     8  C   -0.389202   0.004757
     9  C   -1.578059   0.058844
    10  O   -0.480687   0.253592
    11  H    0.162376   0.004523
    12  H    0.143306  -0.000403
    13  H    0.162398   0.004528
    14  H    0.149883  -0.007232
    15  H    0.149880  -0.007231
    16  H    0.143302  -0.000403
    17  H    0.162374   0.004523
    18  H    0.162403   0.004530
 Sum of Mulliken charges =  -1.00000   1.00000

 Dipole moment (field-independent basis, Debye):
    X=              2.7441    Y=              0.0001    Z=              0.0001  Tot=              2.7441
 Quadrupole moment (field-independent basis, Debye-Ang):
   XX=           -105.9371   YY=            -59.5031   ZZ=            -63.5365
   XY=             -0.0005   XZ=              0.0007   YZ=              0.0004

 Normal termination of Gaussian 16 at Sun Jan 21 07:16:39 2024.
