 Q-Chem 5.4, Q-Chem, Inc., Pleasanton, CA (2021)
 Q-Chem 5.4.0 for Intel X86 EM64T Linux

User input:
--------------------------------------------------------------
$molecule
-2 1
C                  5.7332030000     -5.3525760000      1.3219410000
C                  6.6989220000     -5.1958990000      0.3457020000
C                  6.6070450000     -4.1667920000     -0.6212270000
C                  4.6038520000     -4.4614770000      1.3728490000
C                  4.5076800000     -3.3864590000      0.3623810000
C                  5.5478640000     -3.2789290000     -0.6268410000
C                  3.5801040000     -4.6252130000      2.4061190000
C                  2.5250580000     -3.6818280000      2.3404970000
C                  2.4340780000     -2.6662360000      1.3856110000
C                  3.3848810000     -2.4474220000      0.3582360000
O                  3.6113560000     -5.5509510000      3.3216130000
O                  3.2461010000     -1.4824640000     -0.5053090000
C                  5.9316670000     -6.4900040000      2.3080350000
H                  7.5475810000     -5.8796050000      0.3217280000
H                  1.5871900000     -1.9786810000      1.4037480000
C                  5.5499280000     -2.2142710000     -1.7094470000
H                  7.3861270000     -4.0709330000     -1.3775910000
H                  6.8641760000     -7.0228040000      2.0615660000
H                  5.0937250000     -7.1897490000      2.2938690000
H                  5.9735750000     -6.1307260000      3.3380270000
H                  1.7489860000     -3.7830680000      3.1005900000
H                  5.5369580000     -1.2072440000     -1.2879060000
H                  4.6529500000     -2.2652060000     -2.3295900000
H                  6.4452460000     -2.3415340000     -2.3390610000
$end
$rem
MAX_SCF_CYCLES=200
BASIS  =  6-311++G(d,p)
GUI  =  2
JOB_TYPE  =  SP
METHOD  =  B3LYP
SOLVENT_METHOD = COSMO
$end
$solvent
dielectric 37.219
opticaldielectric 1.43
$end

--------------------------------------------------------------

             Standard Nuclear Orientation (Angstroms)
    I     Atom           X                Y                Z
 ----------------------------------------------------------------
    1      C       1.4258095075     1.2193322545    -0.0001746242
    2      C       0.7074724742     2.4000927457    -0.0000215619
    3      C      -0.7076084945     2.4000577770     0.0003557532
    4      C       0.7392559378    -0.0458661151    -0.0000527258
    5      C      -0.7392427361    -0.0459055995    -0.0000011661
    6      C      -1.4258765805     1.2192582369     0.0002244539
    7      C       1.4979302507    -1.2976366757     0.0002449892
    8      C       0.6985487471    -2.4674198776     0.0000462445
    9      C      -0.6984164315    -2.4674504064    -0.0001348404
   10      C      -1.4978517937    -1.2977032765    -0.0003706611
   11      O       2.7987569181    -1.3604524044     0.0012257833
   12      O      -2.7986822483    -1.3605814494    -0.0008814800
   13      C       2.9396789901     1.3364236207    -0.0009445714
   14      H       1.2433884401     3.3493265482    -0.0001275333
   15      H      -1.2410051435    -3.4139585045    -0.0002873364
   16      C      -2.9397577749     1.3363064334     0.0005668095
   17      H      -1.2435868994     3.3492528597     0.0005912193
   18      H       3.2192597436     2.4022704846     0.0000082994
   19      H       3.3842601108     0.8405317273    -0.8660627096
   20      H       3.3851566955     0.8376896674     0.8619195776
   21      H       1.2411839742    -3.4139005173     0.0002998790
   22      H      -3.3846696595     0.8400150924     0.8652729643
   23      H      -3.3849171970     0.8379465807    -0.8626896954
   24      H      -3.2193200008     2.4021621874    -0.0001076879
 ----------------------------------------------------------------

   11    -613.8679401446      9.94e-06  Convergence criterion met
 Total energy in the final basis set =     -613.8679401446
    6    -614.1545816123      3.07e-06  Convergence criterion met
 Total energy in the final basis set =     -614.1545816123

                    Orbital Energies (a.u.)
 --------------------------------------------------------------

 Alpha MOs
 -- Occupied --
-19.0133 -19.0133 -10.1713 -10.1713 -10.1551 -10.1550 -10.1446 -10.1443
-10.1399 -10.1394 -10.1370 -10.1370 -10.1188 -10.1183  -0.9291  -0.9257
 -0.8251  -0.7630  -0.7578  -0.6998  -0.6847  -0.6509  -0.6173  -0.5800
 -0.5669  -0.4963  -0.4702  -0.4551  -0.4404  -0.4184  -0.3993  -0.3893
 -0.3866  -0.3821  -0.3665  -0.3555  -0.3537  -0.3516  -0.3493  -0.3283
 -0.3111  -0.3102  -0.3073  -0.3045  -0.2235  -0.2157  -0.2144  -0.1921
 -0.1913  -0.1121

          Ground-State Mulliken Net Atomic Charges

     Atom                 Charge (a.u.)
  ----------------------------------------
      1 C                     0.866179
      2 C                    -0.595660
      3 C                    -0.596811
      4 C                     0.153159
      5 C                     0.153518
      6 C                     0.866946
      7 C                    -0.741311
      8 C                    -0.308105
      9 C                    -0.307908
     10 C                    -0.741410
     11 O                    -0.723044
     12 O                    -0.723051
     13 C                    -0.356433
     14 H                     0.134186
     15 H                     0.140367
     16 C                    -0.357059
     17 H                     0.134107
     18 H                     0.126612
     19 H                     0.152260
     20 H                     0.152098
     21 H                     0.140354
     22 H                     0.152290
     23 H                     0.152112
     24 H                     0.126603
  ----------------------------------------
  Sum of atomic charges =    -2.000000

                    Cartesian Multipole Moments
 -----------------------------------------------------------------
    Charge (ESU x 10^10)
                -9.6064
    Dipole Moment (Debye)
         X      -0.0014      Y      10.6542      Z      -0.0020
       Tot      10.6542
    Quadrupole Moments (Debye-Ang)
        XX    -151.4788     XY      -0.0005     YY    -113.5489
        XZ      -0.0358     YZ      -0.0004     ZZ     -94.0480

 Total job time:  42.03s(wall), 311.35s(cpu)
        *  Thank you very much for using Q-Chem.  Have a nice day.  *
