 Q-Chem 5.4, Q-Chem, Inc., Pleasanton, CA (2021)
 Q-Chem 5.4.0 for Intel X86 EM64T Linux

User input:
--------------------------------------------------------------
$molecule
-2 1
N                  3.5689980000     -1.2731360000      0.1794480000
C                  2.8734700000     -0.0750900000     -0.0634140000
C                  3.5709850000      1.0962260000     -0.3306590000
C                  2.8801310000      2.3248670000     -0.5056500000
C                  1.5106320000      2.3680390000     -0.4024270000
C                  0.7464550000      1.1923590000     -0.1459980000
C                 -0.6859860000      1.3175880000     -0.0801630000
O                 -1.2606510000      2.4827610000     -0.2427330000
C                 -1.4215200000      0.0984470000      0.1462620000
C                 -2.8641390000      0.0963340000      0.2318540000
N                 -3.5455630000      1.3266360000      0.2447210000
C                 -3.5704590000     -1.0950210000      0.3399570000
C                 -2.8859260000     -2.3380990000      0.4006150000
C                 -1.5128550000     -2.3731250000      0.3621630000
C                 -0.7414810000     -1.1811330000      0.2353100000
C                  0.6912230000     -1.3057440000      0.1743610000
O                  1.2607970000     -2.4826220000      0.2440970000
C                  1.4302460000     -0.0786210000      0.0111350000
H                  2.8878790000     -2.0605290000      0.1632260000
H                  4.3823800000     -1.3848800000     -0.4114530000
H                  4.6597640000      1.0654670000     -0.3569590000
H                  3.4461040000      3.2336760000     -0.7079870000
H                  0.9552060000      3.2916480000     -0.5183050000
H                 -4.4197720000      1.2997400000     -0.2635120000
H                 -2.8811820000      2.0761560000     -0.0399430000
H                 -4.6559800000     -1.0568490000      0.4251330000
H                 -3.4580320000     -3.2608880000      0.4920100000
H                 -0.9607260000     -3.3042090000      0.4189160000
$end

$rem
BASIS  =  6-311++G(d,p)
GUI  =  2
JOB_TYPE  =  SP
METHOD  =  B3LYP
SCF_CONVERGENCE  = 8
SOLVENT_METHOD = sm12
$end

$smx
solvent dimethylformamide
charges CM5
$end

--------------------------------------------------------------

             Standard Nuclear Orientation (Angstroms)
    I     Atom           X                Y                Z
 ----------------------------------------------------------------
    1      N       3.5689980000    -1.2731360000     0.1794480000
    2      C       2.8734700000    -0.0750900000    -0.0634140000
    3      C       3.5709850000     1.0962260000    -0.3306590000
    4      C       2.8801310000     2.3248670000    -0.5056500000
    5      C       1.5106320000     2.3680390000    -0.4024270000
    6      C       0.7464550000     1.1923590000    -0.1459980000
    7      C      -0.6859860000     1.3175880000    -0.0801630000
    8      O      -1.2606510000     2.4827610000    -0.2427330000
    9      C      -1.4215200000     0.0984470000     0.1462620000
   10      C      -2.8641390000     0.0963340000     0.2318540000
   11      N      -3.5455630000     1.3266360000     0.2447210000
   12      C      -3.5704590000    -1.0950210000     0.3399570000
   13      C      -2.8859260000    -2.3380990000     0.4006150000
   14      C      -1.5128550000    -2.3731250000     0.3621630000
   15      C      -0.7414810000    -1.1811330000     0.2353100000
   16      C       0.6912230000    -1.3057440000     0.1743610000
   17      O       1.2607970000    -2.4826220000     0.2440970000
   18      C       1.4302460000    -0.0786210000     0.0111350000
   19      H       2.8878790000    -2.0605290000     0.1632260000
   20      H       4.3823800000    -1.3848800000    -0.4114530000
   21      H       4.6597640000     1.0654670000    -0.3569590000
   22      H       3.4461040000     3.2336760000    -0.7079870000
   23      H       0.9552060000     3.2916480000    -0.5183050000
   24      H      -4.4197720000     1.2997400000    -0.2635120000
   25      H      -2.8811820000     2.0761560000    -0.0399430000
   26      H      -4.6559800000    -1.0568490000     0.4251330000
   27      H      -3.4580320000    -3.2608880000     0.4920100000
   28      H      -0.9607260000    -3.3042090000     0.4189160000
 ----------------------------------------------------------------

   17    -799.6816567562      7.13e-09  Convergence criterion met
 Total energy in the final basis set =     -799.9648004906

                    Orbital Energies (a.u.)
 --------------------------------------------------------------

 Alpha MOs
 -- Occupied --
-19.0384 -19.0384 -14.2981 -14.2981 -10.2106 -10.2105 -10.1953 -10.1953
-10.1717 -10.1717 -10.1616 -10.1616 -10.1610 -10.1609 -10.1569 -10.1569
-10.1557 -10.1557  -0.9567  -0.9536  -0.9005  -0.8984  -0.8327  -0.8207
 -0.7720  -0.7272  -0.7234  -0.7165  -0.6560  -0.6256  -0.6179  -0.5710
 -0.5443  -0.5442  -0.5168  -0.4939  -0.4844  -0.4687  -0.4598  -0.4460
 -0.4454  -0.4228  -0.4223  -0.4039  -0.3982  -0.3793  -0.3773  -0.3725
 -0.3707  -0.3509  -0.3423  -0.3402  -0.3371  -0.3236  -0.3014  -0.2910
 -0.2407  -0.2376  -0.2210  -0.2162  -0.2079  -0.2028  -0.1233

          Ground-State Mulliken Net Atomic Charges

     Atom                 Charge (a.u.)
  ----------------------------------------
      1 N                    -0.211537
      2 C                    -0.514319
      3 C                     2.465399
      4 C                     1.451929
      5 C                    -0.470361
      6 C                    -0.918391
      7 C                    -2.664442
      8 O                    -0.278446
      9 C                    -1.389303
     10 C                    -0.510537
     11 N                    -0.211251
     12 C                     2.456528
     13 C                     1.451698
     14 C                    -0.466564
     15 C                    -0.919123
     16 C                    -2.661964
     17 O                    -0.279171
     18 C                    -1.397582
     19 H                     0.291658
     20 H                     0.383196
     21 H                     0.327193
     22 H                     0.402186
     23 H                     0.129707
     24 H                     0.382914
     25 H                     0.291414
     26 H                     0.327156
     27 H                     0.402093
     28 H                     0.129922
  ----------------------------------------
  Sum of atomic charges =    -2.000000

                    Cartesian Multipole Moments
 -----------------------------------------------------------------
    Charge (ESU x 10^10)
                -9.6064
    Dipole Moment (Debye)
         X      -0.1180      Y      -0.2656      Z      -2.0812
       Tot       2.1014
    Quadrupole Moments (Debye-Ang)
        XX    -152.3637     XY       3.0512     YY    -159.8939
        XZ       1.2797     YZ       4.5846     ZZ    -122.8789

 Total job time:  739.00s(wall), 5617.09s(cpu)
        *  Thank you very much for using Q-Chem.  Have a nice day.  *
