 Q-Chem 5.4, Q-Chem, Inc., Pleasanton, CA (2021)
 Q-Chem 5.4.0 for Intel X86 EM64T Linux

User input:
--------------------------------------------------------------
$molecule
-1 2
O                  4.5658040000     -1.3935810000     -0.8858290000
C                  3.4251030000     -0.6663710000     -0.5528020000
C                  3.4955780000      0.6734950000     -0.1761680000
C                  2.3286640000      1.3556530000      0.1452870000
O                  2.4174180000      2.6463670000      0.5087840000
C                  1.0680250000      0.6852820000      0.0787650000
C                 -0.1264180000      1.4424780000      0.4197560000
O                 -0.0204820000      2.6675520000      0.7629540000
C                 -1.4139240000      0.7720550000      0.3587710000
C                 -2.6327900000      1.4336000000      0.6735340000
O                 -2.6300020000      2.7574780000      1.0530740000
C                 -3.8374390000      0.7505810000      0.6011130000
C                 -3.8965110000     -0.5943600000      0.2206220000
C                 -2.7328400000     -1.2798640000     -0.0960590000
O                 -2.8213240000     -2.5746750000     -0.4594920000
C                 -1.4701190000     -0.6087640000     -0.0320200000
C                 -0.2743420000     -1.3652190000     -0.3739220000
O                 -0.3723570000     -2.5905810000     -0.7177660000
C                  1.0136600000     -0.6937670000     -0.3135530000
C                  2.2254850000     -1.3639110000     -0.6262050000
O                  2.2656630000     -2.6836760000     -0.9970820000
H                  5.3411520000     -0.9008090000     -0.6035780000
H                  4.4437450000      1.2004510000     -0.1371460000
H                  1.4426870000      2.9139800000      0.6838560000
H                 -3.5466650000      3.0039230000      1.2155220000
H                 -4.7573270000      1.2778550000      0.8469660000
H                 -4.8423970000     -1.1205750000      0.1663540000
H                 -1.8555420000     -2.8455220000     -0.6379680000
H                  3.1994990000     -2.9052740000     -1.1041690000
$end
$rem
MAX_SCF_CYCLES=200
BASIS  =  6-311++G(d,p)
GUI  =  2
JOB_TYPE  =  SP
METHOD  =  B3LYP
SOLVENT_METHOD = PCM
$end
$pcm
theory = CPCM
$end
$solvent
dielectric 37.219
opticaldielectric 1.43
$end

--------------------------------------------------------------

             Standard Nuclear Orientation (Angstroms)
    I     Atom           X                Y                Z
 ----------------------------------------------------------------
    1      O       4.5658040000    -1.3935810000    -0.8858290000
    2      C       3.4251030000    -0.6663710000    -0.5528020000
    3      C       3.4955780000     0.6734950000    -0.1761680000
    4      C       2.3286640000     1.3556530000     0.1452870000
    5      O       2.4174180000     2.6463670000     0.5087840000
    6      C       1.0680250000     0.6852820000     0.0787650000
    7      C      -0.1264180000     1.4424780000     0.4197560000
    8      O      -0.0204820000     2.6675520000     0.7629540000
    9      C      -1.4139240000     0.7720550000     0.3587710000
   10      C      -2.6327900000     1.4336000000     0.6735340000
   11      O      -2.6300020000     2.7574780000     1.0530740000
   12      C      -3.8374390000     0.7505810000     0.6011130000
   13      C      -3.8965110000    -0.5943600000     0.2206220000
   14      C      -2.7328400000    -1.2798640000    -0.0960590000
   15      O      -2.8213240000    -2.5746750000    -0.4594920000
   16      C      -1.4701190000    -0.6087640000    -0.0320200000
   17      C      -0.2743420000    -1.3652190000    -0.3739220000
   18      O      -0.3723570000    -2.5905810000    -0.7177660000
   19      C       1.0136600000    -0.6937670000    -0.3135530000
   20      C       2.2254850000    -1.3639110000    -0.6262050000
   21      O       2.2656630000    -2.6836760000    -0.9970820000
   22      H       5.3411520000    -0.9008090000    -0.6035780000
   23      H       4.4437450000     1.2004510000    -0.1371460000
   24      H       1.4426870000     2.9139800000     0.6838560000
   25      H      -3.5466650000     3.0039230000     1.2155220000
   26      H      -4.7573270000     1.2778550000     0.8469660000
   27      H      -4.8423970000    -1.1205750000     0.1663540000
   28      H      -1.8555420000    -2.8455220000    -0.6379680000
   29      H       3.1994990000    -2.9052740000    -1.1041690000
 ----------------------------------------------------------------

    8   -1065.3596407263      6.94e-06  Convergence criterion met
 Total energy in the final basis set =    -1065.3596407263

                    Orbital Energies (a.u.)
 --------------------------------------------------------------

 Alpha MOs
 -- Occupied --
-19.1638 -19.1499 -19.1487 -19.1286 -19.1261 -19.0901 -19.0889 -10.2405
-10.2404 -10.2382 -10.2381 -10.2360 -10.2346 -10.2315 -10.1868 -10.1834
-10.1814 -10.1794 -10.1738 -10.1716 -10.1689  -1.0806  -1.0614  -1.0561
 -1.0546  -1.0496  -1.0084  -1.0066  -0.8634  -0.8463  -0.7914  -0.7545
 -0.7425  -0.7354  -0.6814  -0.6548  -0.6436  -0.6084  -0.5940  -0.5758
 -0.5562  -0.5473  -0.5359  -0.5037  -0.4988  -0.4818  -0.4706  -0.4630
 -0.4543  -0.4516  -0.4324  -0.4298  -0.4292  -0.4206  -0.4168  -0.4125
 -0.4016  -0.3917  -0.3860  -0.3828  -0.3777  -0.3693  -0.3664  -0.3634
 -0.3569  -0.3557  -0.3128  -0.3038  -0.2687  -0.2578  -0.2481  -0.2460
 -0.2249  -0.2093  -0.1420

 Beta MOs
 -- Occupied --
-19.1636 -19.1493 -19.1484 -19.1282 -19.1256 -19.0864 -19.0844 -10.2396
-10.2387 -10.2379 -10.2359 -10.2356 -10.2336 -10.2312 -10.1866 -10.1829
-10.1813 -10.1794 -10.1729 -10.1709 -10.1678  -1.0795  -1.0603  -1.0549
 -1.0526  -1.0487  -1.0024  -0.9996  -0.8610  -0.8447  -0.7875  -0.7521
 -0.7399  -0.7333  -0.6756  -0.6527  -0.6414  -0.6071  -0.5926  -0.5741
 -0.5551  -0.5460  -0.5349  -0.5017  -0.4975  -0.4801  -0.4696  -0.4616
 -0.4526  -0.4456  -0.4290  -0.4269  -0.4263  -0.4192  -0.4139  -0.4056
 -0.3966  -0.3903  -0.3838  -0.3787  -0.3755  -0.3645  -0.3602  -0.3555
 -0.3544  -0.3516  -0.3049  -0.2986  -0.2559  -0.2546  -0.2428  -0.2427
 -0.2129  -0.2020

          Ground-State Mulliken Net Atomic Charges

     Atom                 Charge (a.u.)    Spin (a.u.)
  --------------------------------------------------------
      1 O                    -0.349778       0.006753
      2 C                    -0.470142       0.048690
      3 C                     0.258065       0.058121
      4 C                    -0.309682       0.024454
      5 O                    -0.447186       0.010704
      6 C                     0.587074      -0.011827
      7 C                    -0.273630       0.107456
      8 O                    -0.503375       0.139515
      9 C                     0.229863       0.013803
     10 C                    -0.266575       0.044336
     11 O                    -0.299545       0.010059
     12 C                    -0.148214       0.064364
     13 C                    -0.103292       0.071420
     14 C                    -0.353033       0.042490
     15 O                    -0.443164       0.014847
     16 C                     0.598841      -0.002320
     17 C                    -0.332720       0.132723
     18 O                    -0.495101       0.164501
     19 C                     0.486909      -0.010137
     20 C                    -0.458024       0.079413
     21 O                    -0.332319       0.014712
     22 H                     0.330649       0.000177
     23 H                     0.222471      -0.004986
     24 H                     0.417929      -0.002821
     25 H                     0.317237      -0.000461
     26 H                     0.195751      -0.006196
     27 H                     0.210737      -0.006161
     28 H                     0.403520      -0.003357
     29 H                     0.326737      -0.000273
  --------------------------------------------------------
  Sum of atomic charges =    -1.000000

                    Cartesian Multipole Moments
 -----------------------------------------------------------------
    Charge (ESU x 10^10)
                -4.8032
    Dipole Moment (Debye)
         X       2.1529      Y       1.6413      Z       0.8220
       Tot       2.8293
    Quadrupole Moments (Debye-Ang)
        XX     -99.4560     XY     -20.8377     YY    -165.6989
        XZ      -5.8495     YZ     -10.0373     ZZ    -128.7468

 Total job time:  97.92s(wall), 526.68s(cpu)
        *  Thank you very much for using Q-Chem.  Have a nice day.  *
