 Gaussian 16, Revision A.03,
 Gaussian 16:  ES64L-G16RevA.03 25-Dec-2016

 ----------------------------------------------------------------
 #P UB3LYP/6-311++G(d,p) SCRF=(PCM,Solvent=n,n-DiMethylFormamide)
 ----------------------------------------------------------------

 ------------------
 Radical PCM in DMF
 ------------------
 Symbolic Z-matrix:
 Charge = -1 Multiplicity = 2

                         Standard orientation:
 ---------------------------------------------------------------------
 Center     Atomic      Atomic             Coordinates (Angstroms)
 Number     Number       Type             X           Y           Z
 ---------------------------------------------------------------------
      1          8           0        4.717508   -0.762116   -0.016583
      2          6           0        3.454316   -0.174569   -0.008049
      3          6           0        3.291037    1.209411   -0.008483
      4          6           0        2.009787    1.746727   -0.001200
      5          8           0        1.872877    3.083589    0.001054
      6          6           0        0.872275    0.881225   -0.003115
      7          6           0       -0.448789    1.490403   -0.000397
      8          8           0       -0.557198    2.762431    0.002111
      9          6           0       -1.613421    0.621790    0.000395
     10          6           0       -2.941948    1.129105    0.001895
     11          8           0       -3.169891    2.487321    0.002067
     12          6           0       -4.022004    0.259383    0.003234
     13          6           0       -3.846320   -1.128516    0.002476
     14          6           0       -2.568461   -1.668336    0.000364
     15          8           0       -2.430743   -3.009038   -0.000679
     16          6           0       -1.428661   -0.802429   -0.000095
     17          6           0       -0.106263   -1.410913   -0.003758
     18          8           0        0.010047   -2.682060   -0.006037
     19          6           0        1.058803   -0.541395   -0.005374
     20          6           0        2.381287   -1.057530   -0.003178
     21          8           0        2.649640   -2.402449    0.007975
     22          1           0        5.372980   -0.091361    0.193413
     23          1           0        4.145053    1.879222   -0.023819
     24          1           0        0.856237    3.220740    0.000649
     25          1           0       -4.124960    2.610764    0.001020
     26          1           0       -5.029569    0.671043    0.004623
     27          1           0       -4.696093   -1.801147    0.003243
     28          1           0       -1.421979   -3.151632   -0.003511
     29          1           0        3.610572   -2.485189    0.056834
 ---------------------------------------------------------------------

 SCF Done:  E(UB3LYP) =  -1065.35030480     A.U. after   18 cycles

 The electronic state is 2-A.
 Alpha  occ. eigenvalues --  -19.16772 -19.15079 -19.15041 -19.12747 -19.12494
 Alpha  occ. eigenvalues --  -19.08940 -19.08798 -10.24139 -10.23987 -10.23824
 Alpha  occ. eigenvalues --  -10.23739 -10.23673 -10.23488 -10.23147 -10.18691
 Alpha  occ. eigenvalues --  -10.18358 -10.18138 -10.17940 -10.17576 -10.17329
 Alpha  occ. eigenvalues --  -10.17004  -1.08305  -1.06297  -1.05565  -1.05431
 Alpha  occ. eigenvalues --   -1.05078  -1.00746  -1.00552  -0.86363  -0.84688
 Alpha  occ. eigenvalues --   -0.79206  -0.75501  -0.74293  -0.73595  -0.68202
 Alpha  occ. eigenvalues --   -0.65585  -0.64423  -0.60948  -0.59503  -0.57636
 Alpha  occ. eigenvalues --   -0.55772  -0.54822  -0.53635  -0.50418  -0.49978
 Alpha  occ. eigenvalues --   -0.48203  -0.47133  -0.46383  -0.45533  -0.45185
 Alpha  occ. eigenvalues --   -0.43280  -0.42923  -0.42879  -0.42127  -0.41663
 Alpha  occ. eigenvalues --   -0.41176  -0.40239  -0.39318  -0.38640  -0.38362
 Alpha  occ. eigenvalues --   -0.37762  -0.36928  -0.36635  -0.36372  -0.35653
 Alpha  occ. eigenvalues --   -0.35523  -0.31257  -0.30368  -0.26903  -0.25663
 Alpha  occ. eigenvalues --   -0.24890  -0.24496  -0.22462  -0.20924  -0.14186
 Alpha virt. eigenvalues --   -0.04284  -0.02675  -0.00848  -0.00105   0.01040
 Alpha virt. eigenvalues --    0.01562   0.01862   0.01872   0.03412   0.04072
 Alpha virt. eigenvalues --    0.04172   0.04461   0.05175   0.05994   0.06196

  Beta  occ. eigenvalues --  -19.16749 -19.15046 -19.14991 -19.12716 -19.12450
  Beta  occ. eigenvalues --  -19.08533 -19.08319 -10.24061 -10.23810 -10.23802
  Beta  occ. eigenvalues --  -10.23636 -10.23519 -10.23395 -10.23118 -10.18668
  Beta  occ. eigenvalues --  -10.18315 -10.18129 -10.17945 -10.17485 -10.17250
  Beta  occ. eigenvalues --  -10.16895  -1.08211  -1.06204  -1.05428  -1.05261
  Beta  occ. eigenvalues --   -1.04959  -1.00109  -0.99810  -0.86123  -0.84531
  Beta  occ. eigenvalues --   -0.78822  -0.75267  -0.74038  -0.73382  -0.67628
  Beta  occ. eigenvalues --   -0.65368  -0.64213  -0.60823  -0.59370  -0.57470
  Beta  occ. eigenvalues --   -0.55660  -0.54691  -0.53528  -0.50223  -0.49843
  Beta  occ. eigenvalues --   -0.48035  -0.47033  -0.46251  -0.45377  -0.44601
  Beta  occ. eigenvalues --   -0.42865  -0.42679  -0.42636  -0.41987  -0.41337
  Beta  occ. eigenvalues --   -0.40524  -0.39743  -0.39165  -0.38474  -0.37939
  Beta  occ. eigenvalues --   -0.37572  -0.36469  -0.36031  -0.35545  -0.35365
  Beta  occ. eigenvalues --   -0.35046  -0.30481  -0.29829  -0.25561  -0.25310
  Beta  occ. eigenvalues --   -0.24348  -0.24149  -0.21250  -0.20221
  Beta virt. eigenvalues --   -0.09027  -0.02916  -0.01660  -0.00823  -0.00092
  Beta virt. eigenvalues --    0.01059   0.01589   0.01877   0.02262   0.03427
  Beta virt. eigenvalues --    0.04104   0.04296   0.04555   0.05831   0.06021

 Mulliken charges and spin densities:
               1          2
     1  O   -0.336727   0.006292
     2  C   -0.455446   0.048379
     3  C    0.266257   0.061182
     4  C   -0.337003   0.021379
     5  O   -0.435798   0.010021
     6  C    0.587673  -0.010280
     7  C   -0.289807   0.102533
     8  O   -0.486083   0.145869
     9  C    0.251004   0.014874
    10  C   -0.253478   0.043454
    11  O   -0.275254   0.009586
    12  C   -0.151578   0.062866
    13  C   -0.083734   0.074253
    14  C   -0.363452   0.039923
    15  O   -0.431291   0.014272
    16  C    0.598070  -0.001073
    17  C   -0.346899   0.126322
    18  O   -0.476875   0.171689
    19  C    0.507192  -0.007780
    20  C   -0.460914   0.076936
    21  O   -0.315434   0.014050
    22  H    0.313092   0.000258
    23  H    0.198121  -0.005272
    24  H    0.410336  -0.002965
    25  H    0.296157  -0.000483
    26  H    0.168225  -0.006094
    27  H    0.194937  -0.006390
    28  H    0.395940  -0.003534
    29  H    0.312769  -0.000267
 Sum of Mulliken charges =  -1.00000   1.00000

 Dipole moment (field-independent basis, Debye):
    X=              2.0822    Y=              1.8601    Z=              0.4893  Tot=              2.8346
 Quadrupole moment (field-independent basis, Debye-Ang):
   XX=            -98.8236   YY=           -172.3580   ZZ=           -125.9059
   XY=             -9.0509   XZ=              2.6600   YZ=             -0.3151

 Normal termination of Gaussian 16 at Tue Jan 16 05:54:10 2024.
