 Q-Chem 5.4, Q-Chem, Inc., Pleasanton, CA (2021)
 Q-Chem 5.4.0 for Intel X86 EM64T Linux

User input:
--------------------------------------------------------------
$molecule
-1 1
C                 -1.8580200000      2.7968120000     -0.7932290000
C                 -2.9308370000      1.9638980000     -0.5004900000
C                 -2.6842500000      0.6610020000     -0.0667300000
C                 -0.5457990000      2.3352550000     -0.6549940000
C                 -0.2877370000      1.0154030000     -0.2156430000
C                 -1.3823280000      0.1881750000      0.0755030000
C                  0.5713570000      3.2599230000     -0.9792830000
C                  2.0208830000      2.7160880000     -0.8153840000
C                  2.1662000000      1.3421810000     -0.3562460000
C                  1.1076500000      0.5512780000     -0.0775560000
O                  0.3951980000      4.4000600000     -1.3593870000
O                  2.9602220000      3.4488330000     -1.0733110000
H                 -2.0090400000      3.8147640000     -1.1326370000
H                 -3.9484050000      2.3239000000     -0.6084080000
H                 -3.5131650000      0.0006380000      0.1651060000
H                 -1.2057830000     -0.8227590000      0.4123190000
H                  3.1706040000      0.9527630000     -0.2383390000
S                  1.4444230000     -1.1686950000      0.4951220000
O                  2.9167020000     -1.2788840000      0.5133440000
O                  0.7657270000     -2.0016540000     -0.5292340000
O                  0.7957510000     -1.2103760000      1.8297480000
$end
$rem
MAX_SCF_CYCLES=200
BASIS  =  6-311++G(d,p)
GUI  =  2
JOB_TYPE  =  SP
METHOD  =  B3LYP
SOLVENT_METHOD = PCM
$end
$pcm
theory = CPCM
$end
$solvent
dielectric 37.219
opticaldielectric 1.43
$end

--------------------------------------------------------------

             Standard Nuclear Orientation (Angstroms)
    I     Atom           X                Y                Z
 ----------------------------------------------------------------
    1      C      -1.8580200000     2.7968120000    -0.7932290000
    2      C      -2.9308370000     1.9638980000    -0.5004900000
    3      C      -2.6842500000     0.6610020000    -0.0667300000
    4      C      -0.5457990000     2.3352550000    -0.6549940000
    5      C      -0.2877370000     1.0154030000    -0.2156430000
    6      C      -1.3823280000     0.1881750000     0.0755030000
    7      C       0.5713570000     3.2599230000    -0.9792830000
    8      C       2.0208830000     2.7160880000    -0.8153840000
    9      C       2.1662000000     1.3421810000    -0.3562460000
   10      C       1.1076500000     0.5512780000    -0.0775560000
   11      O       0.3951980000     4.4000600000    -1.3593870000
   12      O       2.9602220000     3.4488330000    -1.0733110000
   13      H      -2.0090400000     3.8147640000    -1.1326370000
   14      H      -3.9484050000     2.3239000000    -0.6084080000
   15      H      -3.5131650000     0.0006380000     0.1651060000
   16      H      -1.2057830000    -0.8227590000     0.4123190000
   17      H       3.1706040000     0.9527630000    -0.2383390000
   18      S       1.4444230000    -1.1686950000     0.4951220000
   19      O       2.9167020000    -1.2788840000     0.5133440000
   20      O       0.7657270000    -2.0016540000    -0.5292340000
   21      O       0.7957510000    -1.2103760000     1.8297480000
 ----------------------------------------------------------------

    9   -1158.7282820890      7.01e-06  Convergence criterion met
 Total energy in the final basis set =    -1158.7282820890

                    Orbital Energies (a.u.)
 --------------------------------------------------------------

 Alpha MOs
 -- Occupied --
-89.0596 -19.1450 -19.1439 -19.1061 -19.1034 -19.1034 -10.2863 -10.2843
-10.2366 -10.2187 -10.2063 -10.1986 -10.1979 -10.1958 -10.1938 -10.1933
 -8.1183  -6.0810  -6.0808  -6.0804  -1.1257  -1.0866  -1.0599  -0.9919
 -0.9867  -0.8949  -0.8401  -0.7834  -0.7643  -0.7187  -0.6511  -0.6365
 -0.6188  -0.5779  -0.5459  -0.5300  -0.5143  -0.4856  -0.4761  -0.4673
 -0.4661  -0.4597  -0.4584  -0.4561  -0.4462  -0.4232  -0.4052  -0.3930
 -0.3781  -0.3751  -0.3492  -0.3441  -0.3433  -0.3243  -0.3129  -0.3014
 -0.2995  -0.2787  -0.2693  -0.2662  -0.2596

          Ground-State Mulliken Net Atomic Charges

     Atom                 Charge (a.u.)
  ----------------------------------------
      1 C                     0.168600
      2 C                    -0.495727
      3 C                    -0.850640
      4 C                     0.447601
      5 C                     1.116910
      6 C                    -0.509709
      7 C                    -0.498866
      8 C                     0.108443
      9 C                     0.010040
     10 C                    -0.560972
     11 O                    -0.283068
     12 O                    -0.318821
     13 H                     0.199396
     14 H                     0.225050
     15 H                     0.228540
     16 H                     0.175920
     17 H                     0.280416
     18 S                     0.522921
     19 O                    -0.257884
     20 O                    -0.353658
     21 O                    -0.354492
  ----------------------------------------
  Sum of atomic charges =    -1.000000

                    Cartesian Multipole Moments
 -----------------------------------------------------------------
    Charge (ESU x 10^10)
                -4.8032
    Dipole Moment (Debye)
         X     -12.4096      Y       1.4054      Z      -0.8981
       Tot      12.5212
    Quadrupole Moments (Debye-Ang)
        XX    -115.8737     XY      -8.0644     YY    -146.8280
        XZ       1.2915     YZ      12.9522     ZZ    -113.5100

 Total job time:  42.39s(wall), 225.63s(cpu)
        *  Thank you very much for using Q-Chem.  Have a nice day.  *
