 Q-Chem 5.4, Q-Chem, Inc., Pleasanton, CA (2021)
 Q-Chem 5.4.0 for Intel X86 EM64T Linux

User input:
--------------------------------------------------------------
$molecule
0 1
C                  1.2058380000      4.2606610000      5.3248840000
C                  1.5527180000      4.0160780000      3.9095680000
C                  1.0768540000      2.9524100000      3.2545380000
C                  0.1743450000      1.9718840000      3.9047400000
C                 -0.1289000000      2.1751600000      5.3563560000
C                  0.3510670000      3.2339290000      6.0308710000
O                  1.5798460000      5.2570650000      5.9101280000
O                 -0.3093460000      1.0578500000      3.2653960000
H                  2.1974440000      4.7545550000      3.4467280000
H                  1.3019660000      2.7529750000      2.2128330000
S                 -1.1209720000      0.8717760000      6.1959430000
C                  0.2026370000      3.5118890000      7.5120590000
O                  1.0424190000      3.1763360000      8.3015060000
O                 -0.8800770000      4.2448440000      7.7648380000
C                 -1.0950150000      4.5780250000      9.1557550000
H                 -1.9878210000      5.1981090000      9.1672710000
H                 -0.2374160000      5.1251130000      9.5470380000
H                 -1.2478230000      3.6640250000      9.7297870000
C                 -2.7057030000      0.8763770000      5.3462030000
C                 -2.9582400000     -0.0846820000      4.3707240000
C                 -3.6612970000      1.8200830000      5.7218780000
C                 -4.2062230000     -0.0941400000      3.7532500000
C                 -4.9005260000      1.8044200000      5.0872200000
C                 -5.1711800000      0.8487720000      4.1075310000
O                 -0.4470250000     -0.4020490000      5.9614090000
O                 -1.3505850000      1.3667240000      7.5561100000
H                 -2.1905730000     -0.7999960000      4.1087470000
H                 -3.4408660000      2.5373010000      6.5026320000
H                 -4.4237430000     -0.8381230000      2.9960430000
H                 -5.6566210000      2.5288750000      5.3661600000
H                 -6.1397610000      0.8369830000      3.6206140000
$end
$rem
MAX_SCF_CYCLES=200
BASIS  =  6-311++G(d,p)
GUI  =  2
JOB_TYPE  =  SP
METHOD  =  B3LYP
SOLVENT_METHOD = COSMO
$end
$solvent
dielectric 37.219
opticaldielectric 1.43
$end

--------------------------------------------------------------

             Standard Nuclear Orientation (Angstroms)
    I     Atom           X                Y                Z
 ----------------------------------------------------------------
    1      C       2.7018245869     1.2418912228     0.7574650380
    2      C       2.3061929175     2.6525893906     0.9489649589
    3      C       1.1009005247     3.0903872197     0.5714682432
    4      C       0.0990477974     2.1891541907    -0.0472291890
    5      C       0.5148430039     0.7746969219    -0.3058653327
    6      C       1.7271425722     0.3229836361     0.0582987318
    7      O       3.7687882177     0.8191935094     1.1551190439
    8      O      -1.0180646204     2.5921806880    -0.3076238426
    9      H       3.0449017534     3.2905790736     1.4206843462
   10      H       0.7763550810     4.1154970716     0.7108206216
   11      S      -0.6751438151    -0.2960036930    -1.2144106530
   12      C       2.3097546752    -1.0461035019    -0.2234363634
   13      O       3.0011393540    -1.2492305821    -1.1835315692
   14      O       2.0469779863    -1.9006884056     0.7634896291
   15      C       2.5818767607    -3.2334022541     0.5913991801
   16      H       2.3044836093    -3.7722975315     1.4938315923
   17      H       3.6654652872    -3.1912149953     0.4821295547
   18      H       2.1357794333    -3.6938516702    -0.2902144153
   19      C      -2.1233288536    -0.3842993368    -0.1521415946
   20      C      -3.2200104966     0.4286174663    -0.4267763748
   21      C      -2.1259349090    -1.3029596230     0.8971100911
   22      C      -4.3498126085     0.3165998422     0.3793404918
   23      C      -3.2591559823    -1.3951480462     1.7008736849
   24      C      -4.3672766038    -0.5885495584     1.4405377637
   25      O      -1.0213656703     0.3967919750    -2.4521527409
   26      O      -0.0663697158    -1.6288796911    -1.2386096199
   27      H      -3.1785173252     1.1277403559    -1.2508662922
   28      H      -1.2655765009    -1.9381826295     1.0669436429
   29      H      -5.2154855786     0.9363844687     0.1776838005
   30      H      -3.2808392243    -2.1038510341     2.5203809341
   31      H      -5.2494902141    -0.6684293903     2.0655934871
 ----------------------------------------------------------------

   10   -1389.2296964543      4.88e-06  Convergence criterion met
 Total energy in the final basis set =    -1389.2296964543
    5   -1389.2580870492      4.76e-06  Convergence criterion met
 Total energy in the final basis set =    -1389.2580870492

                    Orbital Energies (a.u.)
 --------------------------------------------------------------

 Alpha MOs
 -- Occupied --
-89.0821 -19.1953 -19.1660 -19.1619 -19.1476 -19.1467 -19.1459 -10.3425
-10.3138 -10.3130 -10.2647 -10.2632 -10.2291 -10.2286 -10.2257 -10.2244
-10.2065 -10.2042 -10.1971 -10.1950 -10.1945  -8.1458  -6.1085  -6.1078
 -6.1067  -1.1455  -1.1400  -1.0986  -1.0954  -1.0586  -1.0408  -0.8958
 -0.8889  -0.8307  -0.7970  -0.7743  -0.7658  -0.7324  -0.7054  -0.6674
 -0.6457  -0.6334  -0.6043  -0.5932  -0.5636  -0.5593  -0.5485  -0.5332
 -0.5122  -0.5086  -0.5040  -0.4998  -0.4892  -0.4859  -0.4738  -0.4699
 -0.4641  -0.4560  -0.4476  -0.4465  -0.4425  -0.4325  -0.4157  -0.3988
 -0.3910  -0.3823  -0.3725  -0.3705  -0.3626  -0.3497  -0.3421  -0.3331
 -0.3313  -0.3254  -0.3163  -0.3152  -0.2967  -0.2842  -0.2791

          Ground-State Mulliken Net Atomic Charges

     Atom                 Charge (a.u.)
  ----------------------------------------
      1 C                    -0.189378
      2 C                    -0.160000
      3 C                     0.134934
      4 C                    -0.255604
      5 C                    -0.113477
      6 C                     0.565147
      7 O                    -0.218536
      8 O                    -0.206240
      9 H                     0.277375
     10 H                     0.283745
     11 S                     0.522915
     12 C                    -0.665736
     13 O                    -0.173992
     14 O                     0.070649
     15 C                    -0.253402
     16 H                     0.187511
     17 H                     0.194165
     18 H                     0.199894
     19 C                     0.730243
     20 C                    -0.119788
     21 C                    -0.396824
     22 C                    -0.466693
     23 C                    -0.499955
     24 C                    -0.348152
     25 O                    -0.143185
     26 O                    -0.137047
     27 H                     0.279042
     28 H                     0.196854
     29 H                     0.239358
     30 H                     0.248681
     31 H                     0.217499
  ----------------------------------------
  Sum of atomic charges =     0.000000

                    Cartesian Multipole Moments
 -----------------------------------------------------------------
    Charge (ESU x 10^10)
                -0.0000
    Dipole Moment (Debye)
         X      -3.2597      Y       1.6017      Z       7.9524
       Tot       8.7425
    Quadrupole Moments (Debye-Ang)
        XX    -121.9473     XY       7.0149     YY    -106.9078
        XZ      -4.6327     YZ      -5.0390     ZZ    -137.5981

 Total job time:  116.54s(wall), 705.05s(cpu)
        *  Thank you very much for using Q-Chem.  Have a nice day.  *
