 Gaussian 16, Revision A.03,
 Gaussian 16:  ES64L-G16RevA.03 25-Dec-2016

 --------------------------------------
 #P UB3LYP/6-311++G(d,p) nosym opt freq
 --------------------------------------

 --------
 Oxidized
 --------
 Symbolic Z-matrix:
 Charge =  0 Multiplicity = 1

 SCF Done:  E(UB3LYP) =  -838.425919378     A.U. after   16 cycles
 SCF Done:  E(UB3LYP) =  -838.430493067     A.U. after   14 cycles
 SCF Done:  E(UB3LYP) =  -838.429867427     A.U. after   14 cycles
 SCF Done:  E(UB3LYP) =  -838.431014133     A.U. after   13 cycles
 SCF Done:  E(UB3LYP) =  -838.431046706     A.U. after   13 cycles
 SCF Done:  E(UB3LYP) =  -838.431171483     A.U. after   12 cycles
 SCF Done:  E(UB3LYP) =  -838.431184777     A.U. after   12 cycles
 SCF Done:  E(UB3LYP) =  -838.431205277     A.U. after   11 cycles
 SCF Done:  E(UB3LYP) =  -838.431214905     A.U. after   12 cycles
 SCF Done:  E(UB3LYP) =  -838.431220278     A.U. after   12 cycles
 SCF Done:  E(UB3LYP) =  -838.431222905     A.U. after   11 cycles
 SCF Done:  E(UB3LYP) =  -838.431223427     A.U. after   10 cycles
 SCF Done:  E(UB3LYP) =  -838.431223927     A.U. after   10 cycles
 SCF Done:  E(UB3LYP) =  -838.431224166     A.U. after   10 cycles
 SCF Done:  E(UB3LYP) =  -838.431224274     A.U. after    9 cycles
 Optimization completed.
    -- Stationary point found.
 Normal termination of Gaussian 16 at Wed Dec 27 05:28:17 2023.

 ----------------------------------------------------------------------
 #P Geom=AllCheck Guess=TCheck SCRF=Check GenChk UB3LYP/6-311++G(d,p) F
 req
 ----------------------------------------------------------------------

 Structure from the checkpoint file:  "263.chk"
 --------
 Oxidized
 --------
 Charge =  0 Multiplicity = 1

                          Input orientation:
 ---------------------------------------------------------------------
 Center     Atomic      Atomic             Coordinates (Angstroms)
 Number     Number       Type             X           Y           Z
 ---------------------------------------------------------------------
      1          6           0       -1.277597    2.857996    0.226064
      2          6           0       -2.609192    2.426495    0.186382
      3          6           0       -2.917107    1.094479   -0.019949
      4          6           0       -0.235380    1.926116    0.030425
      5          6           0       -0.571893    0.567187   -0.192361
      6          6           0       -1.906322    0.146252   -0.192050
      7          6           0        1.198933    2.338832    0.077438
      8          6           0        2.222111    1.277717   -0.110808
      9          6           0        1.907717    0.005131   -0.372786
     10          6           0        0.504376   -0.426769   -0.511432
     11          8           0        1.569219    3.483965    0.269746
     12          8           0        0.241627   -1.551006   -0.905550
     13          8           0       -0.985073    4.158900    0.441631
     14          1           0       -3.953217    0.778418   -0.046520
     15          1           0        2.655647   -0.762553   -0.537646
     16          6           0       -2.344276   -1.281773   -0.377339
     17          8           0       -2.993954   -1.663895   -1.318695
     18          8           0       -2.035729   -2.033031    0.692002
     19          6           0       -2.352123   -3.434958    0.584557
     20          1           0       -3.405540    3.152057    0.323848
     21          1           0        3.248271    1.620814   -0.036637
     22          1           0       -1.803478    4.657611    0.548329
     23          1           0       -2.060963   -3.870683    1.537536
     24          1           0       -1.781875   -3.878828   -0.232452
     25          1           0       -3.418632   -3.574614    0.404858
 ---------------------------------------------------------------------

 SCF Done:  E(UB3LYP) =  -838.431224274     A.U. after    1 cycles

 Alpha  occ. eigenvalues --  -19.18654 -19.17475 -19.13948 -19.13071 -19.11970
 Alpha  occ. eigenvalues --  -10.31500 -10.28902 -10.28487 -10.28207 -10.22794
 Alpha  occ. eigenvalues --  -10.22732 -10.22145 -10.22045 -10.21870 -10.21745
 Alpha  occ. eigenvalues --  -10.21599 -10.21500  -1.11774  -1.10485  -1.07246
 Alpha  occ. eigenvalues --   -1.06325  -1.03106  -0.90378  -0.85045  -0.80103
 Alpha  occ. eigenvalues --   -0.79411  -0.73900  -0.70842  -0.67818  -0.66200
 Alpha  occ. eigenvalues --   -0.62473  -0.59953  -0.56689  -0.55103  -0.53338
 Alpha  occ. eigenvalues --   -0.52089  -0.50739  -0.49463  -0.48749  -0.48276
 Alpha  occ. eigenvalues --   -0.46584  -0.46196  -0.45973  -0.44013  -0.43609
 Alpha  occ. eigenvalues --   -0.43445  -0.41912  -0.41529  -0.41022  -0.39737
 Alpha  occ. eigenvalues --   -0.39338  -0.37185  -0.36743  -0.31764  -0.31060
 Alpha  occ. eigenvalues --   -0.29806  -0.29568  -0.28697  -0.27287  -0.26138
 Alpha virt. eigenvalues --   -0.12967  -0.06204  -0.04866  -0.02571  -0.00529
 Alpha virt. eigenvalues --   -0.00321   0.00024   0.00614   0.02122   0.02328
 Alpha virt. eigenvalues --    0.02785   0.03275   0.03587   0.04505   0.05018

  Beta  occ. eigenvalues --  -19.18654 -19.17475 -19.13948 -19.13071 -19.11970
  Beta  occ. eigenvalues --  -10.31500 -10.28902 -10.28487 -10.28207 -10.22794
  Beta  occ. eigenvalues --  -10.22732 -10.22145 -10.22045 -10.21870 -10.21745
  Beta  occ. eigenvalues --  -10.21599 -10.21500  -1.11774  -1.10485  -1.07246
  Beta  occ. eigenvalues --   -1.06325  -1.03106  -0.90378  -0.85045  -0.80103
  Beta  occ. eigenvalues --   -0.79411  -0.73900  -0.70842  -0.67818  -0.66200
  Beta  occ. eigenvalues --   -0.62473  -0.59953  -0.56689  -0.55103  -0.53338
  Beta  occ. eigenvalues --   -0.52089  -0.50739  -0.49463  -0.48749  -0.48276
  Beta  occ. eigenvalues --   -0.46584  -0.46196  -0.45973  -0.44013  -0.43609
  Beta  occ. eigenvalues --   -0.43445  -0.41912  -0.41529  -0.41022  -0.39737
  Beta  occ. eigenvalues --   -0.39338  -0.37185  -0.36743  -0.31764  -0.31060
  Beta  occ. eigenvalues --   -0.29806  -0.29568  -0.28697  -0.27287  -0.26138
  Beta virt. eigenvalues --   -0.12967  -0.06204  -0.04866  -0.02571  -0.00529
  Beta virt. eigenvalues --   -0.00321   0.00024   0.00614   0.02122   0.02328
  Beta virt. eigenvalues --    0.02785   0.03275   0.03587   0.04505   0.05018

 Mulliken charges and spin densities:
               1          2
     1  C    0.159757   0.000000
     2  C    0.030727  -0.000000
     3  C   -0.338089  -0.000000
     4  C   -0.021243   0.000000
     5  C    0.656817  -0.000000
     6  C    0.730235   0.000000
     7  C   -0.417470  -0.000000
     8  C   -0.110839   0.000000
     9  C   -0.108444  -0.000000
    10  C   -0.630016   0.000000
    11  O   -0.214107   0.000000
    12  O   -0.179081  -0.000000
    13  O   -0.151608  -0.000000
    14  H    0.190704  -0.000000
    15  H    0.216858   0.000000
    16  C   -0.573378   0.000000
    17  O   -0.170587   0.000000
    18  O    0.027896  -0.000000
    19  C   -0.240045   0.000000
    20  H    0.140901  -0.000000
    21  H    0.216739   0.000000
    22  H    0.270418   0.000000
    23  H    0.157041  -0.000000
    24  H    0.190907   0.000000
    25  H    0.165906  -0.000000
 Sum of Mulliken charges =  -0.00000   0.00000

 Dipole moment (field-independent basis, Debye):
    X=             -1.6645    Y=              0.6964    Z=              2.1852  Tot=              2.8338
 Quadrupole moment (field-independent basis, Debye-Ang):
   XX=            -85.0646   YY=            -94.2767   ZZ=           -102.4828
   XY=            -17.0210   XZ=             -8.6604   YZ=             -5.7024

  Exact polarizability: 179.997  13.419 205.131   1.073  16.011  91.995
 Approx polarizability: 279.914  27.287 350.465  10.080  42.094 153.067

                      1                      2                      3
                      A                      A                      A
 Frequencies --     27.0003                48.3240                74.5237
 Red. masses --      6.9096                 7.2828                 5.4647
 Frc consts  --      0.0030                 0.0100                 0.0179
 IR Inten    --      1.0040                 6.7484                 3.4640

                      4                      5                      6
                      A                      A                      A
 Frequencies --     89.0789               105.2906               136.3589
 Red. masses --      3.2095                 5.6228                 1.1857
 Frc consts  --      0.0150                 0.0367                 0.0130
 IR Inten    --      2.2511                 6.1301                 0.1322

                      7                      8                      9
                      A                      A                      A
 Frequencies --    169.8797               223.7898               227.4072
 Red. masses --      6.0787                 5.8785                 5.8832
 Frc consts  --      0.1034                 0.1735                 0.1793
 IR Inten    --      1.7250                 0.7500                 0.6226

                     10                     11                     12
                      A                      A                      A
 Frequencies --    254.8425               278.9309               296.3361
 Red. masses --      4.6978                 6.9049                 8.8380
 Frc consts  --      0.1798                 0.3165                 0.4573
 IR Inten    --      0.1547                 4.4774                 1.2424

                     13                     14                     15
                      A                      A                      A
 Frequencies --    314.4045               371.4612               386.0820
 Red. masses --      4.1989                 9.2584                 1.3583
 Frc consts  --      0.2445                 0.7527                 0.1193
 IR Inten    --     20.4053                14.9139                72.5501

                     16                     17                     18
                      A                      A                      A
 Frequencies --    391.9687               423.0725               446.6007
 Red. masses --      4.3712                 5.0683                 9.0725
 Frc consts  --      0.3957                 0.5345                 1.0661
 IR Inten    --     21.5840                 8.7886                 6.3085

                     19                     20                     21
                      A                      A                      A
 Frequencies --    465.3703               496.9863               561.4023
 Red. masses --      5.0769                 7.0291                 3.9514
 Frc consts  --      0.6478                 1.0229                 0.7338
 IR Inten    --      9.5524                 0.9821                 8.9333

                     22                     23                     24
                      A                      A                      A
 Frequencies --    565.6909               622.1903               662.7569
 Red. masses --      4.8126                 4.4730                 2.7782
 Frc consts  --      0.9074                 1.0202                 0.7190
 IR Inten    --      6.3938                 6.0788                 9.3224

                     25                     26                     27
                      A                      A                      A
 Frequencies --    669.9960               715.1217               752.5282
 Red. masses --      5.7774                 6.3909                 7.3940
 Frc consts  --      1.5280                 1.9256                 2.4670
 IR Inten    --     11.9092                 1.4956                26.4809

                     28                     29                     30
                      A                      A                      A
 Frequencies --    768.5612               801.5387               810.1906
 Red. masses --      6.0674                 5.7440                 9.0641
 Frc consts  --      2.1116                 2.1743                 3.5055
 IR Inten    --      5.7968                10.7665                 3.4157

                     31                     32                     33
                      A                      A                      A
 Frequencies --    836.8016               873.1528               883.3502
 Red. masses --      1.6687                 2.3155                 5.5903
 Frc consts  --      0.6884                 1.0401                 2.5701
 IR Inten    --     23.7585                45.3082                 2.2280

                     34                     35                     36
                      A                      A                      A
 Frequencies --    946.8210               966.1984               989.8821
 Red. masses --      6.7523                 1.4347                 6.2558
 Frc consts  --      3.5664                 0.7891                 3.6116
 IR Inten    --     29.5125                 1.7367                13.5294

                     37                     38                     39
                      A                      A                      A
 Frequencies --   1019.8887              1090.4459              1112.1565
 Red. masses --      1.2637                 3.0555                 1.9290
 Frc consts  --      0.7745                 2.1406                 1.4057
 IR Inten    --      0.2088                62.1630               127.0126

                     40                     41                     42
                      A                      A                      A
 Frequencies --   1155.1796              1169.5050              1187.6858
 Red. masses --      3.1175                 1.3174                 1.3274
 Frc consts  --      2.4511                 1.0616                 1.1032
 IR Inten    --    137.9941                 3.1442                48.8993

                     43                     44                     45
                      A                      A                      A
 Frequencies --   1202.2081              1213.4567              1274.1183
 Red. masses --      1.4053                 1.6551                 3.3481
 Frc consts  --      1.1967                 1.4359                 3.2023
 IR Inten    --     62.1340                46.8301               220.7736

                     46                     47                     48
                      A                      A                      A
 Frequencies --   1294.1830              1303.3250              1326.1188
 Red. masses --      2.3064                 4.5312                 3.5095
 Frc consts  --      2.2760                 4.5349                 3.6364
 IR Inten    --     43.1930               419.8962                22.4220

                     49                     50                     51
                      A                      A                      A
 Frequencies --   1369.8906              1392.8204              1436.5358
 Red. masses --      5.5711                 1.9327                 4.9268
 Frc consts  --      6.1597                 2.2091                 5.9903
 IR Inten    --     39.6464                 1.0899                39.5042

                     52                     53                     54
                      A                      A                      A
 Frequencies --   1467.2034              1483.5002              1496.0996
 Red. masses --      1.2080                 1.0451                 1.0461
 Frc consts  --      1.5321                 1.3552                 1.3796
 IR Inten    --     16.7045                 9.7695                 8.4619

                     55                     56                     57
                      A                      A                      A
 Frequencies --   1508.6689              1605.7702              1626.8620
 Red. masses --      2.9179                 6.4843                 6.3995
 Frc consts  --      3.9130                 9.8510                 9.9792
 IR Inten    --      8.4728                97.9577                47.1293

                     58                     59                     60
                      A                      A                      A
 Frequencies --   1675.3474              1722.1000              1727.4648
 Red. masses --      8.3885                10.2862                11.5371
 Frc consts  --     13.8721                17.9730                20.2845
 IR Inten    --     31.6947                83.6028               379.9920

                     61                     62                     63
                      A                      A                      A
 Frequencies --   1782.5180              3051.7094              3127.4384
 Red. masses --     11.9334                 1.0292                 1.1074
 Frc consts  --     22.3400                 5.6473                 6.3814
 IR Inten    --    288.7915                36.9999                13.5128

                     64                     65                     66
                      A                      A                      A
 Frequencies --   3154.4694              3158.3120              3175.3200
 Red. masses --      1.0897                 1.1064                 1.0872
 Frc consts  --      6.3886                 6.5025                 6.4583
 IR Inten    --     10.2520                12.5917                 0.6952

                     67                     68                     69
                      A                      A                      A
 Frequencies --   3190.5002              3193.2048              3809.6417
 Red. masses --      1.0935                 1.0992                 1.0661
 Frc consts  --      6.5580                 6.6037                 9.1160
 IR Inten    --      2.6179                 4.0265                82.8823

 - Thermochemistry -
 -------------------
 Temperature   298.150 Kelvin.  Pressure   1.00000 Atm.
 Atom     1 has atomic number  6 and mass  12.00000

 Molecular mass:   232.03717 amu.
 Principal axes and moments of inertia in atomic units:
                           1         2         3
     Eigenvalues --  2184.615824741.618866505.70780
           X            0.46051   0.88592   0.05554
           Y            0.88570  -0.45443  -0.09504
           Z            0.05896  -0.09296   0.99392
 This molecule is an asymmetric top.
 Rotational symmetry number  1.
 Warning -- assumption of classical behavior for rotation
           may cause significant error
 Rotational temperatures (Kelvin)      0.03965     0.01827     0.01331
 Rotational constants (GHZ):           0.82611     0.38062     0.27741
 Zero-point vibrational energy     467485.9 (Joules/Mol)
                                  111.73181 (Kcal/Mol)
 Warning -- explicit consideration of  22 degrees of freedom as
           vibrations may cause significant error
 Vibrational temperatures:     38.85    69.53   107.22   128.16   151.49
          (Kelvin)            196.19   244.42   321.98   327.19   366.66
                              401.32   426.36   452.36   534.45   555.49
                              563.96   608.71   642.56   669.56   715.05
                              807.73   813.90   895.19   953.56   963.97
                             1028.90  1082.72  1105.79  1153.24  1165.68
                             1203.97  1256.27  1270.94  1362.26  1390.14
                             1424.22  1467.39  1568.91  1600.15  1662.05
                             1682.66  1708.81  1729.71  1745.89  1833.17
                             1862.04  1875.19  1907.99  1970.97  2003.96
                             2066.85  2110.98  2134.43  2152.55  2170.64
                             2310.35  2340.69  2410.45  2477.72  2485.44
                             2564.65  4390.73  4499.69  4538.58  4544.11
                             4568.58  4590.42  4594.31  5481.22

 Zero-point correction=                           0.178056 (Hartree/Particle)
 Thermal correction to Energy=                    0.192752
 Thermal correction to Enthalpy=                  0.193696
 Thermal correction to Gibbs Free Energy=         0.135296
 Sum of electronic and zero-point Energies=           -838.253168
 Sum of electronic and thermal Energies=              -838.238472
 Sum of electronic and thermal Enthalpies=            -838.237528
 Sum of electronic and thermal Free Energies=         -838.295928

                     E (Thermal)             CV                S
                      KCal/Mol        Cal/Mol-Kelvin    Cal/Mol-Kelvin
 Total                  120.954             54.735            122.912
 Electronic               0.000              0.000              0.000
 Translational            0.889              2.981             42.227
 Rotational               0.889              2.981             32.577
 Vibrational            119.176             48.773             48.108
 Vibration     1          0.593              1.984              6.038
 Vibration     2          0.595              1.978              4.885
 Vibration     3          0.599              1.966              4.030
 Vibration     4          0.602              1.957              3.680
 Vibration     5          0.605              1.945              3.354
 Vibration     6          0.614              1.917              2.854
 Vibration     7          0.625              1.880              2.437
 Vibration     8          0.649              1.805              1.928
 Vibration     9          0.651              1.799              1.899
 Vibration    10          0.665              1.755              1.697
 Vibration    11          0.679              1.713              1.540
 Vibration    12          0.690              1.681              1.438
 Vibration    13          0.702              1.646              1.339
 Vibration    14          0.743              1.531              1.074
 Vibration    15          0.755              1.500              1.015
 Vibration    16          0.759              1.487              0.993
 Vibration    17          0.785              1.420              0.882
 Vibration    18          0.806              1.368              0.806
 Vibration    19          0.823              1.327              0.751
 Vibration    20          0.853              1.257              0.666
 Vibration    21          0.917              1.115              0.521
 Vibration    22          0.922              1.105              0.513

 Optimization completed.
    -- Stationary point found.
 Normal termination of Gaussian 16 at Wed Dec 27 05:50:12 2023.
