 Gaussian 16, Revision A.03,
 Gaussian 16:  ES64L-G16RevA.03 25-Dec-2016

 --------------------------------------
 #P UB3LYP/6-311++G(d,p) nosym opt freq
 --------------------------------------

 -------
 Radical
 -------
 Symbolic Z-matrix:
 Charge = -1 Multiplicity = 2

 SCF Done:  E(UB3LYP) =  -751.608951456     A.U. after   21 cycles
 Optimization completed.
    -- Stationary point found.
 Normal termination of Gaussian 16 at Wed Jan 10 17:01:21 2024.

 ----------------------------------------------------------------------
 #P Geom=AllCheck Guess=TCheck SCRF=Check GenChk UB3LYP/6-311++G(d,p) F
 req
 ----------------------------------------------------------------------

 Structure from the checkpoint file:  "105-rad.chk"
 -------
 Radical
 -------
 Charge = -1 Multiplicity = 2

                          Input orientation:
 ---------------------------------------------------------------------
 Center     Atomic      Atomic             Coordinates (Angstroms)
 Number     Number       Type             X           Y           Z
 ---------------------------------------------------------------------
      1          6           0       -0.998809   -1.623898    3.613127
      2          6           0        0.302512   -1.955759    3.114099
      3          6           0        0.846552   -1.457071    1.948258
      4          6           0        0.047032   -0.521940    1.146831
      5          6           0       -1.273950   -0.195479    1.633696
      6          6           0       -1.803247   -0.705093    2.795736
      7          8           0       -1.464047   -2.072851    4.708865
      8          8           0        0.469771   -0.010554    0.065948
      9          7           0       -3.070767   -0.483087    3.324679
     10          6           0       -3.905965    0.713030    3.169532
     11          6           0       -5.006957    0.607566    4.239855
     12          6           0       -4.580892    0.732351    1.781342
     13          6           0       -3.108868    2.017027    3.395602
     14          6           0        2.255783   -1.848265    1.470653
     15          6           0        2.948848   -2.835666    2.429249
     16          6           0        2.170728   -2.524132    0.079872
     17          6           0        3.146947   -0.585748    1.370180
     18          1           0        0.855894   -2.642221    3.744310
     19          1           0       -1.827864    0.482963    0.996877
     20          1           0       -3.099130   -0.914756    4.246329
     21          1           0       -4.572044    0.603531    5.244306
     22          1           0       -5.578337   -0.316435    4.111014
     23          1           0       -5.696119    1.454071    4.169974
     24          1           0       -5.145428   -0.191547    1.630218
     25          1           0       -3.850254    0.812648    0.976478
     26          1           0       -5.268595    1.581595    1.700905
     27          1           0       -2.687290    2.030130    4.404859
     28          1           0       -3.756210    2.893173    3.278323
     29          1           0       -2.282328    2.101623    2.688606
     30          1           0        3.075500   -2.411445    3.429726
     31          1           0        3.943830   -3.080610    2.041004
     32          1           0        2.388320   -3.770125    2.526679
     33          1           0        1.574467   -3.440955    0.137633
     34          1           0        3.174051   -2.793184   -0.275659
     35          1           0        1.705336   -1.849873   -0.638670
     36          1           0        3.250136   -0.113054    2.352748
     37          1           0        2.704407    0.133538    0.681502
     38          1           0        4.150644   -0.854289    1.015333
 ---------------------------------------------------------------------

 SCF Done:  E(UB3LYP) =  -751.608951456     A.U. after    2 cycles

 Alpha  occ. eigenvalues --  -18.93738 -18.92607 -14.18792 -10.11637 -10.07792
 Alpha  occ. eigenvalues --  -10.07760 -10.07022 -10.06862 -10.06470 -10.06053
 Alpha  occ. eigenvalues --  -10.05768 -10.04427 -10.03345 -10.03210 -10.03198
 Alpha  occ. eigenvalues --  -10.02130 -10.01336  -0.86103  -0.84859  -0.80398
 Alpha  occ. eigenvalues --   -0.70570  -0.69363  -0.65586  -0.60079  -0.59099
 Alpha  occ. eigenvalues --   -0.58630  -0.56870  -0.56109  -0.53839  -0.49183
 Alpha  occ. eigenvalues --   -0.44807  -0.43932  -0.40658  -0.37855  -0.36416
 Alpha  occ. eigenvalues --   -0.35185  -0.34230  -0.33616  -0.32469  -0.31923
 Alpha  occ. eigenvalues --   -0.30473  -0.30367  -0.29759  -0.29196  -0.28089
 Alpha  occ. eigenvalues --   -0.27834  -0.27288  -0.26939  -0.26271  -0.25546
 Alpha  occ. eigenvalues --   -0.25428  -0.24779  -0.24331  -0.23141  -0.22328
 Alpha  occ. eigenvalues --   -0.21823  -0.21002  -0.20705  -0.20222  -0.17532
 Alpha  occ. eigenvalues --   -0.13036  -0.10576  -0.08983  -0.07943  -0.01423
 Alpha virt. eigenvalues --    0.06975   0.08348   0.09329   0.09552   0.10358
 Alpha virt. eigenvalues --    0.10603   0.10772   0.11628   0.11911   0.12527
 Alpha virt. eigenvalues --    0.12700   0.12940   0.13455   0.13719   0.14480

  Beta  occ. eigenvalues --  -18.93032 -18.91992 -14.18733 -10.11636 -10.07683
  Beta  occ. eigenvalues --  -10.07552 -10.07021 -10.06754 -10.06485 -10.06050
  Beta  occ. eigenvalues --  -10.05765 -10.04428 -10.03197 -10.03184 -10.03106
  Beta  occ. eigenvalues --  -10.02069 -10.01330  -0.84998  -0.83782  -0.80133
  Beta  occ. eigenvalues --   -0.70298  -0.69248  -0.65217  -0.60025  -0.59091
  Beta  occ. eigenvalues --   -0.58476  -0.56825  -0.56071  -0.52907  -0.48964
  Beta  occ. eigenvalues --   -0.44578  -0.43700  -0.40473  -0.37784  -0.36177
  Beta  occ. eigenvalues --   -0.35151  -0.34072  -0.33513  -0.32372  -0.31850
  Beta  occ. eigenvalues --   -0.30416  -0.30257  -0.29649  -0.29063  -0.27717
  Beta  occ. eigenvalues --   -0.27578  -0.27281  -0.26677  -0.25542  -0.25256
  Beta  occ. eigenvalues --   -0.24933  -0.24638  -0.23752  -0.23108  -0.21566
  Beta  occ. eigenvalues --   -0.21236  -0.20520  -0.20111  -0.19599  -0.16375
  Beta  occ. eigenvalues --   -0.10277  -0.09928  -0.08411  -0.07114
  Beta virt. eigenvalues --    0.05673   0.06973   0.08347   0.09326   0.09575
  Beta virt. eigenvalues --    0.10361   0.10604   0.10785   0.11629   0.11917
  Beta virt. eigenvalues --    0.12530   0.12919   0.13001   0.13459   0.13753

 Mulliken charges and spin densities:
               1          2
     1  C   -1.105672   0.123630
     2  C   -0.444561   0.027968
     3  C    1.170444   0.214209
     4  C   -0.523689   0.048281
     5  C    0.169614  -0.013757
     6  C    0.019425   0.117061
     7  O   -0.414845   0.258128
     8  O   -0.369385   0.222954
     9  N    0.112744   0.026251
    10  C   -0.151263   0.000973
    11  C   -0.477029  -0.002283
    12  C   -0.418520  -0.002836
    13  C   -0.447068   0.002418
    14  C    0.692845  -0.035918
    15  C   -0.541916   0.000162
    16  C   -0.692447   0.014565
    17  C   -0.672762   0.015157
    18  H    0.166205  -0.007682
    19  H    0.206369  -0.005293
    20  H    0.308381  -0.004301
    21  H    0.143637   0.000261
    22  H    0.143520   0.001175
    23  H    0.117467  -0.000078
    24  H    0.143541   0.001137
    25  H    0.117707  -0.000625
    26  H    0.115789   0.000396
    27  H    0.148325   0.000471
    28  H    0.114224   0.000848
    29  H    0.152353  -0.001684
    30  H    0.119476  -0.000544
    31  H    0.144449  -0.000115
    32  H    0.119559  -0.000572
    33  H    0.114677   0.001053
    34  H    0.104386   0.001820
    35  H    0.197141  -0.003176
    36  H    0.111691   0.001069
    37  H    0.199365  -0.002999
    38  H    0.105822   0.001877
 Sum of Mulliken charges =  -1.00000   1.00000

 Dipole moment (field-independent basis, Debye):
    X=              1.3269    Y=              5.5364    Z=            -10.5660  Tot=             12.0022
 Quadrupole moment (field-independent basis, Debye-Ang):
   XX=           -126.2295   YY=           -126.0841   ZZ=           -160.3316
   XY=             -3.9176   XZ=             13.2516   YZ=             22.8153

  Exact polarizability: 252.846 -30.110 175.688 -42.311 -15.082 205.512
 Approx polarizability: 320.712  -7.618 260.665 -65.657 -53.591 349.487

                      1                      2                      3
                      A                      A                      A
 Frequencies --     29.4349                49.9674                71.6270
 Red. masses --      3.6258                 2.9880                 3.9192
 Frc consts  --      0.0019                 0.0044                 0.0118
 IR Inten    --      3.5996                 0.9847                 0.8871

                      4                      5                      6
                      A                      A                      A
 Frequencies --     89.0982               104.5840               166.7424
 Red. masses --      3.7271                 4.0263                 5.0433
 Frc consts  --      0.0174                 0.0259                 0.0826
 IR Inten    --      2.7703                 2.3637                 5.1510

                      7                      8                      9
                      A                      A                      A
 Frequencies --    189.2803               203.6907               223.6121
 Red. masses --      1.2141                 3.0033                 3.0780
 Frc consts  --      0.0256                 0.0734                 0.0907
 IR Inten    --      0.1560                 3.5780                 0.5014

                     10                     11                     12
                      A                      A                      A
 Frequencies --    231.2054               237.8409               242.0589
 Red. masses --      1.7390                 1.1816                 1.6418
 Frc consts  --      0.0548                 0.0394                 0.0567
 IR Inten    --      0.3736                 0.5299                 0.4935

                     13                     14                     15
                      A                      A                      A
 Frequencies --    270.8398               272.5259               278.3265
 Red. masses --      1.1872                 1.1011                 2.1206
 Frc consts  --      0.0513                 0.0482                 0.0968
 IR Inten    --      0.4116                 0.6707                 2.2671

                     16                     17                     18
                      A                      A                      A
 Frequencies --    297.0835               303.2657               326.5372
 Red. masses --      3.4029                 2.6338                 1.0416
 Frc consts  --      0.1770                 0.1427                 0.0654
 IR Inten    --      0.1415                 1.2252                 0.0419

                     19                     20                     21
                      A                      A                      A
 Frequencies --    334.2397               351.1717               382.5045
 Red. masses --      3.6438                 2.5516                 2.4262
 Frc consts  --      0.2398                 0.1854                 0.2091
 IR Inten    --     14.6046                 0.4917                 0.1887

                     22                     23                     24
                      A                      A                      A
 Frequencies --    388.4582               413.1099               435.8905
 Red. masses --      2.5704                 2.6439                 3.0149
 Frc consts  --      0.2285                 0.2658                 0.3375
 IR Inten    --      0.4049                 1.5443                 2.1097

                     25                     26                     27
                      A                      A                      A
 Frequencies --    447.4242               472.2773               474.6514
 Red. masses --      3.3761                 4.2907                 2.9060
 Frc consts  --      0.3982                 0.5639                 0.3857
 IR Inten    --      9.7738                 0.9861                 9.9837

                     28                     29                     30
                      A                      A                      A
 Frequencies --    493.3178               511.9560               563.2985
 Red. masses --      4.0949                 4.8757                 3.5379
 Frc consts  --      0.5871                 0.7529                 0.6614
 IR Inten    --      0.4532                 3.8944                 5.5405

                     31                     32                     33
                      A                      A                      A
 Frequencies --    638.0354               646.7082               681.2277
 Red. masses --      2.8617                 4.6758                 1.9836
 Frc consts  --      0.6864                 1.1522                 0.5424
 IR Inten    --     33.0770                 0.4600                40.0481

                     34                     35                     36
                      A                      A                      A
 Frequencies --    733.5823               749.3499               768.0176
 Red. masses --      6.1640                 2.5976                 2.9633
 Frc consts  --      1.9544                 0.8594                 1.0298
 IR Inten    --      5.6133                 0.5382                15.8834

                     37                     38                     39
                      A                      A                      A
 Frequencies --    775.0414               811.9014               835.3424
 Red. masses --      3.9761                 3.2451                 1.8620
 Frc consts  --      1.4072                 1.2603                 0.7655
 IR Inten    --     17.0202                 3.5279                15.5157

                     40                     41                     42
                      A                      A                      A
 Frequencies --    878.6349               886.6383               905.0709
 Red. masses --      1.5170                 2.7768                 1.7839
 Frc consts  --      0.6900                 1.2862                 0.8610
 IR Inten    --     23.5679                25.2392                 1.0425

                     43                     44                     45
                      A                      A                      A
 Frequencies --    922.8116               922.9748               931.6262
 Red. masses --      1.7883                 1.7007                 1.7516
 Frc consts  --      0.8973                 0.8536                 0.8957
 IR Inten    --      0.1855                 1.3518                 3.2793

                     46                     47                     48
                      A                      A                      A
 Frequencies --    956.5520               956.9013               960.1293
 Red. masses --      1.2603                 1.2044                 2.1116
 Frc consts  --      0.6794                 0.6498                 1.1469
 IR Inten    --      0.4548                 0.2871                 2.3870

                     49                     50                     51
                      A                      A                      A
 Frequencies --   1036.1749              1043.9942              1048.1808
 Red. masses --      1.6376                 1.3947                 1.3776
 Frc consts  --      1.0359                 0.8956                 0.8917
 IR Inten    --     25.4508                 2.8937                 0.0901

                     52                     53                     54
                      A                      A                      A
 Frequencies --   1052.4313              1066.8335              1197.1793
 Red. masses --      1.4736                 2.0245                 3.3963
 Frc consts  --      0.9617                 1.3576                 2.8680
 IR Inten    --      2.6460                17.8077                34.5489

                     55                     56                     57
                      A                      A                      A
 Frequencies --   1208.0629              1213.1346              1224.3741
 Red. masses --      3.2225                 2.6568                 2.5968
 Frc consts  --      2.7709                 2.3037                 2.2936
 IR Inten    --     32.4875                 4.8343                23.3377

                     58                     59                     60
                      A                      A                      A
 Frequencies --   1228.5900              1235.0920              1249.7085
 Red. masses --      2.9271                 2.5572                 2.1572
 Frc consts  --      2.6032                 2.2983                 1.9850
 IR Inten    --      4.3163                 9.6050               197.6956

                     61                     62                     63
                      A                      A                      A
 Frequencies --   1266.1047              1272.6136              1316.0576
 Red. masses --      2.7629                 1.9584                 2.1746
 Frc consts  --      2.6095                 1.8687                 2.2191
 IR Inten    --     51.4942                19.2555                33.1278

                     64                     65                     66
                      A                      A                      A
 Frequencies --   1371.6145              1378.5270              1387.8862
 Red. masses --      1.2112                 1.2502                 1.2477
 Frc consts  --      1.3426                 1.3998                 1.4160
 IR Inten    --     12.0327                16.6532                 9.7737

                     67                     68                     69
                      A                      A                      A
 Frequencies --   1389.9075              1402.7224              1407.4732
 Red. masses --      1.2375                 4.0156                 1.2532
 Frc consts  --      1.4085                 4.6553                 1.4626
 IR Inten    --     15.5401                18.8051                43.6569

                     70                     71                     72
                      A                      A                      A
 Frequencies --   1418.4025              1469.6290              1469.8579
 Red. masses --      1.2656                 4.2255                 1.0583
 Frc consts  --      1.5001                 5.3771                 1.3471
 IR Inten    --     26.8885                62.0289                 1.0662

                     73                     74                     75
                      A                      A                      A
 Frequencies --   1471.9158              1486.1490              1488.3137
 Red. masses --      1.0757                 1.3512                 1.0467
 Frc consts  --      1.3731                 1.7583                 1.3660
 IR Inten    --      4.4891               170.4832                 0.9044

                     76                     77                     78
                      A                      A                      A
 Frequencies --   1490.1500              1493.3767              1494.4705
 Red. masses --      1.0887                 1.1111                 1.0466
 Frc consts  --      1.4243                 1.4600                 1.3772
 IR Inten    --      2.1170                11.1654                 1.0525

                     79                     80                     81
                      A                      A                      A
 Frequencies --   1496.8340              1500.2651              1510.7210
 Red. masses --      1.0640                 1.0686                 1.0518
 Frc consts  --      1.4045                 1.4171                 1.4143
 IR Inten    --     12.5063                 5.7060                 3.4310

                     82                     83                     84
                      A                      A                      A
 Frequencies --   1515.7663              1520.0550              1531.6725
 Red. masses --      1.9872                 1.1642                 1.2194
 Frc consts  --      2.6900                 1.5849                 1.6855
 IR Inten    --    178.6574                67.1113                68.6514

                     85                     86                     87
                      A                      A                      A
 Frequencies --   1534.1765              1567.1741              1639.3783
 Red. masses --      2.3626                 2.2969                 6.6421
 Frc consts  --      3.2763                 3.3237                10.5176
 IR Inten    --    261.3342                85.8669                47.3470

                     88                     89                     90
                      A                      A                      A
 Frequencies --   2987.4609              2993.0171              3009.3159
 Red. masses --      1.0438                 1.0428                 1.0364
 Frc consts  --      5.4886                 5.5038                 5.5297
 IR Inten    --     48.5998               126.4986               113.8005

                     91                     92                     93
                      A                      A                      A
 Frequencies --   3011.5400              3013.1952              3022.3878
 Red. masses --      1.0396                 1.0362                 1.0396
 Frc consts  --      5.5551                 5.5429                 5.5953
 IR Inten    --     32.1657                26.4169                86.2745

                     94                     95                     96
                      A                      A                      A
 Frequencies --   3049.0511              3051.6022              3064.6282
 Red. masses --      1.0952                 1.0954                 1.0988
 Frc consts  --      5.9992                 6.0100                 6.0803
 IR Inten    --     36.1174                26.5340                97.4828

                     97                     98                     99
                      A                      A                      A
 Frequencies --   3072.8193              3078.4161              3079.2186
 Red. masses --      1.0996                 1.0985                 1.1014
 Frc consts  --      6.1174                 6.1333                 6.1531
 IR Inten    --      7.5084                 7.6677                44.7884

                    100                    101                    102
                      A                      A                      A
 Frequencies --   3081.2960              3087.4982              3110.9296
 Red. masses --      1.1011                 1.1008                 1.0985
 Frc consts  --      6.1595                 6.1823                 6.2636
 IR Inten    --     58.7174                84.9465                 9.0272

                    103                    104                    105
                      A                      A                      A
 Frequencies --   3118.9683              3119.5823              3121.5194
 Red. masses --      1.0972                 1.0976                 1.0965
 Frc consts  --      6.2886                 6.2933                 6.2949
 IR Inten    --      0.0490                25.0842                11.5875

                    106                    107                    108
                      A                      A                      A
 Frequencies --   3174.2816              3182.4342              3470.5832
 Red. masses --      1.0871                 1.0878                 1.0746
 Frc consts  --      6.4539                 6.4912                 7.6258
 IR Inten    --     23.7965                21.4433                51.0907

 - Thermochemistry -
 -------------------
 Temperature   298.150 Kelvin.  Pressure   1.00000 Atm.
 Atom     1 has atomic number  6 and mass  12.00000

 Molecular mass:   235.15723 amu.
 Principal axes and moments of inertia in atomic units:
                           1         2         3
     Eigenvalues --  1821.578137338.793558341.71902
           X            0.89472   0.03274   0.44543
           Y           -0.34261  -0.58949   0.73152
           Z           -0.28652   0.80711   0.51621
 This molecule is an asymmetric top.
 Rotational symmetry number  1.
 Warning -- assumption of classical behavior for rotation
           may cause significant error
 Rotational temperatures (Kelvin)      0.04755     0.01180     0.01038
 Rotational constants (GHZ):           0.99076     0.24592     0.21635
 Zero-point vibrational energy     848219.8 (Joules/Mol)
                                  202.72940 (Kcal/Mol)
 Warning -- explicit consideration of  30 degrees of freedom as
           vibrations may cause significant error
 Vibrational temperatures:     42.35    71.89   103.06   128.19   150.47
          (Kelvin)            239.91   272.33   293.07   321.73   332.65
                              342.20   348.27   389.68   392.10   400.45
                              427.44   436.33   469.81   480.90   505.26
                              550.34   558.90   594.37   627.15   643.74
                              679.50   682.92   709.77   736.59   810.46
                              917.99   930.47   980.13  1055.46  1078.15
                             1105.01  1115.11  1168.15  1201.87  1264.16
                             1275.67  1302.20  1327.72  1327.95  1340.40
                             1376.26  1376.77  1381.41  1490.82  1502.07
                             1508.10  1514.21  1534.94  1722.47  1738.13
                             1745.43  1761.60  1767.67  1777.02  1798.05
                             1821.64  1831.01  1893.51  1973.45  1983.39
                             1996.86  1999.77  2018.20  2025.04  2040.76
                             2114.47  2114.80  2117.76  2138.24  2141.35
                             2143.99  2148.64  2150.21  2153.61  2158.55
                             2173.59  2180.85  2187.02  2203.74  2207.34
                             2254.81  2358.70  4298.29  4306.28  4329.73
                             4332.93  4335.32  4348.54  4386.90  4390.57
                             4409.32  4421.10  4429.15  4430.31  4433.30
                             4442.22  4475.93  4487.50  4488.38  4491.17
                             4567.08  4578.81  4993.40

 Zero-point correction=                           0.323070 (Hartree/Particle)
 Thermal correction to Energy=                    0.341389
 Thermal correction to Enthalpy=                  0.342333
 Thermal correction to Gibbs Free Energy=         0.277462
 Sum of electronic and zero-point Energies=           -751.285882
 Sum of electronic and thermal Energies=              -751.267563
 Sum of electronic and thermal Enthalpies=            -751.266619
 Sum of electronic and thermal Free Energies=         -751.331490

                     E (Thermal)             CV                S
                      KCal/Mol        Cal/Mol-Kelvin    Cal/Mol-Kelvin
 Total                  214.225             71.786            136.533
 Electronic               0.000              0.000              1.377
 Translational            0.889              2.981             42.267
 Rotational               0.889              2.981             33.078
 Vibrational            212.447             65.824             59.811
 Vibration     1          0.593              1.984              5.867
 Vibration     2          0.595              1.978              4.819
 Vibration     3          0.598              1.968              4.108
 Vibration     4          0.602              1.957              3.680
 Vibration     5          0.605              1.946              3.367
 Vibration     6          0.624              1.883              2.472
 Vibration     7          0.633              1.855              2.235
 Vibration     8          0.639              1.835              2.100
 Vibration     9          0.649              1.805              1.930
 Vibration    10          0.653              1.793              1.870
 Vibration    11          0.656              1.783              1.819
 Vibration    12          0.658              1.776              1.788
 Vibration    13          0.675              1.727              1.591
 Vibration    14          0.676              1.724              1.580
 Vibration    15          0.679              1.714              1.544
 Vibration    16          0.691              1.679              1.433
 Vibration    17          0.695              1.668              1.399
 Vibration    18          0.710              1.622              1.277
 Vibration    19          0.716              1.607              1.240
 Vibration    20          0.728              1.573              1.161
 Vibration    21          0.752              1.507              1.029
 Vibration    22          0.757              1.495              1.006
 Vibration    23          0.777              1.442              0.916
 Vibration    24          0.796              1.392              0.840
 Vibration    25          0.807              1.367              0.804
 Vibration    26          0.829              1.312              0.731
 Vibration    27          0.831              1.306              0.725
 Vibration    28          0.849              1.265              0.675
 Vibration    29          0.867              1.224              0.629
 Vibration    30          0.919              1.111              0.517

 Optimization completed.
    -- Stationary point found.
 Normal termination of Gaussian 16 at Wed Jan 10 18:51:15 2024.
