 Gaussian 16, Revision A.03,
 Gaussian 16:  ES64L-G16RevA.03 25-Dec-2016

 ----------------------------------------------------------------
 #P UB3LYP/6-311++G(d,p) SCRF=(PCM,Solvent=n,n-DiMethylFormamide)
 ----------------------------------------------------------------

 ------------------
 Radical PCM in DMF
 ------------------
 Symbolic Z-matrix:
 Charge = -1 Multiplicity = 2

                         Standard orientation:
 ---------------------------------------------------------------------
 Center     Atomic      Atomic             Coordinates (Angstroms)
 Number     Number       Type             X           Y           Z
 ---------------------------------------------------------------------
      1          6           0        0.221633    1.536514   -0.123767
      2          6           0       -1.197378    1.356436   -0.042670
      3          6           0       -1.833751    0.132185   -0.033021
      4          6           0       -1.014164   -1.083306   -0.115774
      5          6           0        0.417166   -0.910427   -0.215846
      6          6           0        1.035471    0.317469   -0.228878
      7          8           0        0.785416    2.676742   -0.097798
      8          8           0       -1.513958   -2.248924   -0.107313
      9          7           0        2.394132    0.586737   -0.360059
     10          6           0        3.516590   -0.257199    0.064417
     11          6           0        4.762223    0.646646    0.045475
     12          6           0        3.741252   -1.411760   -0.935327
     13          6           0        3.322458   -0.815144    1.491964
     14          6           0       -3.364101    0.006721    0.063728
     15          6           0       -4.063041    1.377727    0.141372
     16          6           0       -3.911049   -0.730124   -1.183753
     17          6           0       -3.747674   -0.789850    1.335170
     18          1           0       -1.757377    2.281909    0.024631
     19          1           0        0.972998   -1.836599   -0.292656
     20          1           0        2.524724    1.586109   -0.215896
     21          1           0        4.650956    1.474957    0.752304
     22          1           0        4.914371    1.067293   -0.952904
     23          1           0        5.655444    0.079420    0.322618
     24          1           0        3.881118   -1.009098   -1.942018
     25          1           0        2.891941   -2.094364   -0.963762
     26          1           0        4.631191   -1.989119   -0.660945
     27          1           0        3.230452    0.006748    2.207875
     28          1           0        4.175458   -1.437131    1.785156
     29          1           0        2.416061   -1.418486    1.559719
     30          1           0       -3.749833    1.945523    1.022546
     31          1           0       -5.146792    1.229478    0.206389
     32          1           0       -3.861359    1.988432   -0.743648
     33          1           0       -3.682257   -0.162776   -2.092157
     34          1           0       -5.001601   -0.837549   -1.115888
     35          1           0       -3.458593   -1.718062   -1.266097
     36          1           0       -3.401497   -0.265439    2.232211
     37          1           0       -3.291610   -1.779259    1.311361
     38          1           0       -4.838191   -0.897009    1.403927
 ---------------------------------------------------------------------

 SCF Done:  E(UB3LYP) =  -751.686902217     A.U. after   20 cycles

 The electronic state is 2-A.
 Alpha  occ. eigenvalues --  -19.07315 -19.06081 -14.30698 -10.21429 -10.21085
 Alpha  occ. eigenvalues --  -10.21022 -10.19680 -10.17765 -10.16168 -10.15746
 Alpha  occ. eigenvalues --  -10.15339 -10.15259 -10.14921 -10.14841 -10.14294
 Alpha  occ. eigenvalues --  -10.14288 -10.13968  -0.99618  -0.98366  -0.91997
 Alpha  occ. eigenvalues --   -0.82474  -0.80124  -0.77297  -0.71542  -0.68651
 Alpha  occ. eigenvalues --   -0.68537  -0.67733  -0.67223  -0.66512  -0.60723
 Alpha  occ. eigenvalues --   -0.56993  -0.55181  -0.52349  -0.48969  -0.47968
 Alpha  occ. eigenvalues --   -0.45875  -0.44980  -0.44627  -0.43165  -0.42898
 Alpha  occ. eigenvalues --   -0.41830  -0.41472  -0.40967  -0.40227  -0.39522
 Alpha  occ. eigenvalues --   -0.39323  -0.38193  -0.37917  -0.37451  -0.36641
 Alpha  occ. eigenvalues --   -0.36480  -0.36096  -0.34840  -0.34275  -0.34228
 Alpha  occ. eigenvalues --   -0.32867  -0.32498  -0.32246  -0.31553  -0.29714
 Alpha  occ. eigenvalues --   -0.26098  -0.24160  -0.22375  -0.20405  -0.14742
 Alpha virt. eigenvalues --   -0.00566   0.00140   0.00625   0.01293   0.01879
 Alpha virt. eigenvalues --    0.02027   0.02357   0.02668   0.03557   0.03674
 Alpha virt. eigenvalues --    0.03863   0.03936   0.04127   0.04821   0.05095

  Beta  occ. eigenvalues --  -19.06662 -19.05514 -14.30607 -10.21429 -10.20891
  Beta  occ. eigenvalues --  -10.20833 -10.19572 -10.17780 -10.15909 -10.15745
  Beta  occ. eigenvalues --  -10.15336 -10.15254 -10.14890 -10.14842 -10.14279
  Beta  occ. eigenvalues --  -10.14273 -10.13985  -0.98511  -0.97358  -0.91738
  Beta  occ. eigenvalues --   -0.82098  -0.79963  -0.77062  -0.71373  -0.68623
  Beta  occ. eigenvalues --   -0.68524  -0.67617  -0.67178  -0.65592  -0.60474
  Beta  occ. eigenvalues --   -0.56685  -0.55029  -0.52153  -0.48705  -0.47816
  Beta  occ. eigenvalues --   -0.45750  -0.44815  -0.44541  -0.43065  -0.42755
  Beta  occ. eigenvalues --   -0.41684  -0.41301  -0.40173  -0.40006  -0.39062
  Beta  occ. eigenvalues --   -0.38914  -0.37918  -0.37352  -0.37042  -0.36531
  Beta  occ. eigenvalues --   -0.36452  -0.35657  -0.34111  -0.33993  -0.33213
  Beta  occ. eigenvalues --   -0.32808  -0.32336  -0.32017  -0.31486  -0.28608
  Beta  occ. eigenvalues --   -0.23667  -0.23566  -0.21858  -0.19597
  Beta virt. eigenvalues --   -0.07708  -0.00551   0.00143   0.01297   0.01315
  Beta virt. eigenvalues --    0.01989   0.02252   0.02361   0.02972   0.03572
  Beta virt. eigenvalues --    0.03694   0.03909   0.04084   0.04839   0.05103

 Mulliken charges and spin densities:
               1          2
     1  C   -0.930771   0.157291
     2  C   -0.511494   0.000507
     3  C    1.066474   0.229398
     4  C   -0.388925   0.065881
     5  C    0.077184  -0.036660
     6  C   -0.064652   0.121420
     7  O   -0.507180   0.236782
     8  O   -0.462563   0.203544
     9  N    0.051389   0.040345
    10  C   -0.089138  -0.001267
    11  C   -0.490402  -0.000570
    12  C   -0.455130  -0.000632
    13  C   -0.464598   0.002873
    14  C    0.622709  -0.030609
    15  C   -0.510155  -0.000769
    16  C   -0.681289   0.013300
    17  C   -0.664469   0.014076
    18  H    0.187468  -0.006116
    19  H    0.224730  -0.004264
    20  H    0.325189  -0.003966
    21  H    0.151909   0.000001
    22  H    0.154448   0.000659
    23  H    0.150060  -0.000076
    24  H    0.157639   0.000609
    25  H    0.112412  -0.000521
    26  H    0.150753   0.000181
    27  H    0.158683   0.000433
    28  H    0.152102   0.000599
    29  H    0.145007  -0.001397
    30  H    0.130057  -0.000224
    31  H    0.171164  -0.000110
    32  H    0.130032  -0.000220
    33  H    0.131683   0.000739
    34  H    0.141541   0.001438
    35  H    0.176487  -0.002524
    36  H    0.130167   0.000736
    37  H    0.179334  -0.002355
    38  H    0.142149   0.001468
 Sum of Mulliken charges =  -1.00000   1.00000

 Dipole moment (field-independent basis, Debye):
    X=              3.6326    Y=             -0.6898    Z=              1.2667  Tot=              3.9084
 Quadrupole moment (field-independent basis, Debye-Ang):
   XX=           -111.2277   YY=           -143.1639   ZZ=           -113.2423
   XY=            -14.6033   XZ=              1.6479   YZ=              0.3802

 Normal termination of Gaussian 16 at Wed Jan 24 22:58:28 2024.
