 Gaussian 16, Revision A.03,

 -------------------------
 #P HF/6-311++G(d,p) nosym
 -------------------------

 Anion example when even SCF=YQC doesn't converge. Run HF calculation f
 irst here
 ----------------------------------------------------------------------
 Symbolic Z-matrix:
 Charge = -2 Multiplicity = 1

 SCF Done:  E(RHF) =  -8328.87506838     A.U. after   24 cycles
 Normal termination of Gaussian 16 at Thu Dec 21 07:52:24 2023.
 Gaussian 16:  ES64L-G16RevA.03 25-Dec-2016

 ------------------------------------------------------------------
 #P UB3LYP/6-311++G(d,p) nosym guess=read geom=check nosym opt freq
 ------------------------------------------------------------------

 -------------------------------------------
 Then here read in HF orbitals and run B3LYP
 -------------------------------------------
 Structure from the checkpoint file:  "027-an.chk"
 Charge = -2 Multiplicity = 1

 SCF Done:  E(UB3LYP) =  -8338.16198127     A.U. after   39 cycles
 SCF Done:  E(UB3LYP) =  -8338.16571120     A.U. after   31 cycles
 SCF Done:  E(UB3LYP) =  -8338.16599796     A.U. after   25 cycles
 SCF Done:  E(UB3LYP) =  -8338.16599373     A.U. after   23 cycles
 SCF Done:  E(UB3LYP) =  -8338.16602956     A.U. after   21 cycles
 SCF Done:  E(UB3LYP) =  -8338.16603203     A.U. after   20 cycles
 SCF Done:  E(UB3LYP) =  -8338.16603238     A.U. after   21 cycles
 SCF Done:  E(UB3LYP) =  -8338.16603245     A.U. after   19 cycles
 SCF Done:  E(UB3LYP) =  -8338.16603248     A.U. after   19 cycles
 Optimization completed.
    -- Stationary point found.
 Normal termination of Gaussian 16 at Thu Dec 21 08:59:14 2023.

 ----------------------------------------------------------------------
 #P Geom=AllCheck Guess=TCheck SCRF=Check GenChk UB3LYP/6-311++G(d,p) F
 req
 ----------------------------------------------------------------------

 Structure from the checkpoint file:  "027-an.chk"
 -------------------------------------------
 Then here read in HF orbitals and run B3LYP
 -------------------------------------------
 Charge = -2 Multiplicity = 1

                         Standard orientation:
 ---------------------------------------------------------------------
 Center     Atomic      Atomic             Coordinates (Angstroms)
 Number     Number       Type             X           Y           Z
 ---------------------------------------------------------------------
      1          6           0       -0.228047   -1.124383   -0.613855
      2          6           0       -1.597618   -0.968124   -0.214670
      3          6           0       -2.167797    0.258810    0.131073
      4          6           0       -1.458222    1.516683    0.125751
      5          6           0       -0.090166    1.317312   -0.290611
      6          6           0        0.518002    0.124245   -0.649990
      7          8           0        0.314793   -2.239025   -0.920986
      8          8           0       -1.968579    2.632130    0.441419
      9         35           0       -2.623726   -2.616146   -0.181547
     10         35           0       -4.023145    0.400764    0.677977
     11         35           0        0.958383    2.984745   -0.317896
     12          6           0        1.954410   -0.000264   -1.094202
     13          6           0        2.922836   -0.367723    0.047669
     14          6           0        4.367565   -0.554790   -0.431252
     15          6           0        5.358210   -0.917511    0.683287
     16          6           0        6.801469   -1.102099    0.197003
     17          6           0        7.791569   -1.457843    1.311573
     18          1           0        2.289709    0.929696   -1.562710
     19          1           0        1.992062   -0.804961   -1.836244
     20          1           0        2.563761   -1.292694    0.510736
     21          1           0        2.889335    0.416936    0.813298
     22          1           0        4.708130    0.366760   -0.925028
     23          1           0        4.390076   -1.339163   -1.200199
     24          1           0        5.023112   -1.839249    1.176943
     25          1           0        5.335889   -0.136157    1.454819
     26          1           0        7.133191   -0.181969   -0.301667
     27          1           0        6.824031   -1.885502   -0.571563
     28          1           0        7.821692   -0.676400    2.079425
     29          1           0        8.812335   -1.582061    0.931532
     30          1           0        7.510749   -2.393669    1.807860
 ---------------------------------------------------------------------

 SCF Done:  E(UB3LYP) =  -8338.16603248     A.U. after    4 cycles

 The electronic state is 1-A.
 Alpha  occ. eigenvalues -- -482.59461-482.59392-482.59275 -62.24734 -62.24665
 Alpha  occ. eigenvalues --  -62.24552 -56.06749 -56.06678 -56.06550 -56.06409
 Alpha  occ. eigenvalues --  -56.06369 -56.06341 -56.06302 -56.06231 -56.06200
 Alpha  occ. eigenvalues --  -18.80799 -18.80719 -10.01317 -10.01285  -9.99846
 Alpha  occ. eigenvalues --   -9.98326  -9.98176  -9.97992  -9.97827  -9.97607
 Alpha  occ. eigenvalues --   -9.97599  -9.96007  -9.94732  -9.93965  -8.45691
 Alpha  occ. eigenvalues --   -8.45622  -8.45505  -6.28764  -6.28689  -6.28522
 Alpha  occ. eigenvalues --   -6.27624  -6.27558  -6.27504  -6.27454  -6.27439
 Alpha  occ. eigenvalues --   -6.27362  -2.39871  -2.39797  -2.39637  -2.39566
 Alpha  occ. eigenvalues --   -2.39495  -2.39474  -2.39403  -2.39347  -2.39278
 Alpha  occ. eigenvalues --   -2.38565  -2.38564  -2.38502  -2.38501  -2.38428
 Alpha  occ. eigenvalues --   -2.38427  -0.73512  -0.72958  -0.64041  -0.61290
 Alpha  occ. eigenvalues --   -0.59646  -0.57977  -0.55199  -0.54067  -0.52486
 Alpha  occ. eigenvalues --   -0.48452  -0.44602  -0.43446  -0.41438  -0.38619
 Alpha  occ. eigenvalues --   -0.32566  -0.31959  -0.31559  -0.27500  -0.27445
 Alpha  occ. eigenvalues --   -0.25636  -0.24654  -0.21877  -0.21331  -0.20944
 Alpha  occ. eigenvalues --   -0.19148  -0.18370  -0.17793  -0.17068  -0.16327
 Alpha  occ. eigenvalues --   -0.15860  -0.14884  -0.14335  -0.13891  -0.13472
 Alpha  occ. eigenvalues --   -0.12111  -0.11624  -0.11051  -0.09362  -0.06987
 Alpha  occ. eigenvalues --   -0.06902  -0.06266  -0.05535  -0.04148  -0.01263
 Alpha  occ. eigenvalues --    0.00296   0.01281   0.01671   0.09594
 Alpha virt. eigenvalues --    0.10587   0.13653   0.14338   0.14721   0.16770
 Alpha virt. eigenvalues --    0.17222   0.17617   0.17770   0.18892   0.19286
 Alpha virt. eigenvalues --    0.19693   0.20354   0.20925   0.21164   0.21534

  Beta  occ. eigenvalues -- -482.59461-482.59392-482.59275 -62.24734 -62.24665
  Beta  occ. eigenvalues --  -62.24552 -56.06749 -56.06678 -56.06550 -56.06409
  Beta  occ. eigenvalues --  -56.06369 -56.06341 -56.06302 -56.06231 -56.06200
  Beta  occ. eigenvalues --  -18.80799 -18.80719 -10.01317 -10.01285  -9.99846
  Beta  occ. eigenvalues --   -9.98326  -9.98176  -9.97992  -9.97827  -9.97607
  Beta  occ. eigenvalues --   -9.97599  -9.96007  -9.94732  -9.93965  -8.45691
  Beta  occ. eigenvalues --   -8.45622  -8.45505  -6.28764  -6.28689  -6.28522
  Beta  occ. eigenvalues --   -6.27624  -6.27558  -6.27504  -6.27454  -6.27439
  Beta  occ. eigenvalues --   -6.27362  -2.39871  -2.39797  -2.39637  -2.39566
  Beta  occ. eigenvalues --   -2.39495  -2.39474  -2.39403  -2.39347  -2.39278
  Beta  occ. eigenvalues --   -2.38565  -2.38564  -2.38502  -2.38501  -2.38428
  Beta  occ. eigenvalues --   -2.38427  -0.73512  -0.72958  -0.64041  -0.61290
  Beta  occ. eigenvalues --   -0.59646  -0.57977  -0.55199  -0.54067  -0.52486
  Beta  occ. eigenvalues --   -0.48452  -0.44602  -0.43446  -0.41438  -0.38619
  Beta  occ. eigenvalues --   -0.32566  -0.31959  -0.31559  -0.27500  -0.27445
  Beta  occ. eigenvalues --   -0.25636  -0.24654  -0.21877  -0.21331  -0.20944
  Beta  occ. eigenvalues --   -0.19148  -0.18370  -0.17793  -0.17068  -0.16327
  Beta  occ. eigenvalues --   -0.15860  -0.14884  -0.14335  -0.13891  -0.13472
  Beta  occ. eigenvalues --   -0.12111  -0.11624  -0.11051  -0.09362  -0.06987
  Beta  occ. eigenvalues --   -0.06902  -0.06266  -0.05535  -0.04148  -0.01263
  Beta  occ. eigenvalues --    0.00296   0.01281   0.01671   0.09594
  Beta virt. eigenvalues --    0.10587   0.13653   0.14338   0.14721   0.16770
  Beta virt. eigenvalues --    0.17222   0.17617   0.17770   0.18892   0.19286
  Beta virt. eigenvalues --    0.19693   0.20354   0.20925   0.21164   0.21534

 Mulliken charges and spin densities:
               1          2
     1  C   -1.221596  -0.000000
     2  C   -0.223050   0.000000
     3  C    0.657709  -0.000000
     4  C   -1.057477  -0.000000
     5  C    0.668272   0.000000
     6  C    2.219767  -0.000000
     7  O   -0.419787  -0.000000
     8  O   -0.374020  -0.000000
     9  Br  -0.292181  -0.000000
    10  Br  -0.286042   0.000000
    11  Br  -0.267602   0.000000
    12  C   -1.048951   0.000000
    13  C   -0.599618  -0.000000
    14  C   -0.119850   0.000000
    15  C    0.213763  -0.000000
    16  C   -1.021471   0.000000
    17  C    0.584874  -0.000000
    18  H    0.155602   0.000000
    19  H    0.197965  -0.000000
    20  H    0.202370   0.000000
    21  H    0.077708  -0.000000
    22  H    0.085830  -0.000000
    23  H    0.091792  -0.000000
    24  H    0.133163  -0.000000
    25  H    0.126536   0.000000
    26  H    0.091159   0.000000
    27  H    0.104187   0.000000
    28  H   -0.029395   0.000000
    29  H   -0.635274  -0.000000
    30  H   -0.014380  -0.000000
 Sum of Mulliken charges =  -2.00000  -0.00000

 Dipole moment (field-independent basis, Debye):
    X=             -2.7825    Y=              0.1181    Z=             -0.4062  Tot=              2.8145
 Quadrupole moment (field-independent basis, Debye-Ang):
   XX=           -314.4135   YY=           -210.2645   ZZ=           -161.0761
   XY=             26.1908   XZ=             -8.1881   YZ=             -5.6247

  Exact polarizability:2855.639-413.471 504.782 276.280 -49.897 442.773
 Approx polarizability:****************1083.6472293.410-376.807 740.206

                      1                      2                      3
                      A                      A                      A
 Frequencies --     15.4651                24.6805                46.2359
 Red. masses --      6.4138                 9.8179                 2.4936
 Frc consts  --      0.0009                 0.0035                 0.0031
 IR Inten    --      0.2764                 0.1813                 0.5017

                      4                      5                      6
                      A                      A                      A
 Frequencies --     49.0222                68.3181                72.0499
 Red. masses --      2.8991                 3.2513                13.3289
 Frc consts  --      0.0041                 0.0089                 0.0408
 IR Inten    --      0.4173                 3.9943                 6.7187

                      7                      8                      9
                      A                      A                      A
 Frequencies --     95.0996               122.7831               127.7198
 Red. masses --      5.3650                 6.0744                46.4678
 Frc consts  --      0.0286                 0.0540                 0.4466
 IR Inten    --      4.1973                 6.0854                 1.5172

                     10                     11                     12
                      A                      A                      A
 Frequencies --    129.7610               146.4883               148.5616
 Red. masses --      1.7682                 2.5077                 8.1786
 Frc consts  --      0.0175                 0.0317                 0.1064
 IR Inten    --      0.5158                 0.4793                 0.6401

                     13                     14                     15
                      A                      A                      A
 Frequencies --    179.8459               192.5374               224.9424
 Red. masses --     10.9492                36.4754                 4.8495
 Frc consts  --      0.2087                 0.7967                 0.1446
 IR Inten    --      3.6370                 0.9727                 2.2902

                     16                     17                     18
                      A                      A                      A
 Frequencies --    235.2884               255.8887               275.8754
 Red. masses --      6.0024                 1.1178                 8.6744
 Frc consts  --      0.1958                 0.0431                 0.3890
 IR Inten    --      0.4123                13.0763                 1.1233

                     19                     20                     21
                      A                      A                      A
 Frequencies --    281.8525               295.5991               314.2859
 Red. masses --     12.4011                12.5294                 5.9308
 Frc consts  --      0.5804                 0.6450                 0.3452
 IR Inten    --      2.1828                 0.6286                 4.1777

                     22                     23                     24
                      A                      A                      A
 Frequencies --    357.8181               408.6609               421.8785
 Red. masses --      3.1374                 4.5183                 3.4695
 Frc consts  --      0.2367                 0.4446                 0.3638
 IR Inten    --      2.7412                40.2262                21.4722

                     25                     26                     27
                      A                      A                      A
 Frequencies --    468.7409               504.1913               554.5749
 Red. masses --      9.4446                 6.2922                 8.5351
 Frc consts  --      1.2226                 0.9424                 1.5466
 IR Inten    --   1329.9320               132.7985                14.6090

                     28                     29                     30
                      A                      A                      A
 Frequencies --    655.7081               677.2642               703.5112
 Red. masses --      7.9432                 3.6799                11.8487
 Frc consts  --      2.0122                 0.9945                 3.4551
 IR Inten    --     23.3122                 0.9132                 2.5679

                     31                     32                     33
                      A                      A                      A
 Frequencies --    728.5467               738.9427               742.1758
 Red. masses --      1.0745                10.6143                 1.1900
 Frc consts  --      0.3360                 3.4148                 0.3862
 IR Inten    --      1.1959                 2.7012                 1.4167

                     34                     35                     36
                      A                      A                      A
 Frequencies --    790.3018               799.5921               855.9397
 Red. masses --      1.9972                 2.6502                 5.4059
 Frc consts  --      0.7349                 0.9983                 2.3335
 IR Inten    --     47.7142                70.4553               551.4194

                     37                     38                     39
                      A                      A                      A
 Frequencies --    885.5203               890.9536               986.8666
 Red. masses --      1.9520                 1.4254                 1.7442
 Frc consts  --      0.9018                 0.6667                 1.0008
 IR Inten    --     44.9077               140.2164               132.7077

                     40                     41                     42
                      A                      A                      A
 Frequencies --    992.4336              1017.9589              1030.4903
 Red. masses --      2.8092                 3.1778                 3.4430
 Frc consts  --      1.6302                 1.9402                 2.1542
 IR Inten    --     14.7848                 0.9208               359.4145

                     43                     44                     45
                      A                      A                      A
 Frequencies --   1043.3279              1058.8160              1093.1508
 Red. masses --      2.7580                 2.3062                 3.0020
 Frc consts  --      1.7688                 1.5233                 2.1136
 IR Inten    --     50.0029                 9.1138               276.7989

                     46                     47                     48
                      A                      A                      A
 Frequencies --   1098.2088              1126.0726              1186.6992
 Red. masses --      3.4166                 2.4898                 3.4411
 Frc consts  --      2.4278                 1.8602                 2.8551
 IR Inten    --     33.2632                11.5973                15.9007

                     49                     50                     51
                      A                      A                      A
 Frequencies --   1221.9909              1244.4039              1276.7250
 Red. masses --      1.6471                 1.2791                 1.4384
 Frc consts  --      1.4491                 1.1670                 1.3815
 IR Inten    --     15.3100                12.6341                 5.6551

                     52                     53                     54
                      A                      A                      A
 Frequencies --   1306.6817              1312.2719              1321.9644
 Red. masses --      1.3502                 1.3909                 1.0703
 Frc consts  --      1.3583                 1.4113                 1.1020
 IR Inten    --      4.4696                12.1310                11.9087

                     55                     56                     57
                      A                      A                      A
 Frequencies --   1328.3315              1350.5345              1358.5825
 Red. masses --      1.1743                 1.8263                 1.7903
 Frc consts  --      1.2208                 1.9626                 1.9469
 IR Inten    --     22.8657                 6.7776                16.4242

                     58                     59                     60
                      A                      A                      A
 Frequencies --   1373.9643              1382.9580              1387.3861
 Red. masses --      1.4914                 1.9055                 4.5386
 Frc consts  --      1.6588                 2.1472                 5.1472
 IR Inten    --     17.4731                50.7929                19.7348

                     61                     62                     63
                      A                      A                      A
 Frequencies --   1399.9225              1433.0714              1460.5784
 Red. masses --      1.2576                 3.5348                 1.5745
 Frc consts  --      1.4521                 4.2771                 1.9790
 IR Inten    --    400.5523              1697.5784               409.0804

                     64                     65                     66
                      A                      A                      A
 Frequencies --   1480.2572              1482.7639              1485.4519
 Red. masses --      1.2877                 1.1294                 2.3314
 Frc consts  --      1.6624                 1.4630                 3.0310
 IR Inten    --    120.7063                41.8836               425.9925

                     67                     68                     69
                      A                      A                      A
 Frequencies --   1486.2690              1490.1336              1499.8260
 Red. masses --      1.0725                 1.0798                 1.0851
 Frc consts  --      1.3959                 1.4127                 1.4382
 IR Inten    --    199.2089                46.3713                84.2187

                     70                     71                     72
                      A                      A                      A
 Frequencies --   1509.4204              1559.2939              2975.7736
 Red. masses --      1.0958                 9.9595                 1.0593
 Frc consts  --      1.4710                14.2674                 5.5266
 IR Inten    --     44.2029              5658.9573                16.3313

                     73                     74                     75
                      A                      A                      A
 Frequencies --   2985.8871              2993.2671              2994.5942
 Red. masses --      1.0537                 1.0405                 1.0702
 Frc consts  --      5.5352                 5.4929                 5.6544
 IR Inten    --      1.0329                 3.7566                41.0762

                     76                     77                     78
                      A                      A                      A
 Frequencies --   2997.8155              3005.7351              3009.0455
 Red. masses --      1.0836                 1.0736                 1.0873
 Frc consts  --      5.7374                 5.7146                 5.8006
 IR Inten    --     12.9593                35.5012                22.1221

                     79                     80                     81
                      A                      A                      A
 Frequencies --   3019.6862              3032.2895              3048.2206
 Red. masses --      1.0615                 1.1030                 1.0998
 Frc consts  --      5.7028                 5.9751                 6.0208
 IR Inten    --    119.8119                33.6748                60.4591

                     82                     83                     84
                      A                      A                      A
 Frequencies --   3048.4157              3058.9689              3069.8250
 Red. masses --      1.1002                 1.1023                 1.1050
 Frc consts  --      6.0237                 6.0774                 6.1355
 IR Inten    --      1.6974                48.5534                47.0645

 - Thermochemistry -
 -------------------
 Temperature   298.150 Kelvin.  Pressure   1.00000 Atm.
 Atom     1 has atomic number  6 and mass  12.00000

 Molecular mass:   425.84656 amu.
 Principal axes and moments of inertia in atomic units:
                           1         2         3
     Eigenvalues --  6180.63214********************
           X            0.99867  -0.04989   0.01295
           Y            0.04996   0.99874  -0.00512
           Z           -0.01267   0.00576   0.99990
 This molecule is an asymmetric top.
 Rotational symmetry number  1.
 Warning -- assumption of classical behavior for rotation
           may cause significant error
 Rotational temperatures (Kelvin)      0.01401     0.00526     0.00400
 Rotational constants (GHZ):           0.29200     0.10966     0.08339
 Zero-point vibrational energy     577275.7 (Joules/Mol)
                                  137.97219 (Kcal/Mol)
 Warning -- explicit consideration of  27 degrees of freedom as
           vibrations may cause significant error
 Vibrational temperatures:     22.25    35.51    66.52    70.53    98.29
          (Kelvin)            103.66   136.83   176.66   183.76   186.70
                              210.76   213.75   258.76   277.02   323.64
                              338.53   368.17   396.92   405.52   425.30
                              452.19   514.82   587.97   606.99   674.41
                              725.42   797.91   943.42   974.43  1012.20
                             1048.22  1063.17  1067.83  1137.07  1150.43
                             1231.51  1274.07  1281.88  1419.88  1427.89
                             1464.62  1482.65  1501.12  1523.40  1572.80
                             1580.08  1620.17  1707.40  1758.17  1790.42
                             1836.92  1880.02  1888.07  1902.01  1911.17
                             1943.12  1954.70  1976.83  1989.77  1996.14
                             2014.18  2061.87  2101.45  2129.76  2133.37
                             2137.23  2138.41  2143.97  2157.92  2171.72
                             2243.48  4281.47  4296.03  4306.64  4308.55
                             4313.19  4324.58  4329.35  4344.65  4362.79
                             4385.71  4385.99  4401.17  4416.79

 Zero-point correction=                           0.219873 (Hartree/Particle)
 Thermal correction to Energy=                    0.239337
 Thermal correction to Enthalpy=                  0.240281
 Thermal correction to Gibbs Free Energy=         0.167064
 Sum of electronic and zero-point Energies=          -8337.946160
 Sum of electronic and thermal Energies=             -8337.926696
 Sum of electronic and thermal Enthalpies=           -8337.925752
 Sum of electronic and thermal Free Energies=        -8337.998968

                     E (Thermal)             CV                S
                      KCal/Mol        Cal/Mol-Kelvin    Cal/Mol-Kelvin
 Total                  150.186             66.848            154.098
 Electronic               0.000              0.000              0.000
 Translational            0.889              2.981             44.037
 Rotational               0.889              2.981             36.041
 Vibrational            148.409             60.886             74.019
 Vibration     1          0.593              1.986              7.145
 Vibration     2          0.593              1.985              6.217
 Vibration     3          0.595              1.979              4.972
 Vibration     4          0.595              1.978              4.856
 Vibration     5          0.598              1.969              4.201
 Vibration     6          0.598              1.967              4.097
 Vibration     7          0.603              1.953              3.552
 Vibration     8          0.610              1.930              3.056
 Vibration     9          0.611              1.925              2.980
 Vibration    10          0.612              1.924              2.950
 Vibration    11          0.617              1.906              2.717
 Vibration    12          0.618              1.904              2.691
 Vibration    13          0.629              1.867              2.330
 Vibration    14          0.635              1.850              2.203
 Vibration    15          0.650              1.803              1.919
 Vibration    16          0.655              1.787              1.838
 Vibration    17          0.666              1.753              1.690
 Vibration    18          0.678              1.718              1.559
 Vibration    19          0.681              1.707              1.522
 Vibration    20          0.690              1.682              1.442
 Vibration    21          0.702              1.646              1.340
 Vibration    22          0.733              1.559              1.132
 Vibration    23          0.773              1.451              0.931
 Vibration    24          0.784              1.423              0.886
 Vibration    25          0.826              1.319              0.741
 Vibration    26          0.859              1.241              0.648
 Vibration    27          0.910              1.130              0.535

 Optimization completed.
    -- Stationary point found.
 Normal termination of Gaussian 16 at Thu Dec 21 09:42:05 2023.
