 Q-Chem 5.4, Q-Chem, Inc., Pleasanton, CA (2021)
 Q-Chem 5.4.0 for Intel X86 EM64T Linux

User input:
--------------------------------------------------------------
$molecule
0 1
C                 -3.3858650000      3.4924710000      0.0240260000
C                 -4.6175510000      2.8415910000      0.0755270000
C                 -4.6250040000      1.4381900000      0.1350740000
C                 -2.1856880000      2.7757100000      0.0280280000
C                 -2.2093850000      1.3722770000      0.0859070000
C                 -3.4422440000      0.7135950000      0.1396330000
C                 -0.8958880000      3.5253730000     -0.0275050000
C                  0.3641650000      2.7248190000     -0.0219130000
C                  0.3340620000      1.3215310000      0.0361140000
C                 -0.9524800000      0.5724810000      0.0933840000
C                  1.5909370000      3.3931050000     -0.0735210000
C                  2.7967120000      2.6935370000     -0.0697710000
C                  2.7504530000      1.2908880000     -0.0094860000
C                  1.5408160000      0.6141040000      0.0420250000
O                 -0.8725070000      4.7449780000     -0.0757360000
O                 -0.9758210000     -0.6479310000      0.1438710000
C                 -5.9119670000      3.6148630000      0.0560140000
H                 -5.5735810000      0.9122860000      0.1793440000
H                 -3.4476620000     -0.3685530000      0.1860540000
H                  1.5048100000     -0.4674320000      0.0890210000
C                  4.1192940000      3.4144360000     -0.1399570000
H                  3.6782790000      0.7274800000     -0.0021090000
H                 -3.3324630000      4.5741270000     -0.0193410000
H                  1.5791270000      4.4760590000     -0.1157030000
H                 -5.7381490000      4.6857330000      0.1719850000
H                 -6.5795680000      3.2880000000      0.8581250000
H                 -6.4426100000      3.4619190000     -0.8895020000
H                  3.9921650000      4.4921300000     -0.0267450000
H                  4.6106640000      3.2339260000     -1.1016630000
H                  4.8006090000      3.0666870000      0.6416310000
$end

$rem
BASIS  =  6-311++G(d,p)
GUI  =  2
JOB_TYPE  =  SP
METHOD  =  B3LYP
SCF_CONVERGENCE  = 8
SOLVENT_METHOD = sm12
$end

$smx
solvent dimethylformamide
charges CM5
$end

--------------------------------------------------------------

             Standard Nuclear Orientation (Angstroms)
    I     Atom           X                Y                Z
 ----------------------------------------------------------------
    1      C      -3.3858650000     3.4924710000     0.0240260000
    2      C      -4.6175510000     2.8415910000     0.0755270000
    3      C      -4.6250040000     1.4381900000     0.1350740000
    4      C      -2.1856880000     2.7757100000     0.0280280000
    5      C      -2.2093850000     1.3722770000     0.0859070000
    6      C      -3.4422440000     0.7135950000     0.1396330000
    7      C      -0.8958880000     3.5253730000    -0.0275050000
    8      C       0.3641650000     2.7248190000    -0.0219130000
    9      C       0.3340620000     1.3215310000     0.0361140000
   10      C      -0.9524800000     0.5724810000     0.0933840000
   11      C       1.5909370000     3.3931050000    -0.0735210000
   12      C       2.7967120000     2.6935370000    -0.0697710000
   13      C       2.7504530000     1.2908880000    -0.0094860000
   14      C       1.5408160000     0.6141040000     0.0420250000
   15      O      -0.8725070000     4.7449780000    -0.0757360000
   16      O      -0.9758210000    -0.6479310000     0.1438710000
   17      C      -5.9119670000     3.6148630000     0.0560140000
   18      H      -5.5735810000     0.9122860000     0.1793440000
   19      H      -3.4476620000    -0.3685530000     0.1860540000
   20      H       1.5048100000    -0.4674320000     0.0890210000
   21      C       4.1192940000     3.4144360000    -0.1399570000
   22      H       3.6782790000     0.7274800000    -0.0021090000
   23      H      -3.3324630000     4.5741270000    -0.0193410000
   24      H       1.5791270000     4.4760590000    -0.1157030000
   25      H      -5.7381490000     4.6857330000     0.1719850000
   26      H      -6.5795680000     3.2880000000     0.8581250000
   27      H      -6.4426100000     3.4619190000    -0.8895020000
   28      H       3.9921650000     4.4921300000    -0.0267450000
   29      H       4.6106640000     3.2339260000    -1.1016630000
   30      H       4.8006090000     3.0666870000     0.6416310000
 ----------------------------------------------------------------

   15    -767.6096409680      2.81e-09  Convergence criterion met
 Total energy in the final basis set =     -767.6316115160

                    Orbital Energies (a.u.)
 --------------------------------------------------------------

 Alpha MOs
 -- Occupied --
-19.1283 -19.1253 -10.2802 -10.2779 -10.2068 -10.2068 -10.2060 -10.2060
-10.2043 -10.2043 -10.1955 -10.1955 -10.1937 -10.1937 -10.1926 -10.1926
-10.1702 -10.1702  -1.0627  -1.0593  -0.8930  -0.8827  -0.8215  -0.7919
 -0.7803  -0.7729  -0.7249  -0.7008  -0.6816  -0.6421  -0.6292  -0.6107
 -0.5847  -0.5475  -0.5452  -0.5038  -0.4856  -0.4787  -0.4717  -0.4551
 -0.4525  -0.4515  -0.4462  -0.4378  -0.4329  -0.4285  -0.4228  -0.4160
 -0.3927  -0.3919  -0.3825  -0.3766  -0.3683  -0.3652  -0.3584  -0.3556
 -0.2844  -0.2821  -0.2780  -0.2717  -0.2711  -0.2640

          Ground-State Mulliken Net Atomic Charges

     Atom                 Charge (a.u.)
  ----------------------------------------
      1 C                    -0.345167
      2 C                     1.100694
      3 C                     0.400335
      4 C                    -0.339183
      5 C                    -1.064317
      6 C                     0.285424
      7 C                    -1.079137
      8 C                    -0.339517
      9 C                    -1.065329
     10 C                    -2.584107
     11 C                    -0.352071
     12 C                     1.101827
     13 C                     0.409936
     14 C                     0.286550
     15 O                    -0.256943
     16 O                    -0.255482
     17 C                     0.739281
     18 H                     0.306414
     19 H                     0.208837
     20 H                     0.208838
     21 C                     0.739467
     22 H                     0.306791
     23 H                     0.110033
     24 H                     0.109408
     25 H                     0.250966
     26 H                     0.211319
     27 H                     0.221223
     28 H                     0.251478
     29 H                     0.221065
     30 H                     0.211367
  ----------------------------------------
  Sum of atomic charges =     0.000000

                    Cartesian Multipole Moments
 -----------------------------------------------------------------
    Charge (ESU x 10^10)
                 0.0000
    Dipole Moment (Debye)
         X       0.0145      Y       0.7857      Z      -0.0875
       Tot       0.7907
    Quadrupole Moments (Debye-Ang)
        XX     -64.1447     XY      -1.7387     YY    -113.2126
        XZ      -0.7487     YZ       0.1371     ZZ    -107.0469

 Total job time:  672.02s(wall), 5271.28s(cpu)
        *  Thank you very much for using Q-Chem.  Have a nice day.  *
