 Gaussian 16, Revision A.03,
 Gaussian 16:  ES64L-G16RevA.03 25-Dec-2016

 --------------------------------------
 #P UB3LYP/6-311++G(d,p) nosym opt freq
 --------------------------------------

 --------
 Oxidized
 --------
 Symbolic Z-matrix:
 Charge =  0 Multiplicity = 1

 SCF Done:  E(UB3LYP) =  -767.611438358     A.U. after   15 cycles
 Optimization completed.
    -- Stationary point found.
 Normal termination of Gaussian 16 at Wed Dec 27 19:48:48 2023.

 ----------------------------------------------------------------------
 #P Geom=AllCheck Guess=TCheck SCRF=Check GenChk UB3LYP/6-311++G(d,p) F
 req
 ----------------------------------------------------------------------

 Structure from the checkpoint file:  "130.chk"
 --------
 Oxidized
 --------
 Charge =  0 Multiplicity = 1

                          Input orientation:
 ---------------------------------------------------------------------
 Center     Atomic      Atomic             Coordinates (Angstroms)
 Number     Number       Type             X           Y           Z
 ---------------------------------------------------------------------
      1          6           0       -3.385865    3.492471    0.024026
      2          6           0       -4.617551    2.841591    0.075527
      3          6           0       -4.625004    1.438190    0.135074
      4          6           0       -2.185688    2.775710    0.028028
      5          6           0       -2.209385    1.372277    0.085907
      6          6           0       -3.442244    0.713595    0.139633
      7          6           0       -0.895888    3.525373   -0.027505
      8          6           0        0.364165    2.724819   -0.021913
      9          6           0        0.334062    1.321531    0.036114
     10          6           0       -0.952480    0.572481    0.093384
     11          6           0        1.590937    3.393105   -0.073521
     12          6           0        2.796712    2.693537   -0.069771
     13          6           0        2.750453    1.290888   -0.009486
     14          6           0        1.540816    0.614104    0.042025
     15          8           0       -0.872507    4.744978   -0.075736
     16          8           0       -0.975821   -0.647931    0.143871
     17          6           0       -5.911967    3.614863    0.056014
     18          1           0       -5.573581    0.912286    0.179344
     19          1           0       -3.447662   -0.368553    0.186054
     20          1           0        1.504810   -0.467432    0.089021
     21          6           0        4.119294    3.414436   -0.139957
     22          1           0        3.678279    0.727480   -0.002109
     23          1           0       -3.332463    4.574127   -0.019341
     24          1           0        1.579127    4.476059   -0.115703
     25          1           0       -5.738149    4.685733    0.171985
     26          1           0       -6.579568    3.288000    0.858125
     27          1           0       -6.442610    3.461919   -0.889502
     28          1           0        3.992165    4.492130   -0.026745
     29          1           0        4.610664    3.233926   -1.101663
     30          1           0        4.800609    3.066687    0.641631
 ---------------------------------------------------------------------

 SCF Done:  E(UB3LYP) =  -767.611438358     A.U. after    1 cycles

 Alpha  occ. eigenvalues --  -19.12315 -19.12021 -10.27521 -10.27288 -10.20817
 Alpha  occ. eigenvalues --  -10.20817 -10.20443 -10.20443 -10.20207 -10.20207
 Alpha  occ. eigenvalues --  -10.19569 -10.19569 -10.19459 -10.19459 -10.19209
 Alpha  occ. eigenvalues --  -10.19209 -10.18278 -10.18278  -1.05713  -1.05356
 Alpha  occ. eigenvalues --   -0.89240  -0.88263  -0.82232  -0.79468  -0.77987
 Alpha  occ. eigenvalues --   -0.77229  -0.72976  -0.70695  -0.68056  -0.64491
 Alpha  occ. eigenvalues --   -0.62972  -0.61121  -0.58258  -0.54672  -0.54646
 Alpha  occ. eigenvalues --   -0.50215  -0.48686  -0.48060  -0.47340  -0.45224
 Alpha  occ. eigenvalues --   -0.45121  -0.44799  -0.44440  -0.43961  -0.43872
 Alpha  occ. eigenvalues --   -0.43331  -0.43270  -0.40989  -0.40197  -0.40162
 Alpha  occ. eigenvalues --   -0.38878  -0.37852  -0.37082  -0.36792  -0.35921
 Alpha  occ. eigenvalues --   -0.35493  -0.28051  -0.27834  -0.27699  -0.26994
 Alpha  occ. eigenvalues --   -0.26613  -0.26477
 Alpha virt. eigenvalues --   -0.11163  -0.06836  -0.03601  -0.02309  -0.01101
 Alpha virt. eigenvalues --   -0.00828   0.00836   0.01254   0.01462   0.01749
 Alpha virt. eigenvalues --    0.03061   0.03238   0.03494   0.03660   0.03799

  Beta  occ. eigenvalues --  -19.12315 -19.12021 -10.27521 -10.27288 -10.20817
  Beta  occ. eigenvalues --  -10.20817 -10.20443 -10.20443 -10.20207 -10.20207
  Beta  occ. eigenvalues --  -10.19569 -10.19569 -10.19459 -10.19459 -10.19209
  Beta  occ. eigenvalues --  -10.19209 -10.18278 -10.18278  -1.05713  -1.05356
  Beta  occ. eigenvalues --   -0.89240  -0.88263  -0.82232  -0.79468  -0.77987
  Beta  occ. eigenvalues --   -0.77229  -0.72976  -0.70695  -0.68056  -0.64491
  Beta  occ. eigenvalues --   -0.62972  -0.61121  -0.58258  -0.54672  -0.54646
  Beta  occ. eigenvalues --   -0.50215  -0.48686  -0.48060  -0.47340  -0.45224
  Beta  occ. eigenvalues --   -0.45121  -0.44799  -0.44440  -0.43961  -0.43872
  Beta  occ. eigenvalues --   -0.43331  -0.43270  -0.40989  -0.40197  -0.40162
  Beta  occ. eigenvalues --   -0.38878  -0.37852  -0.37082  -0.36792  -0.35921
  Beta  occ. eigenvalues --   -0.35493  -0.28051  -0.27834  -0.27699  -0.26994
  Beta  occ. eigenvalues --   -0.26613  -0.26477
  Beta virt. eigenvalues --   -0.11163  -0.06836  -0.03601  -0.02309  -0.01101
  Beta virt. eigenvalues --   -0.00828   0.00836   0.01254   0.01462   0.01749
  Beta virt. eigenvalues --    0.03061   0.03238   0.03494   0.03660   0.03799

 Mulliken charges and spin densities:
               1          2
     1  C   -0.111807  -0.000000
     2  C    0.422753  -0.000000
     3  C   -0.501135  -0.000000
     4  C    0.237352  -0.000000
     5  C    0.126994   0.000000
     6  C    0.284022  -0.000000
     7  C   -0.629849   0.000000
     8  C    0.235807  -0.000000
     9  C    0.127521   0.000000
    10  C   -1.255339   0.000000
    11  C   -0.115959  -0.000000
    12  C    0.421752   0.000000
    13  C   -0.494252  -0.000000
    14  C    0.284998   0.000000
    15  O   -0.208050  -0.000000
    16  O   -0.211774  -0.000000
    17  C   -0.302816   0.000000
    18  H    0.168491  -0.000000
    19  H    0.187919  -0.000000
    20  H    0.187886  -0.000000
    21  C   -0.302946   0.000000
    22  H    0.168634  -0.000000
    23  H    0.144336   0.000000
    24  H    0.144065   0.000000
    25  H    0.168964  -0.000000
    26  H    0.152681   0.000000
    27  H    0.173903   0.000000
    28  H    0.169135   0.000000
    29  H    0.173543  -0.000000
    30  H    0.153173   0.000000
 Sum of Mulliken charges =  -0.00000  -0.00000

 Dipole moment (field-independent basis, Debye):
    X=              0.0102    Y=              0.5723    Z=             -0.0730  Tot=              0.5770
 Quadrupole moment (field-independent basis, Debye-Ang):
   XX=            -73.3164   YY=           -113.4898   ZZ=           -106.9908
   XY=             -1.3543   XZ=             -0.5817   YZ=              0.1585

  Exact polarizability: 300.687  -2.019 204.730  -4.039  -4.702  98.440
 Approx polarizability: 406.563  -0.423 396.379  -5.026 -10.297 159.508

                      1                      2                      3
                      A                      A                      A
 Frequencies --     24.0415                25.9493                36.0820
 Red. masses --      1.0646                 1.0494                 4.6199
 Frc consts  --      0.0004                 0.0004                 0.0035
 IR Inten    --      0.8476                 0.4075                 4.1767

                      4                      5                      6
                      A                      A                      A
 Frequencies --     84.7384               101.0814               139.1235
 Red. masses --      3.6166                 5.4808                 6.3620
 Frc consts  --      0.0153                 0.0330                 0.0726
 IR Inten    --      0.0002                 0.8914                 0.7487

                      7                      8                      9
                      A                      A                      A
 Frequencies --    161.2728               165.4107               235.4182
 Red. masses --      3.7983                 4.2170                 4.3737
 Frc consts  --      0.0582                 0.0680                 0.1428
 IR Inten    --      1.2184                 0.0000                 0.2446

                     10                     11                     12
                      A                      A                      A
 Frequencies --    250.7152               302.8842               312.9976
 Red. masses --      4.2733                 4.4404                 5.3367
 Frc consts  --      0.1583                 0.2400                 0.3080
 IR Inten    --      2.9399                 0.0016                 0.1635

                     13                     14                     15
                      A                      A                      A
 Frequencies --    358.3492               370.0577               387.9319
 Red. masses --      6.1784                 3.3569                 6.9987
 Frc consts  --      0.4675                 0.2708                 0.6206
 IR Inten    --      7.4727                 0.1361                15.2549

                     16                     17                     18
                      A                      A                      A
 Frequencies --    417.0752               428.6702               448.9005
 Red. masses --      3.4721                 4.8138                 3.2236
 Frc consts  --      0.3559                 0.5212                 0.3827
 IR Inten    --      0.6303                 3.9952                 0.0026

                     19                     20                     21
                      A                      A                      A
 Frequencies --    471.3860               482.9615               543.7150
 Red. masses --     11.8084                 4.2395                 3.6166
 Frc consts  --      1.5460                 0.5826                 0.6299
 IR Inten    --      0.1927                11.3021                 0.0614

                     22                     23                     24
                      A                      A                      A
 Frequencies --    588.2060               599.9913               669.8149
 Red. masses --      5.0917                 5.8857                 5.1768
 Frc consts  --      1.0379                 1.2483                 1.3684
 IR Inten    --      1.3958                10.2599                 6.1927

                     25                     26                     27
                      A                      A                      A
 Frequencies --    669.8370               712.1689               725.2519
 Red. masses --      4.6926                 6.6838                 5.9672
 Frc consts  --      1.2405                 1.9973                 1.8493
 IR Inten    --      7.1608                 0.1667                 0.6090

                     28                     29                     30
                      A                      A                      A
 Frequencies --    729.2479               752.5343               787.0911
 Red. masses --      4.2109                 4.0764                 6.0878
 Frc consts  --      1.3194                 1.3601                 2.2221
 IR Inten    --      0.0080                39.9181                 5.5735

                     31                     32                     33
                      A                      A                      A
 Frequencies --    807.8181               851.5271               871.9387
 Red. masses --      4.5688                 1.2982                 1.6329
 Frc consts  --      1.7566                 0.5546                 0.7314
 IR Inten    --      0.4275                 0.0189                29.3110

                     34                     35                     36
                      A                      A                      A
 Frequencies --    912.5713               933.5473               942.1656
 Red. masses --      4.4868                 1.3102                 1.4036
 Frc consts  --      2.2015                 0.6728                 0.7341
 IR Inten    --      0.7736                 0.1750                 4.2187

                     37                     38                     39
                      A                      A                      A
 Frequencies --    943.7527               998.0907              1004.4798
 Red. masses --      6.7265                 1.7161                 1.3374
 Frc consts  --      3.5298                 1.0072                 0.7950
 IR Inten    --     63.1844                37.4472                 0.0504

                     40                     41                     42
                      A                      A                      A
 Frequencies --   1008.2982              1017.9123              1041.5021
 Red. masses --      1.3648                 1.4276                 2.0689
 Frc consts  --      0.8175                 0.8715                 1.3223
 IR Inten    --      2.3898                 0.9846                 0.8737

                     43                     44                     45
                      A                      A                      A
 Frequencies --   1063.3152              1063.6443              1108.7653
 Red. masses --      1.5628                 1.5639                 3.1877
 Frc consts  --      1.0411                 1.0424                 2.3089
 IR Inten    --      3.6177                 9.1542                 1.6322

                     46                     47                     48
                      A                      A                      A
 Frequencies --   1133.0857              1162.1766              1193.8078
 Red. masses --      1.8608                 1.3742                 2.2278
 Frc consts  --      1.4076                 1.0935                 1.8707
 IR Inten    --      3.5898                 3.6329                46.8334

                     49                     50                     51
                      A                      A                      A
 Frequencies --   1197.9002              1241.7865              1248.0516
 Red. masses --      2.4505                 1.6552                 3.2630
 Frc consts  --      2.0718                 1.5039                 2.9945
 IR Inten    --      5.4352                 0.0126                 0.0865

                     52                     53                     54
                      A                      A                      A
 Frequencies --   1290.0195              1309.8209              1314.9289
 Red. masses --      1.5294                 1.9918                 7.1806
 Frc consts  --      1.4996                 2.0134                 7.3150
 IR Inten    --      7.6282                 0.3752               771.5880

                     55                     56                     57
                      A                      A                      A
 Frequencies --   1349.6466              1358.0740              1415.2198
 Red. masses --      6.5565                 8.3624                 1.2492
 Frc consts  --      7.0366                 9.0872                 1.4741
 IR Inten    --     18.0344                 0.0028                 2.9954

                     58                     59                     60
                      A                      A                      A
 Frequencies --   1415.4105              1432.8570              1445.2840
 Red. masses --      1.2503                 2.9083                 2.9999
 Frc consts  --      1.4758                 3.5180                 3.6920
 IR Inten    --      4.3503                 5.1876                21.2341

                     61                     62                     63
                      A                      A                      A
 Frequencies --   1487.0388              1487.0726              1494.9718
 Red. masses --      1.0466                 1.0470                 1.1555
 Frc consts  --      1.3635                 1.3641                 1.5215
 IR Inten    --      6.5756                 8.9921                 3.9426

                     64                     65                     66
                      A                      A                      A
 Frequencies --   1496.3938              1515.7525              1522.5028
 Red. masses --      1.1958                 3.0155                 2.7939
 Frc consts  --      1.5776                 4.0819                 3.8157
 IR Inten    --      0.8956                 1.2410                 0.9587

                     67                     68                     69
                      A                      A                      A
 Frequencies --   1597.5734              1608.4477              1634.3352
 Red. masses --      6.3563                 7.2027                 6.2541
 Frc consts  --      9.5583                10.9789                 9.8424
 IR Inten    --      2.9251                25.6773               179.6613

                     70                     71                     72
                      A                      A                      A
 Frequencies --   1639.2995              1714.3279              1726.4657
 Red. masses --      5.8385                12.6403                11.8854
 Frc consts  --      9.2442                21.8875                20.8727
 IR Inten    --     37.8192                14.8851               298.9117

                     73                     74                     75
                      A                      A                      A
 Frequencies --   3025.6402              3025.7615              3076.2102
 Red. masses --      1.0385                 1.0385                 1.0987
 Frc consts  --      5.6015                 5.6016                 6.1258
 IR Inten    --     35.9927                12.4396                11.4321

                     76                     77                     78
                      A                      A                      A
 Frequencies --   3076.2956              3110.7210              3110.7830
 Red. masses --      1.0985                 1.1008                 1.1007
 Frc consts  --      6.1253                 6.2759                 6.2759
 IR Inten    --     15.3885                 7.7761                16.7549

                     79                     80                     81
                      A                      A                      A
 Frequencies --   3160.8026              3160.8896              3186.5780
 Red. masses --      1.0896                 1.0895                 1.0903
 Frc consts  --      6.4135                 6.4137                 6.5229
 IR Inten    --     22.3639                 3.6065                 6.4964

                     82                     83                     84
                      A                      A                      A
 Frequencies --   3187.0029              3197.7520              3198.1794
 Red. masses --      1.0905                 1.0925                 1.0927
 Frc consts  --      6.5261                 6.5821                 6.5853
 IR Inten    --      0.6885                 8.0925                 0.5134

 - Thermochemistry -
 -------------------
 Temperature   298.150 Kelvin.  Pressure   1.00000 Atm.
 Atom     1 has atomic number  6 and mass  12.00000

 Molecular mass:   236.08373 amu.
 Principal axes and moments of inertia in atomic units:
                           1         2         3
     Eigenvalues --  1854.068376721.375078553.07076
           X            0.99961   0.01913   0.02039
           Y           -0.01997   0.99892   0.04194
           Z           -0.01956  -0.04234   0.99891
 This molecule is an asymmetric top.
 Rotational symmetry number  1.
 Warning -- assumption of classical behavior for rotation
           may cause significant error
 Rotational temperatures (Kelvin)      0.04672     0.01289     0.01013
 Rotational constants (GHZ):           0.97340     0.26851     0.21101
 Zero-point vibrational energy     613092.7 (Joules/Mol)
                                  146.53268 (Kcal/Mol)
 Warning -- explicit consideration of  23 degrees of freedom as
           vibrations may cause significant error
 Vibrational temperatures:     34.59    37.34    51.91   121.92   145.43
          (Kelvin)            200.17   232.04   237.99   338.71   360.72
                              435.78   450.33   515.58   532.43   558.15
                              600.08   616.76   645.87   678.22   694.87
                              782.28   846.30   863.25   963.71   963.75
                             1024.65  1043.48  1049.23  1082.73  1132.45
                             1162.27  1225.16  1254.53  1312.99  1343.17
                             1355.57  1357.85  1436.03  1445.22  1450.72
                             1464.55  1498.49  1529.87  1530.35  1595.27
                             1630.26  1672.11  1717.62  1723.51  1786.65
                             1795.67  1856.05  1884.54  1891.89  1941.84
                             1953.97  2036.19  2036.46  2061.56  2079.44
                             2139.52  2139.57  2150.93  2152.98  2180.83
                             2190.54  2298.55  2314.20  2351.44  2358.59
                             2466.54  2484.00  4353.22  4353.40  4425.98
                             4426.10  4475.63  4475.72  4547.69  4547.82
                             4584.77  4585.39  4600.85  4601.47

 Zero-point correction=                           0.233515 (Hartree/Particle)
 Thermal correction to Energy=                    0.248672
 Thermal correction to Enthalpy=                  0.249616
 Thermal correction to Gibbs Free Energy=         0.189071
 Sum of electronic and zero-point Energies=           -767.377924
 Sum of electronic and thermal Energies=              -767.362767
 Sum of electronic and thermal Enthalpies=            -767.361822
 Sum of electronic and thermal Free Energies=         -767.422368

                     E (Thermal)             CV                S
                      KCal/Mol        Cal/Mol-Kelvin    Cal/Mol-Kelvin
 Total                  156.044             57.876            127.428
 Electronic               0.000              0.000              0.000
 Translational            0.889              2.981             42.279
 Rotational               0.889              2.981             33.033
 Vibrational            154.266             51.915             52.117
 Vibration     1          0.593              1.985              6.269
 Vibration     2          0.593              1.985              6.117
 Vibration     3          0.594              1.982              5.463
 Vibration     4          0.601              1.960              3.778
 Vibration     5          0.604              1.948              3.433
 Vibration     6          0.615              1.914              2.816
 Vibration     7          0.622              1.890              2.535
 Vibration     8          0.624              1.885              2.487
 Vibration     9          0.655              1.787              1.837
 Vibration    10          0.663              1.762              1.726
 Vibration    11          0.694              1.668              1.401
 Vibration    12          0.701              1.649              1.346
 Vibration    13          0.733              1.558              1.129
 Vibration    14          0.742              1.534              1.080
 Vibration    15          0.756              1.496              1.008
 Vibration    16          0.780              1.433              0.902
 Vibration    17          0.790              1.408              0.863
 Vibration    18          0.808              1.363              0.799
 Vibration    19          0.828              1.314              0.734
 Vibration    20          0.839              1.288              0.702
 Vibration    21          0.899              1.153              0.557
 Vibration    22          0.945              1.057              0.470
 Vibration    23          0.958              1.032              0.450

                           ! Non-Optimized Parameters !
 Normal termination of Gaussian 16 at Wed Dec 27 20:28:01 2023.
