 Q-Chem 5.4, Q-Chem, Inc., Pleasanton, CA (2021)
 Q-Chem 5.4.0 for Intel X86 EM64T Linux

User input:
--------------------------------------------------------------
$molecule
-1 2
N                 -2.9215170000      1.8810090000      0.1103820000
C                 -2.5291020000      0.5531690000      0.0698670000
C                 -3.4932030000     -0.4570350000      0.0413770000
C                 -3.1227420000     -1.8044400000     -0.0694170000
C                 -1.7916010000     -2.1605160000     -0.1575960000
C                 -0.7843800000     -1.1746310000     -0.1164930000
C                  0.6107320000     -1.6203610000     -0.1973540000
O                  0.9128760000     -2.8335620000     -0.3240920000
C                  1.6336810000     -0.5802940000     -0.1189220000
C                  2.9980870000     -0.9385930000     -0.1916330000
C                  3.9926440000      0.0151880000     -0.1122920000
C                  3.6501320000      1.3767940000      0.0456390000
C                  2.3226720000      1.7488710000      0.1201010000
C                  1.2879770000      0.7901190000      0.0388110000
C                 -0.1029540000      1.2344200000      0.1190720000
O                 -0.3630690000      2.4672440000      0.2859730000
C                 -1.1341080000      0.2091330000      0.0119940000
H                 -3.8242700000      2.0659740000      0.5186700000
H                 -2.1537330000      2.5225680000      0.3179610000
H                 -4.5432770000     -0.1794060000      0.0860990000
H                 -3.8948930000     -2.5684930000     -0.0927780000
H                 -1.4790970000     -3.1925410000     -0.2532290000
H                  3.2291410000     -1.9909380000     -0.3106490000
H                  5.0367250000     -0.2785310000     -0.1706490000
H                  4.4310830000      2.1290870000      0.1079090000
H                  2.0321980000      2.7857660000      0.2412500000
$end
$rem
MAX_SCF_CYCLES=200
BASIS  =  6-311++G(d,p)
GUI  =  2
JOB_TYPE  =  SP
METHOD  =  B3LYP
SOLVENT_METHOD = PCM
$end
$pcm
theory = CPCM
$end
$solvent
dielectric 37.219
opticaldielectric 1.43
$end

--------------------------------------------------------------

             Standard Nuclear Orientation (Angstroms)
    I     Atom           X                Y                Z
 ----------------------------------------------------------------
    1      N      -2.9215170000     1.8810090000     0.1103820000
    2      C      -2.5291020000     0.5531690000     0.0698670000
    3      C      -3.4932030000    -0.4570350000     0.0413770000
    4      C      -3.1227420000    -1.8044400000    -0.0694170000
    5      C      -1.7916010000    -2.1605160000    -0.1575960000
    6      C      -0.7843800000    -1.1746310000    -0.1164930000
    7      C       0.6107320000    -1.6203610000    -0.1973540000
    8      O       0.9128760000    -2.8335620000    -0.3240920000
    9      C       1.6336810000    -0.5802940000    -0.1189220000
   10      C       2.9980870000    -0.9385930000    -0.1916330000
   11      C       3.9926440000     0.0151880000    -0.1122920000
   12      C       3.6501320000     1.3767940000     0.0456390000
   13      C       2.3226720000     1.7488710000     0.1201010000
   14      C       1.2879770000     0.7901190000     0.0388110000
   15      C      -0.1029540000     1.2344200000     0.1190720000
   16      O      -0.3630690000     2.4672440000     0.2859730000
   17      C      -1.1341080000     0.2091330000     0.0119940000
   18      H      -3.8242700000     2.0659740000     0.5186700000
   19      H      -2.1537330000     2.5225680000     0.3179610000
   20      H      -4.5432770000    -0.1794060000     0.0860990000
   21      H      -3.8948930000    -2.5684930000    -0.0927780000
   22      H      -1.4790970000    -3.1925410000    -0.2532290000
   23      H       3.2291410000    -1.9909380000    -0.3106490000
   24      H       5.0367250000    -0.2785310000    -0.1706490000
   25      H       4.4310830000     2.1290870000     0.1079090000
   26      H       2.0321980000     2.7857660000     0.2412500000
 ----------------------------------------------------------------

    8    -744.4807602429      6.51e-06  Convergence criterion met
 Total energy in the final basis set =     -744.4807602429

                    Orbital Energies (a.u.)
 --------------------------------------------------------------

 Alpha MOs
 -- Occupied --
-19.0792 -19.0743 -14.3023 -10.2286 -10.2227 -10.2151 -10.1723 -10.1719
-10.1715 -10.1711 -10.1710 -10.1708 -10.1695 -10.1688 -10.1687 -10.1603
-10.1565  -1.0056  -1.0013  -0.9107  -0.8575  -0.8353  -0.7819  -0.7500
 -0.7370  -0.7276  -0.6645  -0.6352  -0.6197  -0.5823  -0.5571  -0.5423
 -0.5253  -0.4957  -0.4747  -0.4708  -0.4559  -0.4436  -0.4365  -0.4240
 -0.4226  -0.4136  -0.4064  -0.3954  -0.3842  -0.3744  -0.3704  -0.3554
 -0.3446  -0.3439  -0.3349  -0.3087  -0.2677  -0.2565  -0.2488  -0.2473
 -0.2382  -0.2116  -0.1396

 Beta MOs
 -- Occupied --
-19.0746 -19.0693 -14.3020 -10.2266 -10.2207 -10.2151 -10.1722 -10.1711
-10.1710 -10.1704 -10.1703 -10.1701 -10.1691 -10.1688 -10.1685 -10.1592
-10.1560  -0.9973  -0.9922  -0.9098  -0.8552  -0.8337  -0.7781  -0.7477
 -0.7352  -0.7253  -0.6574  -0.6334  -0.6172  -0.5815  -0.5548  -0.5401
 -0.5239  -0.4948  -0.4722  -0.4685  -0.4550  -0.4426  -0.4353  -0.4222
 -0.4123  -0.4094  -0.4042  -0.3932  -0.3742  -0.3692  -0.3592  -0.3545
 -0.3428  -0.3348  -0.3326  -0.3025  -0.2498  -0.2492  -0.2445  -0.2423
 -0.2337  -0.2036

          Ground-State Mulliken Net Atomic Charges

     Atom                 Charge (a.u.)    Spin (a.u.)
  --------------------------------------------------------
      1 N                    -0.438323       0.009441
      2 C                     0.173292       0.020113
      3 C                    -0.273040       0.091423
      4 C                    -0.448544       0.029834
      5 C                    -0.054606       0.066928
      6 C                     0.454863       0.037294
      7 C                    -0.470523       0.116131
      8 O                    -0.486768       0.193336
      9 C                     0.016885       0.017036
     10 C                     0.073723       0.034900
     11 C                    -0.457483       0.029231
     12 C                    -0.497358       0.044869
     13 C                     0.152471       0.026770
     14 C                     0.062085       0.033180
     15 C                    -0.395539       0.106015
     16 O                    -0.479586       0.174764
     17 C                     0.199385      -0.006181
     18 H                     0.280661      -0.000624
     19 H                     0.316198      -0.002603
     20 H                     0.182373      -0.006458
     21 H                     0.198534      -0.002392
     22 H                     0.157737      -0.004122
     23 H                     0.167371      -0.001997
     24 H                     0.195970      -0.002586
     25 H                     0.195624      -0.003614
     26 H                     0.174599      -0.000688
  --------------------------------------------------------
  Sum of atomic charges =    -1.000000

                    Cartesian Multipole Moments
 -----------------------------------------------------------------
    Charge (ESU x 10^10)
                -4.8032
    Dipole Moment (Debye)
         X      -1.9703      Y       2.7424      Z       1.3118
       Tot       3.6227
    Quadrupole Moments (Debye-Ang)
        XX     -93.2367     XY       5.6484     YY    -131.1178
        XZ      -3.2371     YZ      -0.6745     ZZ    -107.1600

 Total job time:  84.66s(wall), 358.05s(cpu)
        *  Thank you very much for using Q-Chem.  Have a nice day.  *
