 Q-Chem 5.4, Q-Chem, Inc., Pleasanton, CA (2021)
 Q-Chem 5.4.0 for Intel X86 EM64T Linux

User input:
--------------------------------------------------------------
$molecule
-1 2
Br                 3.7284560000     -2.1781300000      0.6149170000
C                  2.2369790000     -0.9853930000      0.2713550000
C                  0.9744330000     -1.5078580000      0.3158000000
C                 -0.1600590000     -0.6727710000      0.0702940000
C                 -1.4775950000     -1.1836840000      0.1090350000
C                 -2.5695230000     -0.3691930000     -0.1295900000
C                 -2.3757090000      0.9975230000     -0.4177240000
C                 -1.0943380000      1.5175900000     -0.4604610000
C                  0.0344390000      0.7087080000     -0.2210830000
C                  1.3808980000      1.2998850000     -0.2759020000
O                  1.5506240000      2.5047970000     -0.5303360000
C                  2.5673290000      0.4018360000     -0.0139730000
O                  3.7292150000      0.8405350000     -0.0458350000
H                  0.8193160000     -2.5573270000      0.5368400000
H                 -1.6221850000     -2.2375380000      0.3315290000
H                 -3.5731740000     -0.7819090000     -0.0949200000
H                 -3.2317340000      1.6384420000     -0.6052810000
H                 -0.9173730000      2.5644870000     -0.6795670000
$end
$rem
MAX_SCF_CYCLES=200
BASIS  =  6-311++G(d,p)
GUI  =  2
JOB_TYPE  =  SP
METHOD  =  B3LYP
SOLVENT_METHOD = COSMO
$end
$solvent
dielectric 37.219
opticaldielectric 1.43
$end

--------------------------------------------------------------

             Standard Nuclear Orientation (Angstroms)
    I     Atom           X                Y                Z
 ----------------------------------------------------------------
    1      Br      2.8989070283    -0.6234444217     0.0000489487
    2      C       1.0157414172    -0.1556332214    -0.0000017567
    3      C       0.1021707832    -1.1726662262    -0.0000039028
    4      C      -1.2981987719    -0.8833900592    -0.0000094003
    5      C      -2.2668173318    -1.9130560914    -0.0001415608
    6      C      -3.6194132176    -1.6247357721    -0.0001284307
    7      C      -4.0505861115    -0.2821309911     0.0000466919
    8      C      -3.1188486256     0.7406461171     0.0001869121
    9      C      -1.7353155148     0.4731287180     0.0001162760
   10      C      -0.7761200323     1.5890997000     0.0001345738
   11      O      -1.1573325171     2.7723298172    -0.0000511193
   12      C       0.6993135688     1.2638106482    -0.0000817930
   13      O       1.5587275675     2.1609497830    -0.0002499820
   14      H       0.4275682874    -2.2063110450    -0.0000048548
   15      H      -1.9299322190    -2.9462678387    -0.0002283568
   16      H      -4.3468223667    -2.4307926915    -0.0002173233
   17      H      -5.1120210600    -0.0538998774     0.0000944139
   18      H      -3.4232560176     1.7811524811     0.0003460690
 ----------------------------------------------------------------

   10   -3108.8700137838      9.19e-06  Convergence criterion met
 Total energy in the final basis set =    -3108.8700137838
    5   -3108.9581035046      7.50e-06  Convergence criterion met
 Total energy in the final basis set =    -3108.9581035046

                    Orbital Energies (a.u.)
 --------------------------------------------------------------

 Alpha MOs
 -- Occupied --
******** -62.4772 -56.2975 -56.2939 -56.2937 -19.0916 -19.0896 -10.2338
-10.2334 -10.2203 -10.1879 -10.1841 -10.1776 -10.1774 -10.1757 -10.1743
-10.1735  -8.6859  -6.5168  -6.5049  -6.5043  -2.6278  -2.6244  -2.6241
 -2.6146  -2.6145  -1.0323  -1.0053  -0.8721  -0.8300  -0.7803  -0.7604
 -0.7173  -0.6931  -0.6122  -0.6018  -0.5775  -0.5201  -0.4943  -0.4857
 -0.4497  -0.4369  -0.4335  -0.4267  -0.4235  -0.4119  -0.3842  -0.3797
 -0.3676  -0.3577  -0.3412  -0.3285  -0.2937  -0.2917  -0.2717  -0.2644
 -0.2391  -0.2295  -0.1669

 Beta MOs
 -- Occupied --
******** -62.4772 -56.2975 -56.2939 -56.2937 -19.0858 -19.0834 -10.2322
-10.2318 -10.2205 -10.1875 -10.1816 -10.1773 -10.1772 -10.1752 -10.1739
-10.1732  -8.6859  -6.5168  -6.5049  -6.5043  -2.6278  -2.6245  -2.6241
 -2.6146  -2.6146  -1.0220  -0.9942  -0.8695  -0.8280  -0.7785  -0.7575
 -0.7154  -0.6843  -0.6101  -0.5985  -0.5738  -0.5183  -0.4916  -0.4832
 -0.4479  -0.4343  -0.4227  -0.4213  -0.4154  -0.4087  -0.3829  -0.3686
 -0.3565  -0.3486  -0.3403  -0.3117  -0.2908  -0.2881  -0.2664  -0.2549
 -0.2336  -0.2220

          Ground-State Mulliken Net Atomic Charges

     Atom                 Charge (a.u.)    Spin (a.u.)
  --------------------------------------------------------
      1 Br                   -0.218096       0.000513
      2 C                     0.839485      -0.016692
      3 C                    -0.318099       0.170315
      4 C                    -0.501658       0.002985
      5 C                    -0.085801       0.021938
      6 C                    -0.397965       0.051186
      7 C                    -0.368337       0.021004
      8 C                     0.194431       0.057438
      9 C                     0.738322       0.030044
     10 C                    -0.409869       0.098794
     11 O                    -0.474414       0.217367
     12 C                    -0.513458       0.145578
     13 O                    -0.463650       0.223702
     14 H                     0.211707      -0.014875
     15 H                     0.176722       0.000511
     16 H                     0.208505      -0.003725
     17 H                     0.207940      -0.002027
     18 H                     0.174235      -0.004054
  --------------------------------------------------------
  Sum of atomic charges =    -1.000000

                    Cartesian Multipole Moments
 -----------------------------------------------------------------
    Charge (ESU x 10^10)
                -4.8032
    Dipole Moment (Debye)
         X      -4.0448      Y     -11.5986      Z       0.0011
       Tot      12.2836
    Quadrupole Moments (Debye-Ang)
        XX    -100.1842     XY       0.0537     YY    -116.6181
        XZ      -0.0023     YZ       0.0029     ZZ     -92.9404

 Total job time:  47.91s(wall), 347.19s(cpu)
        *  Thank you very much for using Q-Chem.  Have a nice day.  *
