 Q-Chem 5.4, Q-Chem, Inc., Pleasanton, CA (2021)
 Q-Chem 5.4.0 for Intel X86 EM64T Linux

User input:
--------------------------------------------------------------
$molecule
-2 1
O                  4.4054980000     -1.5254760000     -0.4015740000
C                  3.2761540000     -0.7248500000     -0.3075880000
C                  3.3549460000      0.6743530000     -0.3528500000
C                  2.2025030000      1.4409130000     -0.2546180000
O                  2.3404560000      2.8306710000     -0.3038490000
C                  0.9158350000      0.8437100000     -0.1082140000
C                 -0.3126400000      1.6399480000     -0.0034200000
O                 -0.3361990000      2.9041070000     -0.0345350000
C                 -1.5526830000      0.8759810000      0.1437170000
C                 -2.7740760000      1.5672710000      0.2512500000
C                 -3.9908240000      0.9188900000      0.3927740000
C                 -4.0103520000     -0.5050340000      0.4313470000
C                 -2.8428030000     -1.2228860000      0.3299400000
C                 -1.5712350000     -0.5727730000      0.1828340000
C                 -0.3799420000     -1.2871070000      0.0791390000
O                 -0.4249870000     -2.6727260000      0.1194760000
C                  0.8604260000     -0.6143630000     -0.0650480000
C                  2.0690800000     -1.4004800000     -0.1675560000
O                  2.1078380000     -2.7311270000     -0.1367750000
H                  3.9831490000     -2.4124780000     -0.3356910000
H                  4.3274690000      1.1534760000     -0.4659160000
H                  3.2875190000      2.9845780000     -0.3854190000
H                 -2.7146210000      2.6510720000      0.2171200000
H                 -4.9165170000      1.4843580000      0.4732170000
H                 -4.9585030000     -1.0303090000      0.5420920000
H                 -2.8538730000     -2.3070850000      0.3588720000
H                  0.5347820000     -2.9560320000      0.0292710000
$end
$rem
MAX_SCF_CYCLES=200
BASIS  =  6-311++G(d,p)
GUI  =  2
JOB_TYPE  =  SP
METHOD  =  B3LYP
SOLVENT_METHOD = COSMO
$end
$solvent
dielectric 37.219
opticaldielectric 1.43
$end

--------------------------------------------------------------

             Standard Nuclear Orientation (Angstroms)
    I     Atom           X                Y                Z
 ----------------------------------------------------------------
    1      O       4.3344909629    -0.9783139646     0.0010329587
    2      C       3.1083230363    -0.3288796192     0.0003421800
    3      C       3.0116284902     1.0699322470    -0.0008370478
    4      C       1.7666031155     1.6825498647    -0.0005228944
    5      O       1.7298944035     3.0795230509     0.0001155337
    6      C       0.5587459978     0.9244725804    -0.0008560960
    7      C      -0.7657561036     1.5567871618    -0.0009756234
    8      O      -0.9475853944     2.8084094425    -0.0019360317
    9      C      -1.9063470564     0.6391526722    -0.0001168127
   10      C      -3.2107097382     1.1681929928     0.0005188982
   11      C      -4.3425380312     0.3682761147     0.0011209460
   12      C      -4.1835379861    -1.0474031409     0.0010320172
   13      C      -2.9295204231    -1.6097242376     0.0003414862
   14      C      -1.7432624736    -0.8010438007    -0.0002015416
   15      C      -0.4660364599    -1.3568299305    -0.0006666249
   16      O      -0.3372903647    -2.7377790891    -0.0006110360
   17      C       0.6862496325    -0.5297121244    -0.0008949062
   18      C       1.9896718490    -1.1545500521    -0.0002552067
   19      O       2.1950348087    -2.4701856119     0.0002134409
   20      H       4.0246074407    -1.9129069199     0.0009554803
   21      H       3.9212722994     1.6705068429    -0.0022689123
   22      H       2.6529148322     3.3532793539     0.0190926326
   23      H      -3.2872539795     2.2514590351     0.0003696024
   24      H      -5.3363211748     0.8104610125     0.0016162094
   25      H      -5.0630005029    -1.6906092570     0.0014482076
   26      H      -2.8046629594    -2.6871552920     0.0002237836
   27      H       0.6550056205    -2.8955897668    -0.0001285721
 ----------------------------------------------------------------

   11    -914.6980289587      9.69e-06  Convergence criterion met
 Total energy in the final basis set =     -914.6980289587
    6    -914.9677977559      3.00e-06  Convergence criterion met
 Total energy in the final basis set =     -914.9677977559

                    Orbital Energies (a.u.)
 --------------------------------------------------------------

 Alpha MOs
 -- Occupied --
-19.1313 -19.1280 -19.1021 -19.0554 -19.0391 -10.2121 -10.2030 -10.1944
-10.1883 -10.1874 -10.1594 -10.1580 -10.1543 -10.1536 -10.1535 -10.1534
-10.1506 -10.1484 -10.1446  -1.0393  -1.0367  -1.0136  -0.9661  -0.9492
 -0.8386  -0.8165  -0.7657  -0.7343  -0.7160  -0.7030  -0.6517  -0.6204
 -0.6053  -0.5683  -0.5545  -0.5486  -0.5122  -0.4905  -0.4842  -0.4679
 -0.4491  -0.4425  -0.4228  -0.4200  -0.4154  -0.4050  -0.3956  -0.3844
 -0.3841  -0.3778  -0.3723  -0.3611  -0.3518  -0.3505  -0.3469  -0.3306
 -0.3267  -0.3142  -0.3137  -0.2757  -0.2494  -0.2411  -0.2386  -0.2177
 -0.2094  -0.1804  -0.1210

          Ground-State Mulliken Net Atomic Charges

     Atom                 Charge (a.u.)
  ----------------------------------------
      1 O                    -0.382953
      2 C                    -0.430194
      3 C                     0.083014
      4 C                    -0.198480
      5 O                    -0.300825
      6 C                     0.481389
      7 C                    -0.207340
      8 O                    -0.611168
      9 C                    -0.242684
     10 C                     0.020376
     11 C                    -0.586640
     12 C                    -0.456285
     13 C                    -0.175235
     14 C                     0.160383
     15 C                     0.055909
     16 O                    -0.531757
     17 C                     0.938300
     18 C                    -0.779091
     19 O                    -0.747068
     20 H                     0.311554
     21 H                     0.189073
     22 H                     0.305435
     23 H                     0.155501
     24 H                     0.181500
     25 H                     0.185526
     26 H                     0.163689
     27 H                     0.418071
  ----------------------------------------
  Sum of atomic charges =    -2.000000

                    Cartesian Multipole Moments
 -----------------------------------------------------------------
    Charge (ESU x 10^10)
                -9.6064
    Dipole Moment (Debye)
         X      -1.5068      Y       0.2940      Z       0.0399
       Tot       1.5357
    Quadrupole Moments (Debye-Ang)
        XX    -155.4446     XY      22.7702     YY    -166.4432
        XZ       0.0908     YZ       0.1425     ZZ    -121.0994

 Total job time:  82.91s(wall), 571.95s(cpu)
        *  Thank you very much for using Q-Chem.  Have a nice day.  *
