 Q-Chem 5.4, Q-Chem, Inc., Pleasanton, CA (2021)
 Q-Chem 5.4.0 for Intel X86 EM64T Linux

User input:
--------------------------------------------------------------
$molecule
-1 2
C                 -1.2619440000      2.5425570000     -0.8088040000
C                 -2.3194250000      1.9001550000     -0.2151860000
C                 -2.1511030000      0.5979180000      0.3334000000
C                  0.0245910000      1.9318550000     -0.8934150000
C                  0.1932160000      0.6127270000     -0.3368250000
C                 -0.9267970000     -0.0219300000      0.2706770000
C                  1.1254070000      2.5622270000     -1.4947390000
C                  2.3797460000      1.9622090000     -1.5750720000
C                  2.5415320000      0.6390940000     -1.0135780000
C                  1.4593510000      0.0032180000     -0.4158660000
C                  3.4856430000      2.6904650000     -2.2224990000
C                  4.8050390000      2.0017010000     -2.2826060000
C                  4.8903610000      0.6688760000     -1.6955460000
C                  3.8437710000      0.0264450000     -1.1001890000
O                  3.3143430000      3.8345450000     -2.6976070000
O                  5.8114760000      2.5222990000     -2.8089610000
H                 -1.3885110000      3.5362550000     -1.2282400000
H                 -3.2901530000      2.3829230000     -0.1615200000
H                 -2.9937080000      0.0981480000      0.8004430000
H                 -0.7947560000     -1.0164100000      0.6879990000
H                  1.0223900000      3.5547030000     -1.9206640000
H                  1.5945900000     -0.9890990000     -0.0013620000
H                  5.8701130000      0.2122410000     -1.7697970000
O                  3.9191170000     -1.2368020000     -0.5375570000
C                  5.1800750000     -1.8867450000     -0.5303010000
C                  5.0333600000     -3.1769650000      0.2171120000
C                  5.4640520000     -4.3565880000     -0.2224470000
H                  5.9214660000     -1.2465970000     -0.0291330000
H                  5.5342940000     -2.0668880000     -1.5532870000
H                  4.5542080000     -3.0968740000      1.1902340000
H                  5.9313350000     -4.4637150000     -1.1969560000
H                  5.3661040000     -5.2564480000      0.3750250000
$end
$rem
MAX_SCF_CYCLES=200
BASIS  =  6-311++G(d,p)
GUI  =  2
JOB_TYPE  =  SP
METHOD  =  B3LYP
SOLVENT_METHOD = COSMO
$end
$solvent
dielectric 37.219
opticaldielectric 1.43
$end

--------------------------------------------------------------

             Standard Nuclear Orientation (Angstroms)
    I     Atom           X                Y                Z
 ----------------------------------------------------------------
    1      C       4.1620967696     0.0289253119    -0.0451344324
    2      C       4.8186281812     1.2340025864    -0.0359696694
    3      C       4.0825569362     2.4514983340    -0.0042943451
    4      C       2.7372986826    -0.0400925283    -0.0233351400
    5      C       1.9933790934     1.1943546932     0.0090562378
    6      C       2.7092837768     2.4246747996     0.0174364411
    7      C       2.0365676036    -1.2564976958    -0.0328061786
    8      C       0.6453602930    -1.3191483985    -0.0113952767
    9      C      -0.0941800255    -0.0765526942     0.0220645217
   10      C       0.5873726261     1.1351071403     0.0310125673
   11      C      -0.0158890936    -2.6363959238    -0.0230100211
   12      C      -1.5052663871    -2.6453854782    -0.0008973667
   13      C      -2.1808401146    -1.3527651551     0.0318838309
   14      C      -1.5338142909    -0.1512271296     0.0453794551
   15      O       0.6517357998    -3.6935129348    -0.0507764560
   16      O      -2.1710867136    -3.7025447703    -0.0101072860
   17      H       4.7220798456    -0.9012381089    -0.0695566386
   18      H       5.9035559030     1.2639755029    -0.0530370105
   19      H       4.6111030928     3.3993786808     0.0023548015
   20      H       2.1440084057     3.3522992965     0.0410900946
   21      H       2.5749278250    -2.1980902343    -0.0574025581
   22      H       0.0201640397     2.0584438299     0.0538151717
   23      H      -3.2623918303    -1.4165219486     0.0430046835
   24      O      -2.1689477925     1.0789733949     0.0805486874
   25      C      -3.5851415317     1.0934284653     0.1622798002
   26      C      -4.0283167763     2.5185793961     0.2940358592
   27      C      -4.9873570133     3.0809927900    -0.4368205794
   28      H      -3.9091148105     0.5182739399     1.0425400047
   29      H      -4.0338542197     0.6259006332    -0.7234388946
   30      H      -3.5195564312     3.0926690669     1.0651075779
   31      H      -5.4985332873     2.5324749829    -1.2225205346
   32      H      -5.2964312581     4.1081177603    -0.2761904839
 ----------------------------------------------------------------

   11    -880.9708485977      7.77e-06  Convergence criterion met
 Total energy in the final basis set =     -880.9708485977
    5    -881.0675347262      5.58e-06  Convergence criterion met
 Total energy in the final basis set =     -881.0675347262

                    Orbital Energies (a.u.)
 --------------------------------------------------------------

 Alpha MOs
 -- Occupied --
-19.1595 -19.0804 -19.0786 -10.2392 -10.2279 -10.2224 -10.2189 -10.1871
-10.1857 -10.1851 -10.1806 -10.1779 -10.1772 -10.1769 -10.1764 -10.1758
-10.1754 -10.1721 -10.1701 -10.1612  -1.0722  -1.0186  -0.9920  -0.8807
 -0.8430  -0.8040  -0.7847  -0.7788  -0.7372  -0.7332  -0.7015  -0.6668
 -0.6379  -0.6117  -0.5972  -0.5749  -0.5667  -0.5328  -0.5261  -0.5174
 -0.4940  -0.4857  -0.4625  -0.4612  -0.4505  -0.4407  -0.4317  -0.4277
 -0.4214  -0.4169  -0.4142  -0.4032  -0.3976  -0.3943  -0.3726  -0.3684
 -0.3645  -0.3544  -0.3497  -0.3406  -0.3294  -0.3216  -0.2940  -0.2776
 -0.2693  -0.2651  -0.2349  -0.2307  -0.2233  -0.1503

 Beta MOs
 -- Occupied --
-19.1585 -19.0740 -19.0735 -10.2371 -10.2279 -10.2207 -10.2165 -10.1866
-10.1853 -10.1849 -10.1806 -10.1779 -10.1772 -10.1770 -10.1763 -10.1756
-10.1751 -10.1711 -10.1701 -10.1620  -1.0701  -1.0084  -0.9813  -0.8794
 -0.8410  -0.8031  -0.7829  -0.7775  -0.7352  -0.7318  -0.7002  -0.6597
 -0.6368  -0.6086  -0.5966  -0.5736  -0.5652  -0.5310  -0.5243  -0.5163
 -0.4927  -0.4840  -0.4612  -0.4592  -0.4494  -0.4392  -0.4286  -0.4243
 -0.4174  -0.4130  -0.4073  -0.4001  -0.3962  -0.3846  -0.3716  -0.3663
 -0.3562  -0.3491  -0.3398  -0.3362  -0.3289  -0.3105  -0.2892  -0.2765
 -0.2618  -0.2594  -0.2268  -0.2253  -0.2177

          Ground-State Mulliken Net Atomic Charges

     Atom                 Charge (a.u.)    Spin (a.u.)
  --------------------------------------------------------
      1 C                    -0.155379       0.025967
      2 C                    -0.330155      -0.002633
      3 C                    -0.392880       0.039593
      4 C                     0.142735      -0.000827
      5 C                     0.040637       0.038611
      6 C                    -0.157967      -0.016145
      7 C                     0.016054       0.102040
      8 C                     0.545376       0.002707
      9 C                     0.134038       0.030295
     10 C                    -0.123981      -0.000754
     11 C                    -0.506958       0.158958
     12 C                     0.008987       0.163333
     13 C                     0.139822      -0.085600
     14 C                    -0.556752       0.103778
     15 O                    -0.524564       0.239249
     16 O                    -0.542941       0.179706
     17 H                     0.183292      -0.000785
     18 H                     0.205446      -0.000254
     19 H                     0.209552      -0.002824
     20 H                     0.184021       0.001358
     21 H                     0.150501      -0.007423
     22 H                     0.142096       0.000244
     23 H                     0.234088       0.002043
     24 O                    -0.105607       0.024848
     25 C                    -0.423114       0.001077
     26 C                     0.091262       0.000304
     27 C                    -0.514825      -0.001359
     28 H                     0.181926       0.002078
     29 H                     0.172361       0.002247
     30 H                     0.212767       0.000055
     31 H                     0.161840       0.000041
     32 H                     0.178321       0.000074
  --------------------------------------------------------
  Sum of atomic charges =    -1.000000

                    Cartesian Multipole Moments
 -----------------------------------------------------------------
    Charge (ESU x 10^10)
                -4.8032
    Dipole Moment (Debye)
         X       1.6325      Y      18.3684      Z       0.3526
       Tot      18.4442
    Quadrupole Moments (Debye-Ang)
        XX    -114.4114     XY     -17.0026     YY    -185.3356
        XZ       0.6404     YZ       0.4211     ZZ    -122.8532

 Total job time:  122.35s(wall), 915.71s(cpu)
        *  Thank you very much for using Q-Chem.  Have a nice day.  *
