 Q-Chem 5.4, Q-Chem, Inc., Pleasanton, CA (2021)
 Q-Chem 5.4.0 for Intel X86 EM64T Linux

User input:
--------------------------------------------------------------
$molecule
0 1
O                 -1.2806830000      2.4648820000      0.3307700000
C                 -1.2463240000      1.2483330000      0.2155320000
C                 -2.4739570000      0.4507970000      0.1937730000
C                 -2.4353800000     -0.8914040000      0.0666220000
O                 -3.5281840000     -1.6602370000      0.0415890000
C                 -1.1454820000     -1.6452190000     -0.0592430000
O                 -1.2099240000     -2.8624210000     -0.1700570000
C                  0.1110940000     -0.8742880000     -0.0410660000
C                  1.3384310000     -1.5336370000     -0.1553320000
C                  2.5203910000     -0.8006000000     -0.1374940000
C                  2.4782970000      0.5888670000     -0.0058180000
C                  1.2569050000      1.2498880000      0.1083480000
C                  0.0668230000      0.5254550000      0.0916770000
H                 -3.4130440000      0.9828830000      0.2838150000
H                  1.3467280000     -2.6120170000     -0.2564760000
H                  3.4734190000     -1.3090160000     -0.2258760000
H                  3.4008530000      1.1580450000      0.0078140000
H                  1.2054680000      2.3268270000      0.2111800000
H                 -3.2159580000     -2.5800110000     -0.0579300000
$end

$rem
BASIS  =  6-311++G(d,p)
GUI  =  2
JOB_TYPE  =  SP
METHOD  =  B3LYP
SCF_CONVERGENCE  = 8
SOLVENT_METHOD = sm12
$end

$smx
solvent dimethylformamide
charges CM5
$end

--------------------------------------------------------------

             Standard Nuclear Orientation (Angstroms)
    I     Atom           X                Y                Z
 ----------------------------------------------------------------
    1      O      -1.2806830000     2.4648820000     0.3307700000
    2      C      -1.2463240000     1.2483330000     0.2155320000
    3      C      -2.4739570000     0.4507970000     0.1937730000
    4      C      -2.4353800000    -0.8914040000     0.0666220000
    5      O      -3.5281840000    -1.6602370000     0.0415890000
    6      C      -1.1454820000    -1.6452190000    -0.0592430000
    7      O      -1.2099240000    -2.8624210000    -0.1700570000
    8      C       0.1110940000    -0.8742880000    -0.0410660000
    9      C       1.3384310000    -1.5336370000    -0.1553320000
   10      C       2.5203910000    -0.8006000000    -0.1374940000
   11      C       2.4782970000     0.5888670000    -0.0058180000
   12      C       1.2569050000     1.2498880000     0.1083480000
   13      C       0.0668230000     0.5254550000     0.0916770000
   14      H      -3.4130440000     0.9828830000     0.2838150000
   15      H       1.3467280000    -2.6120170000    -0.2564760000
   16      H       3.4734190000    -1.3090160000    -0.2258760000
   17      H       3.4008530000     1.1580450000     0.0078140000
   18      H       1.2054680000     2.3268270000     0.2111800000
   19      H      -3.2159580000    -2.5800110000    -0.0579300000
 ----------------------------------------------------------------

   15    -610.5177577071      6.25e-09  Convergence criterion met
 Total energy in the final basis set =     -610.5374452487

                    Orbital Energies (a.u.)
 --------------------------------------------------------------

 Alpha MOs
 -- Occupied --
-19.1857 -19.1542 -19.1271 -10.2977 -10.2811 -10.2773 -10.2140 -10.2120
-10.2032 -10.2010 -10.1994 -10.1990 -10.1989  -1.1159  -1.0736  -1.0600
 -0.8945  -0.8384  -0.7827  -0.7769  -0.7037  -0.6621  -0.6439  -0.6078
 -0.5780  -0.5469  -0.5279  -0.4962  -0.4856  -0.4752  -0.4684  -0.4542
 -0.4471  -0.4380  -0.4260  -0.4127  -0.4095  -0.3835  -0.3785  -0.3716
 -0.3065  -0.2929  -0.2814  -0.2793  -0.2701

          Ground-State Mulliken Net Atomic Charges

     Atom                 Charge (a.u.)
  ----------------------------------------
      1 O                    -0.336691
      2 C                    -1.074710
      3 C                     0.202240
      4 C                    -0.229617
      5 O                    -0.214285
      6 C                    -0.775970
      7 O                    -0.279910
      8 C                     0.288119
      9 C                     0.471603
     10 C                     0.410756
     11 C                     0.396380
     12 C                     0.120950
     13 C                    -0.575107
     14 H                     0.248719
     15 H                     0.221904
     16 H                     0.333202
     17 H                     0.322380
     18 H                     0.175540
     19 H                     0.294496
  ----------------------------------------
  Sum of atomic charges =     0.000000

                    Cartesian Multipole Moments
 -----------------------------------------------------------------
    Charge (ESU x 10^10)
                 0.0000
    Dipole Moment (Debye)
         X       3.5674      Y      -1.7940      Z      -0.3207
       Tot       4.0060
    Quadrupole Moments (Debye-Ang)
        XX     -66.2692     XY       3.1193     YY     -83.1050
        XZ       0.0560     YZ      -0.9119     ZZ     -75.7018

 Total job time:  215.99s(wall), 1656.87s(cpu)
        *  Thank you very much for using Q-Chem.  Have a nice day.  *
