 Gaussian 16, Revision A.03,
 Gaussian 16:  ES64L-G16RevA.03 25-Dec-2016

 --------------------------------------
 #P UB3LYP/6-311++G(d,p) nosym opt freq
 --------------------------------------

 --------
 Oxidized
 --------
 Symbolic Z-matrix:
 Charge =  0 Multiplicity = 1

 SCF Done:  E(UB3LYP) =  -610.518691751     A.U. after   16 cycles
 Optimization completed.
    -- Stationary point found.
 Normal termination of Gaussian 16 at Mon Jan  8 01:23:59 2024.

 ----------------------------------------------------------------------
 #P Geom=AllCheck Guess=TCheck SCRF=Check GenChk UB3LYP/6-311++G(d,p) F
 req
 ----------------------------------------------------------------------

 Structure from the checkpoint file:  "279.chk"
 --------
 Oxidized
 --------
 Charge =  0 Multiplicity = 1

                          Input orientation:
 ---------------------------------------------------------------------
 Center     Atomic      Atomic             Coordinates (Angstroms)
 Number     Number       Type             X           Y           Z
 ---------------------------------------------------------------------
      1          8           0       -1.280683    2.464882    0.330770
      2          6           0       -1.246324    1.248333    0.215532
      3          6           0       -2.473957    0.450797    0.193773
      4          6           0       -2.435380   -0.891404    0.066622
      5          8           0       -3.528184   -1.660237    0.041589
      6          6           0       -1.145482   -1.645219   -0.059243
      7          8           0       -1.209924   -2.862421   -0.170057
      8          6           0        0.111094   -0.874288   -0.041066
      9          6           0        1.338431   -1.533637   -0.155332
     10          6           0        2.520391   -0.800600   -0.137494
     11          6           0        2.478297    0.588867   -0.005818
     12          6           0        1.256905    1.249888    0.108348
     13          6           0        0.066823    0.525455    0.091677
     14          1           0       -3.413044    0.982883    0.283815
     15          1           0        1.346728   -2.612017   -0.256476
     16          1           0        3.473419   -1.309016   -0.225876
     17          1           0        3.400853    1.158045    0.007814
     18          1           0        1.205468    2.326827    0.211180
     19          1           0       -3.215958   -2.580011   -0.057930
 ---------------------------------------------------------------------

 SCF Done:  E(UB3LYP) =  -610.518691751     A.U. after    1 cycles

 Alpha  occ. eigenvalues --  -19.18722 -19.15761 -19.12774 -10.30126 -10.28168
 Alpha  occ. eigenvalues --  -10.27916 -10.22075 -10.21811 -10.21216 -10.21190
 Alpha  occ. eigenvalues --  -10.21021 -10.20671 -10.20195  -1.11805  -1.07636
 Alpha  occ. eigenvalues --   -1.06000  -0.90196  -0.84285  -0.79047  -0.78383
 Alpha  occ. eigenvalues --   -0.70787  -0.66813  -0.64997  -0.61369  -0.58318
 Alpha  occ. eigenvalues --   -0.55243  -0.53209  -0.50315  -0.49385  -0.47789
 Alpha  occ. eigenvalues --   -0.47305  -0.46239  -0.44952  -0.44203  -0.42717
 Alpha  occ. eigenvalues --   -0.41558  -0.41458  -0.39229  -0.38421  -0.38033
 Alpha  occ. eigenvalues --   -0.30954  -0.29875  -0.28903  -0.27862  -0.27353
 Alpha virt. eigenvalues --   -0.13195  -0.06449  -0.03685  -0.01430  -0.00350
 Alpha virt. eigenvalues --    0.00855   0.01845   0.01979   0.02374   0.03922
 Alpha virt. eigenvalues --    0.04036   0.04712   0.05422   0.06708   0.06842

  Beta  occ. eigenvalues --  -19.18722 -19.15761 -19.12774 -10.30126 -10.28168
  Beta  occ. eigenvalues --  -10.27916 -10.22075 -10.21811 -10.21216 -10.21190
  Beta  occ. eigenvalues --  -10.21021 -10.20671 -10.20195  -1.11805  -1.07636
  Beta  occ. eigenvalues --   -1.06000  -0.90196  -0.84285  -0.79047  -0.78383
  Beta  occ. eigenvalues --   -0.70787  -0.66813  -0.64997  -0.61369  -0.58318
  Beta  occ. eigenvalues --   -0.55243  -0.53209  -0.50315  -0.49385  -0.47789
  Beta  occ. eigenvalues --   -0.47305  -0.46239  -0.44952  -0.44203  -0.42717
  Beta  occ. eigenvalues --   -0.41558  -0.41458  -0.39229  -0.38421  -0.38033
  Beta  occ. eigenvalues --   -0.30954  -0.29875  -0.28903  -0.27862  -0.27353
  Beta virt. eigenvalues --   -0.13195  -0.06449  -0.03685  -0.01430  -0.00350
  Beta virt. eigenvalues --    0.00855   0.01845   0.01979   0.02374   0.03922
  Beta virt. eigenvalues --    0.04036   0.04712   0.05422   0.06708   0.06842

 Mulliken charges and spin densities:
               1          2
     1  O   -0.239469   0.000000
     2  C   -0.496040  -0.000000
     3  C    0.420740   0.000000
     4  C   -0.241848   0.000000
     5  O   -0.201820  -0.000000
     6  C   -0.592615   0.000000
     7  O   -0.268598   0.000000
     8  C    0.235108  -0.000000
     9  C    0.254246   0.000000
    10  C   -0.318229  -0.000000
    11  C   -0.277380  -0.000000
    12  C    0.273487   0.000000
    13  C    0.200954   0.000000
    14  H    0.229303   0.000000
    15  H    0.183634  -0.000000
    16  H    0.183219  -0.000000
    17  H    0.184471   0.000000
    18  H    0.184576  -0.000000
    19  H    0.286260   0.000000
 Sum of Mulliken charges =  -0.00000   0.00000

 Dipole moment (field-independent basis, Debye):
    X=              2.7751    Y=             -1.4588    Z=             -0.2559  Tot=              3.1456
 Quadrupole moment (field-independent basis, Debye-Ang):
   XX=            -68.1165   YY=            -82.5159   ZZ=            -75.6269
   XY=              2.9940   XZ=              0.0891   YZ=             -0.8458

  Exact polarizability: 159.310   8.288 158.070  -3.409   8.642  62.725
 Approx polarizability: 237.591  15.658 322.782  -4.579  20.455  98.850

                      1                      2                      3
                      A                      A                      A
 Frequencies --     71.8764               120.7148               156.0892
 Red. masses --      9.7645                 4.7300                 7.4915
 Frc consts  --      0.0297                 0.0406                 0.1075
 IR Inten    --      4.1432                 0.0252                 1.4190

                      4                      5                      6
                      A                      A                      A
 Frequencies --    203.0150               258.3787               331.5373
 Red. masses --      5.1039                 5.8012                 5.8624
 Frc consts  --      0.1239                 0.2282                 0.3797
 IR Inten    --      0.1367                 1.1149                 9.1668

                      7                      8                      9
                      A                      A                      A
 Frequencies --    381.9267               390.0883               405.6222
 Red. masses --     10.1228                 4.0154                10.7830
 Frc consts  --      0.8700                 0.3600                 1.0453
 IR Inten    --     21.7707                 0.1295                 4.9658

                     10                     11                     12
                      A                      A                      A
 Frequencies --    440.1612               462.2106               481.4350
 Red. masses --      4.4480                 9.4585                 3.9720
 Frc consts  --      0.5077                 1.1906                 0.5424
 IR Inten    --      2.8138                 9.0332                 1.3660

                     13                     14                     15
                      A                      A                      A
 Frequencies --    525.6960               635.3212               662.5809
 Red. masses --      9.1777                 1.1649                 6.6893
 Frc consts  --      1.4944                 0.2770                 1.7302
 IR Inten    --      2.4633                77.5381                10.4752

                     16                     17                     18
                      A                      A                      A
 Frequencies --    681.3994               685.7053               722.8708
 Red. masses --      3.9390                 5.1882                 6.7100
 Frc consts  --      1.0775                 1.4373                 2.0658
 IR Inten    --     10.1099                 3.9348                 1.9064

                     19                     20                     21
                      A                      A                      A
 Frequencies --    730.2378               743.5922               797.8482
 Red. masses --      2.8842                 5.6650                 1.5331
 Frc consts  --      0.9061                 1.8455                 0.5750
 IR Inten    --     63.9189                 3.9334                34.2431

                     22                     23                     24
                      A                      A                      A
 Frequencies --    814.1850               876.1893               912.6518
 Red. masses --      4.4044                 1.4436                 1.3162
 Frc consts  --      1.7202                 0.6530                 0.6459
 IR Inten    --     12.0100                24.6255                 0.2123

                     25                     26                     27
                      A                      A                      A
 Frequencies --    997.3187              1001.1499              1018.3008
 Red. masses --      1.3753                 6.5063                 1.3296
 Frc consts  --      0.8060                 3.8422                 0.8123
 IR Inten    --      1.1244                55.4981                 0.2776

                     28                     29                     30
                      A                      A                      A
 Frequencies --   1053.4206              1095.4850              1132.1642
 Red. masses --      2.2741                 2.9925                 1.8064
 Frc consts  --      1.4868                 2.1159                 1.3642
 IR Inten    --      0.4090                 4.1956                 8.4037

                     31                     32                     33
                      A                      A                      A
 Frequencies --   1184.4937              1224.1025              1240.5237
 Red. masses --      1.1300                 1.5639                 2.0695
 Frc consts  --      0.9341                 1.3807                 1.8764
 IR Inten    --      5.4643                 9.3225               165.2270

                     34                     35                     36
                      A                      A                      A
 Frequencies --   1261.7389              1307.2325              1321.1646
 Red. masses --      2.7402                 1.9605                 5.2417
 Frc consts  --      2.5702                 1.9739                 5.3906
 IR Inten    --    101.3908                69.3564               222.9687

                     37                     38                     39
                      A                      A                      A
 Frequencies --   1364.5852              1427.9664              1485.6673
 Red. masses --      6.8976                 2.0996                 2.4377
 Frc consts  --      7.5674                 2.5225                 3.1701
 IR Inten    --     48.7561               304.8461                 7.4411

                     40                     41                     42
                      A                      A                      A
 Frequencies --   1505.0812              1611.7826              1628.2383
 Red. masses --      2.6520                 6.4750                 5.8968
 Frc consts  --      3.5395                 9.9107                 9.2110
 IR Inten    --      0.9530                 4.7507                81.1829

                     43                     44                     45
                      A                      A                      A
 Frequencies --   1698.1261              1708.2612              1714.3940
 Red. masses --      6.9445                11.3144                12.1067
 Frc consts  --     11.7986                19.4532                20.9651
 IR Inten    --    133.9071                50.0098               421.2239

                     46                     47                     48
                      A                      A                      A
 Frequencies --   3172.6698              3186.4110              3199.2945
 Red. masses --      1.0871                 1.0913                 1.0930
 Frc consts  --      6.4472                 6.5282                 6.5915
 IR Inten    --      2.9409                 6.4751                 0.5508

                     49                     50                     51
                      A                      A                      A
 Frequencies --   3200.0357              3202.4008              3616.6874
 Red. masses --      1.0925                 1.0954                 1.0642
 Frc consts  --      6.5912                 6.6186                 8.2019
 IR Inten    --      1.1101                 8.0016               130.6433

 - Thermochemistry -
 -------------------
 Temperature   298.150 Kelvin.  Pressure   1.00000 Atm.
 Atom     1 has atomic number  8 and mass  15.99491

 Molecular mass:   174.03169 amu.
 Principal axes and moments of inertia in atomic units:
                           1         2         3
     Eigenvalues --  1395.726862317.652243713.37910
           X            0.95040  -0.30809   0.04267
           Y            0.31081   0.94591  -0.09297
           Z           -0.01172   0.10162   0.99475
 This molecule is an asymmetric top.
 Rotational symmetry number  1.
 Warning -- assumption of classical behavior for rotation
           may cause significant error
 Rotational temperatures (Kelvin)      0.06206     0.03737     0.02332
 Rotational constants (GHZ):           1.29305     0.77869     0.48601
 Zero-point vibrational energy     359178.9 (Joules/Mol)
                                   85.84583 (Kcal/Mol)
 Warning -- explicit consideration of  13 degrees of freedom as
           vibrations may cause significant error
 Vibrational temperatures:    103.41   173.68   224.58   292.09   371.75
          (Kelvin)            477.01   549.51   561.25   583.60   633.29
                              665.02   692.68   756.36   914.09   953.31
                              980.38   986.58  1040.05  1050.65  1069.86
                             1147.93  1171.43  1260.64  1313.10  1434.92
                             1440.43  1465.11  1515.64  1576.16  1628.93
                             1704.22  1761.21  1784.84  1815.36  1880.82
                             1900.86  1963.33  2054.53  2137.54  2165.48
                             2319.00  2342.67  2443.22  2457.81  2466.63
                             4564.76  4584.53  4603.07  4604.14  4607.54
                             5203.61

 Zero-point correction=                           0.136804 (Hartree/Particle)
 Thermal correction to Energy=                    0.146467
 Thermal correction to Enthalpy=                  0.147411
 Thermal correction to Gibbs Free Energy=         0.101527
 Sum of electronic and zero-point Energies=           -610.381888
 Sum of electronic and thermal Energies=              -610.372225
 Sum of electronic and thermal Enthalpies=            -610.371281
 Sum of electronic and thermal Free Energies=         -610.417165

                     E (Thermal)             CV                S
                      KCal/Mol        Cal/Mol-Kelvin    Cal/Mol-Kelvin
 Total                   91.909             38.382             96.572
 Electronic               0.000              0.000              0.000
 Translational            0.889              2.981             41.370
 Rotational               0.889              2.981             30.864
 Vibrational             90.132             32.420             24.339
 Vibration     1          0.598              1.967              4.101
 Vibration     2          0.609              1.932              3.089
 Vibration     3          0.620              1.896              2.597
 Vibration     4          0.639              1.836              2.106
 Vibration     5          0.667              1.749              1.673
 Vibration     6          0.714              1.613              1.253
 Vibration     7          0.751              1.509              1.032
 Vibration     8          0.758              1.491              1.000
 Vibration     9          0.771              1.458              0.942
 Vibration    10          0.800              1.383              0.826
 Vibration    11          0.820              1.334              0.760
 Vibration    12          0.838              1.291              0.706
 Vibration    13          0.881              1.193              0.597

 Optimization completed.
    -- Stationary point found.
 Normal termination of Gaussian 16 at Mon Jan  8 01:44:21 2024.
