 Gaussian 16, Revision A.03,
 Gaussian 16:  ES64L-G16RevA.03 25-Dec-2016

 --------------------------------------
 #P UB3LYP/6-311++G(d,p) nosym opt freq
 --------------------------------------

 -------
 Radical
 -------
 Symbolic Z-matrix:
 Charge = -1 Multiplicity = 2

 SCF Done:  E(UB3LYP) =  -669.318635032     A.U. after   23 cycles
 SCF Done:  E(UB3LYP) =  -669.330187531     A.U. after   18 cycles
 SCF Done:  E(UB3LYP) =  -669.331019498     A.U. after   17 cycles
 SCF Done:  E(UB3LYP) =  -669.331155460     A.U. after   16 cycles
 SCF Done:  E(UB3LYP) =  -669.331162784     A.U. after   12 cycles
 SCF Done:  E(UB3LYP) =  -669.331163522     A.U. after   12 cycles
 Optimization completed.
    -- Stationary point found.
 Normal termination of Gaussian 16 at Sat Jan  6 02:02:37 2024.

 ----------------------------------------------------------------------
 #P Geom=AllCheck Guess=TCheck SCRF=Check GenChk UB3LYP/6-311++G(d,p) F
 req
 ----------------------------------------------------------------------

 Structure from the checkpoint file:  "324-rad.chk"
 -------
 Radical
 -------
 Charge = -1 Multiplicity = 2

                          Input orientation:
 ---------------------------------------------------------------------
 Center     Atomic      Atomic             Coordinates (Angstroms)
 Number     Number       Type             X           Y           Z
 ---------------------------------------------------------------------
      1          6           0       -1.780787    2.762244   -0.724506
      2          6           0       -2.881324    1.953418   -0.515249
      3          6           0       -2.695970    0.599606   -0.170613
      4          6           0       -0.460347    2.277031   -0.604376
      5          6           0       -0.268987    0.899050   -0.253265
      6          6           0       -1.411372    0.095592   -0.045494
      7          6           0        0.653091    3.202987   -0.843965
      8          6           0        2.034813    2.648611   -0.706793
      9          6           0        2.149056    1.249884   -0.349821
     10          6           0        1.086279    0.402038   -0.129890
     11          8           0        0.448043    4.400616   -1.148851
     12          8           0        3.052049    3.352723   -0.889685
     13          1           0       -1.890963    3.807434   -0.990828
     14          1           0       -3.884654    2.357089   -0.615537
     15          1           0       -3.550895   -0.048318   -0.003325
     16          1           0       -1.308167   -0.952630    0.221057
     17          1           0        3.168333    0.889957   -0.260744
     18          7           0        1.285480   -0.934386    0.211510
     19          6           0        2.582403   -1.545513    0.363962
     20          6           0        2.448318   -3.018131    0.743294
     21          1           0        0.480631   -1.512964    0.364470
     22          1           0        3.166530   -1.019932    1.134409
     23          1           0        3.160160   -1.457872   -0.568529
     24          1           0        1.911912   -3.133308    1.690844
     25          1           0        3.434368   -3.476162    0.857481
     26          1           0        1.905510   -3.575385   -0.027208
 ---------------------------------------------------------------------

 SCF Done:  E(UB3LYP) =  -669.331163522     A.U. after    2 cycles

 Alpha  occ. eigenvalues --  -18.92590 -18.91861 -14.21441 -10.11302 -10.09189
 Alpha  occ. eigenvalues --  -10.08746 -10.06948 -10.06763 -10.05866 -10.05503
 Alpha  occ. eigenvalues --  -10.05409 -10.04960 -10.04134 -10.03878 -10.01774
 Alpha  occ. eigenvalues --   -0.85900  -0.83179  -0.82858  -0.73406  -0.68622
 Alpha  occ. eigenvalues --   -0.65009  -0.62652  -0.59923  -0.55562  -0.52997
 Alpha  occ. eigenvalues --   -0.48894  -0.47395  -0.44456  -0.40922  -0.38306
 Alpha  occ. eigenvalues --   -0.37977  -0.37296  -0.34667  -0.32960  -0.30924
 Alpha  occ. eigenvalues --   -0.30496  -0.29831  -0.29625  -0.28864  -0.27579
 Alpha  occ. eigenvalues --   -0.27353  -0.25564  -0.24492  -0.23518  -0.22232
 Alpha  occ. eigenvalues --   -0.21659  -0.21164  -0.18619  -0.13313  -0.13087
 Alpha  occ. eigenvalues --   -0.10324  -0.08126  -0.06958  -0.00339
 Alpha virt. eigenvalues --    0.05970   0.07853   0.08939   0.08956   0.09767
 Alpha virt. eigenvalues --    0.09905   0.10752   0.12166   0.12190   0.13133
 Alpha virt. eigenvalues --    0.13462   0.13804   0.15371   0.15731   0.16277

  Beta  occ. eigenvalues --  -18.91871 -18.91361 -14.21342 -10.11310 -10.09188
  Beta  occ. eigenvalues --  -10.08580 -10.06873 -10.06627 -10.05903 -10.05356
  Beta  occ. eigenvalues --  -10.05314 -10.04910 -10.04131 -10.03759 -10.01814
  Beta  occ. eigenvalues --   -0.84859  -0.82678  -0.82042  -0.73164  -0.68460
  Beta  occ. eigenvalues --   -0.64723  -0.62468  -0.59736  -0.55257  -0.52489
  Beta  occ. eigenvalues --   -0.48775  -0.47085  -0.44179  -0.40751  -0.38225
  Beta  occ. eigenvalues --   -0.37905  -0.37105  -0.34459  -0.32820  -0.30830
  Beta  occ. eigenvalues --   -0.30355  -0.29757  -0.29329  -0.28791  -0.27348
  Beta  occ. eigenvalues --   -0.26355  -0.25077  -0.24202  -0.22109  -0.21987
  Beta  occ. eigenvalues --   -0.20941  -0.20590  -0.16376  -0.12710  -0.11500
  Beta  occ. eigenvalues --   -0.09700  -0.07082  -0.06406
  Beta virt. eigenvalues --    0.05963   0.05990   0.07841   0.08930   0.09234
  Beta virt. eigenvalues --    0.09900   0.10038   0.10743   0.12157   0.12902
  Beta virt. eigenvalues --    0.13462   0.13796   0.14012   0.15380   0.15770

 Mulliken charges and spin densities:
               1          2
     1  C    0.091037   0.038426
     2  C   -0.380472   0.033048
     3  C   -0.599126   0.083011
     4  C    0.518330   0.093752
     5  C    0.632706   0.068933
     6  C   -0.356376  -0.012965
     7  C   -0.693251   0.067915
     8  C   -0.178623   0.103449
     9  C    0.279669  -0.042035
    10  C   -0.366990   0.077077
    11  O   -0.375866   0.272970
    12  O   -0.398684   0.183382
    13  H    0.158982  -0.003282
    14  H    0.115588  -0.003424
    15  H    0.121468  -0.006543
    16  H   -0.016298   0.003082
    17  H    0.164770   0.000439
    18  N   -0.041206   0.038533
    19  C    0.080266  -0.002725
    20  C   -0.817122  -0.000102
    21  H    0.370745  -0.001933
    22  H    0.138563   0.004193
    23  H    0.138980   0.004198
    24  H    0.139228   0.000390
    25  H    0.134367  -0.000178
    26  H    0.139315   0.000389
 Sum of Mulliken charges =  -1.00000   1.00000

 Dipole moment (field-independent basis, Debye):
    X=             -5.3005    Y=            -16.7250    Z=              4.4063  Tot=             18.0897
 Quadrupole moment (field-independent basis, Debye-Ang):
   XX=           -116.9567   YY=           -154.8844   ZZ=           -100.0633
   XY=            -25.1972   XZ=              6.6285   YZ=             15.5154

  Exact polarizability: 249.207   3.469 216.002  -1.303 -30.020 106.224
 Approx polarizability: 403.191  42.684 341.039 -11.610 -48.206 165.033

 ******    1 imaginary frequencies (negative Signs) ******

                      1                      2                      3
                      A                      A                      A
 Frequencies --   -457.2088                40.8676                63.5888
 Red. masses --      1.2284                 3.7918                 5.5874
 Frc consts  --      0.1513                 0.0037                 0.0133
 IR Inten    --     47.0176                 0.0820                 0.0381

                      4                      5                      6
                      A                      A                      A
 Frequencies --     87.7263               114.5104               120.9340
 Red. masses --      1.7795                 3.9844                 3.6929
 Frc consts  --      0.0081                 0.0308                 0.0318
 IR Inten    --      0.0010                 0.4341                 0.9551

                      7                      8                      9
                      A                      A                      A
 Frequencies --    174.4114               213.7630               253.1430
 Red. masses --      6.0016                 4.6504                 1.1390
 Frc consts  --      0.1076                 0.1252                 0.0430
 IR Inten    --      0.8576                 0.3760                 0.0189

                     10                     11                     12
                      A                      A                      A
 Frequencies --    265.3992               318.6760               361.4809
 Red. masses --      5.3778                 3.9526                14.2950
 Frc consts  --      0.2232                 0.2365                 1.1005
 IR Inten    --      3.2855                 0.5761                 0.2137

                     13                     14                     15
                      A                      A                      A
 Frequencies --    364.8031               397.8763               429.3186
 Red. masses --      4.8377                 4.5520                 7.8486
 Frc consts  --      0.3793                 0.4246                 0.8523
 IR Inten    --      1.6515                 0.0104                 7.5152

                     16                     17                     18
                      A                      A                      A
 Frequencies --    435.3475               472.6486               520.6993
 Red. masses --      3.8893                 7.5906                 3.8689
 Frc consts  --      0.4343                 0.9991                 0.6180
 IR Inten    --      4.8912                 0.6697                12.0841

                     19                     20                     21
                      A                      A                      A
 Frequencies --    596.9768               617.2179               634.6287
 Red. masses --      6.3018                 3.8495                 5.1278
 Frc consts  --      1.3232                 0.8640                 1.2168
 IR Inten    --      3.4869                 3.7651                 0.6878

                     22                     23                     24
                      A                      A                      A
 Frequencies --    691.3191               700.3033               718.8388
 Red. masses --      6.4467                 2.3721                 6.5863
 Frc consts  --      1.8153                 0.6854                 2.0052
 IR Inten    --      7.3488                28.9786                14.0703

                     25                     26                     27
                      A                      A                      A
 Frequencies --    734.4766               763.0856               813.2655
 Red. masses --      2.1468                 4.0573                 1.3013
 Frc consts  --      0.6823                 1.3920                 0.5071
 IR Inten    --     36.0771                 0.0100                17.5929

                     28                     29                     30
                      A                      A                      A
 Frequencies --    823.6452               837.7090               850.5424
 Red. masses --      1.3884                 1.2909                 3.9949
 Frc consts  --      0.5549                 0.5337                 1.7027
 IR Inten    --      1.0933                13.5262                 5.6651

                     31                     32                     33
                      A                      A                      A
 Frequencies --    896.3414               922.2974               980.1180
 Red. masses --      1.2981                 1.9727                 1.2889
 Frc consts  --      0.6145                 0.9887                 0.7295
 IR Inten    --      0.6783                 0.4940                 1.5371

                     34                     35                     36
                      A                      A                      A
 Frequencies --    983.5195              1044.1090              1054.9304
 Red. masses --      6.1555                 2.6568                 2.5957
 Frc consts  --      3.5082                 1.7065                 1.7020
 IR Inten    --      4.6107                19.5240                21.8616

                     37                     38                     39
                      A                      A                      A
 Frequencies --   1093.7149              1134.2010              1166.7327
 Red. masses --      2.3562                 1.6282                 1.5010
 Frc consts  --      1.6607                 1.2341                 1.2039
 IR Inten    --     24.0477                 9.0128                 0.3369

                     40                     41                     42
                      A                      A                      A
 Frequencies --   1173.5181              1204.3739              1225.6494
 Red. masses --      1.2945                 2.8872                 3.4161
 Frc consts  --      1.0503                 2.4674                 3.0236
 IR Inten    --      2.1834                27.2999                 3.5470

                     43                     44                     45
                      A                      A                      A
 Frequencies --   1240.2450              1266.3484              1280.7695
 Red. masses --      2.4515                 2.3941                 1.9864
 Frc consts  --      2.2218                 2.2620                 1.9198
 IR Inten    --     17.5417               123.6455                45.5429

                     46                     47                     48
                      A                      A                      A
 Frequencies --   1287.3048              1345.5450              1355.8556
 Red. masses --      1.1027                 2.5531                 2.6591
 Frc consts  --      1.0767                 2.7234                 2.8801
 IR Inten    --      0.0235                61.0954                41.2971

                     49                     50                     51
                      A                      A                      A
 Frequencies --   1399.5244              1418.2408              1444.9340
 Red. masses --      1.3765                 1.7350                 2.3724
 Frc consts  --      1.5885                 2.0561                 2.9184
 IR Inten    --     21.0694                 0.3373                53.0187

                     52                     53                     54
                      A                      A                      A
 Frequencies --   1474.2966              1490.3123              1501.4860
 Red. masses --      2.8774                 1.0398                 1.3819
 Frc consts  --      3.6849                 1.3606                 1.8355
 IR Inten    --     30.3489                 6.5694               167.2758

                     55                     56                     57
                      A                      A                      A
 Frequencies --   1508.6199              1531.4415              1540.3171
 Red. masses --      1.9370                 1.2615                 2.2310
 Frc consts  --      2.5974                 1.7431                 3.1187
 IR Inten    --    142.3468               143.5967               185.3759

                     58                     59                     60
                      A                      A                      A
 Frequencies --   1553.8407              1581.9791              1599.5452
 Red. masses --      3.6504                 8.0818                 4.8871
 Frc consts  --      5.1928                11.9167                 7.3671
 IR Inten    --    238.3857               189.6680               240.8530

                     61                     62                     63
                      A                      A                      A
 Frequencies --   1616.4701              2956.0949              2962.7509
 Red. masses --      5.9676                 1.0561                 1.1050
 Frc consts  --      9.1872                 5.4374                 5.7147
 IR Inten    --    101.3926                84.2409                48.0954

                     64                     65                     66
                      A                      A                      A
 Frequencies --   3014.6123              3072.6243              3086.4542
 Red. masses --      1.0355                 1.1023                 1.0999
 Frc consts  --      5.5444                 6.1313                 6.1736
 IR Inten    --     41.2841                46.5534                45.3726

                     67                     68                     69
                      A                      A                      A
 Frequencies --   3124.5751              3138.0736              3159.0363
 Red. masses --      1.0830                 1.0876                 1.0943
 Frc consts  --      6.2296                 6.3102                 6.4340
 IR Inten    --      8.2965                51.6300                58.5803

                     70                     71                     72
                      A                      A                      A
 Frequencies --   3164.9097              3180.6992              3685.9255
 Red. masses --      1.0878                 1.0919                 1.0762
 Frc consts  --      6.4199                 6.5087                 8.6146
 IR Inten    --     33.2824                17.5721                13.3598

 - Thermochemistry -
 -------------------
 Temperature   298.150 Kelvin.  Pressure   1.00000 Atm.
 Atom     1 has atomic number  6 and mass  12.00000

 Molecular mass:   201.07898 amu.
 Principal axes and moments of inertia in atomic units:
                           1         2         3
     Eigenvalues --  2301.932723610.239655889.71710
           X           -0.51610   0.85653   0.00257
           Y            0.83016   0.49947   0.24770
           Z           -0.21088  -0.12997   0.96883
 This molecule is an asymmetric top.
 Rotational symmetry number  1.
 Warning -- assumption of classical behavior for rotation
           may cause significant error
 Rotational temperatures (Kelvin)      0.03763     0.02399     0.01471
 Rotational constants (GHZ):           0.78401     0.49990     0.30642
    1 imaginary frequencies ignored.
 Zero-point vibrational energy     528028.9 (Joules/Mol)
                                  126.20194 (Kcal/Mol)
 Warning -- explicit consideration of  19 degrees of freedom as
           vibrations may cause significant error
 Vibrational temperatures:     58.80    91.49   126.22   164.75   174.00
          (Kelvin)            250.94   307.56   364.22   381.85   458.50
                              520.09   524.87   572.46   617.69   626.37
                              680.04   749.17   858.92   888.04   913.09
                              994.65  1007.58  1034.25  1056.75  1097.91
                             1170.11  1185.04  1205.28  1223.74  1289.64
                             1326.98  1410.17  1415.07  1502.24  1517.81
                             1573.61  1631.86  1678.67  1688.43  1732.83
                             1763.44  1784.44  1821.99  1842.74  1852.14
                             1935.94  1950.77  2013.60  2040.53  2078.94
                             2121.18  2144.23  2160.30  2170.57  2203.40
                             2216.17  2235.63  2276.12  2301.39  2325.74
                             4253.16  4262.74  4337.35  4420.82  4440.72
                             4495.57  4514.99  4545.15  4553.60  4576.32
                             5303.22

 Zero-point correction=                           0.201116 (Hartree/Particle)
 Thermal correction to Energy=                    0.214024
 Thermal correction to Enthalpy=                  0.214969
 Thermal correction to Gibbs Free Energy=         0.160370
 Sum of electronic and zero-point Energies=           -669.130048
 Sum of electronic and thermal Energies=              -669.117139
 Sum of electronic and thermal Enthalpies=            -669.116195
 Sum of electronic and thermal Free Energies=         -669.170794

                     E (Thermal)             CV                S
                      KCal/Mol        Cal/Mol-Kelvin    Cal/Mol-Kelvin
 Total                  134.302             49.460            114.913
 Electronic               0.000              0.000              1.377
 Translational            0.889              2.981             41.800
 Rotational               0.889              2.981             32.259
 Vibrational            132.525             43.499             39.476
 Vibration     1          0.594              1.981              5.217
 Vibration     2          0.597              1.972              4.343
 Vibration     3          0.601              1.958              3.710
 Vibration     4          0.607              1.937              3.191
 Vibration     5          0.609              1.932              3.085
 Vibration     6          0.627              1.874              2.387
 Vibration     7          0.644              1.820              2.011
 Vibration     8          0.664              1.757              1.709
 Vibration     9          0.671              1.736              1.626
 Vibration    10          0.705              1.638              1.317
 Vibration    11          0.736              1.552              1.116
 Vibration    12          0.738              1.545              1.102
 Vibration    13          0.764              1.475              0.970
 Vibration    14          0.791              1.406              0.861
 Vibration    15          0.796              1.393              0.841
 Vibration    16          0.830              1.311              0.730
 Vibration    17          0.876              1.204              0.608
 Vibration    18          0.955              1.038              0.455
 Vibration    19          0.977              0.995              0.421

                           ! Non-Optimized Parameters !
 Normal termination of Gaussian 16 at Sat Jan  6 02:37:41 2024.
