 Gaussian 16, Revision A.03,
 Gaussian 16:  ES64L-G16RevA.03 25-Dec-2016

 ----------------------------------------------------------------
 #P UB3LYP/6-311++G(d,p) SCRF=(PCM,Solvent=n,n-DiMethylFormamide)
 ----------------------------------------------------------------

 ------------------
 Radical PCM in DMF
 ------------------
 Symbolic Z-matrix:
 Charge = -1 Multiplicity = 2

                         Standard orientation:
 ---------------------------------------------------------------------
 Center     Atomic      Atomic             Coordinates (Angstroms)
 Number     Number       Type             X           Y           Z
 ---------------------------------------------------------------------
      1          7           0        2.205096    2.811450    0.154659
      2          6           0        2.163908    1.422531    0.040623
      3          6           0        3.355986    0.709508   -0.012290
      4          6           0        3.356682   -0.688184   -0.055453
      5          6           0        2.173444   -1.408313   -0.029271
      6          8           0        2.230992   -2.785756   -0.057833
      7          6           0        0.919966   -0.738639    0.015716
      8          6           0       -0.335957   -1.502260    0.039096
      9          8           0       -0.387144   -2.750435    0.072487
     10          6           0       -1.581904   -0.720596    0.019908
     11          6           0       -2.815817   -1.404663    0.026549
     12          6           0       -4.013776   -0.717716   -0.000134
     13          6           0       -4.012422    0.693820   -0.034139
     14          6           0       -2.815661    1.381281   -0.040609
     15          6           0       -1.580195    0.694210   -0.012511
     16          6           0       -0.337435    1.457448   -0.013178
     17          8           0       -0.391475    2.728478   -0.060090
     18          6           0        0.915274    0.710843    0.027109
     19          1           0        3.006431    3.248317   -0.275625
     20          1           0        1.293507    3.240115   -0.022111
     21          1           0        4.298262    1.250095    0.001069
     22          1           0        4.303418   -1.223825   -0.097425
     23          1           0        3.164126   -3.022004   -0.090575
     24          1           0       -2.781957   -2.487567    0.051640
     25          1           0       -4.954688   -1.260288    0.004899
     26          1           0       -4.952813    1.237177   -0.054355
     27          1           0       -2.783490    2.463911   -0.065124
 ---------------------------------------------------------------------

 SCF Done:  E(UB3LYP) =  -819.712989401     A.U. after   19 cycles

 The electronic state is 2-A.
 Alpha  occ. eigenvalues --  -19.14521 -19.07405 -19.06851 -14.29824 -10.22832
 Alpha  occ. eigenvalues --  -10.22398 -10.22380 -10.20933 -10.17577 -10.17510
 Alpha  occ. eigenvalues --  -10.17154 -10.17102 -10.16957 -10.16955 -10.16864
 Alpha  occ. eigenvalues --  -10.16782 -10.16752 -10.16485  -1.05652  -1.00131
 Alpha  occ. eigenvalues --   -0.99874  -0.90658  -0.85633  -0.83273  -0.78178
 Alpha  occ. eigenvalues --   -0.74827  -0.73954  -0.72379  -0.66424  -0.63822
 Alpha  occ. eigenvalues --   -0.62569  -0.58760  -0.56369  -0.54761  -0.53801
 Alpha  occ. eigenvalues --   -0.50686  -0.49116  -0.47247  -0.46344  -0.45259
 Alpha  occ. eigenvalues --   -0.44416  -0.43081  -0.42702  -0.42109  -0.40747
 Alpha  occ. eigenvalues --   -0.40489  -0.39692  -0.38492  -0.37979  -0.37784
 Alpha  occ. eigenvalues --   -0.36364  -0.35561  -0.34664  -0.34240  -0.33530
 Alpha  occ. eigenvalues --   -0.28887  -0.26478  -0.25440  -0.24793  -0.24268
 Alpha  occ. eigenvalues --   -0.22964  -0.20229  -0.13428
 Alpha virt. eigenvalues --   -0.04525  -0.02239  -0.00304   0.00320   0.00746
 Alpha virt. eigenvalues --    0.00953   0.02058   0.02115   0.03522   0.04364
 Alpha virt. eigenvalues --    0.04495   0.04727   0.05156   0.05895   0.06322

  Beta  occ. eigenvalues --  -19.14491 -19.06903 -19.06338 -14.29779 -10.22806
  Beta  occ. eigenvalues --  -10.22263 -10.22173 -10.20908 -10.17528 -10.17490
  Beta  occ. eigenvalues --  -10.17118 -10.17053 -10.16896 -10.16856 -10.16795
  Beta  occ. eigenvalues --  -10.16770 -10.16746 -10.16368  -1.05580  -0.99260
  Beta  occ. eigenvalues --   -0.98981  -0.90519  -0.85422  -0.83101  -0.77783
  Beta  occ. eigenvalues --   -0.74628  -0.73768  -0.72137  -0.65752  -0.63646
  Beta  occ. eigenvalues --   -0.62304  -0.58683  -0.56175  -0.54544  -0.53676
  Beta  occ. eigenvalues --   -0.50592  -0.49002  -0.46936  -0.46222  -0.45136
  Beta  occ. eigenvalues --   -0.44304  -0.42874  -0.42065  -0.41956  -0.40553
  Beta  occ. eigenvalues --   -0.40025  -0.38935  -0.38201  -0.37734  -0.36753
  Beta  occ. eigenvalues --   -0.36253  -0.34542  -0.34431  -0.33436  -0.33099
  Beta  occ. eigenvalues --   -0.28267  -0.24820  -0.24619  -0.24290  -0.23818
  Beta  occ. eigenvalues --   -0.22496  -0.19256
  Beta virt. eigenvalues --   -0.07952  -0.03555  -0.01171  -0.00289   0.00324
  Beta virt. eigenvalues --    0.00771   0.01340   0.02064   0.02130   0.03545
  Beta virt. eigenvalues --    0.04382   0.04516   0.04804   0.05864   0.06193

 Mulliken charges and spin densities:
               1          2
     1  N   -0.430963   0.019361
     2  C    0.054963   0.037920
     3  C   -0.211355   0.097514
     4  C   -0.305172   0.072134
     5  C   -0.255969   0.034538
     6  O   -0.250222   0.007229
     7  C    0.443874   0.027999
     8  C   -0.347652   0.066670
     9  O   -0.451560   0.191984
    10  C   -0.073260   0.038218
    11  C    0.124030   0.018541
    12  C   -0.504719   0.043041
    13  C   -0.528294   0.024690
    14  C    0.188622   0.041995
    15  C    0.079958   0.018514
    16  C   -0.374660   0.114506
    17  O   -0.459597   0.183084
    18  C    0.431730  -0.011990
    19  H    0.255358  -0.000867
    20  H    0.309247  -0.003141
    21  H    0.176819  -0.006897
    22  H    0.160632  -0.006497
    23  H    0.287095  -0.000738
    24  H    0.158032  -0.000743
    25  H    0.178661  -0.003395
    26  H    0.178235  -0.002201
    27  H    0.166166  -0.001469
 Sum of Mulliken charges =  -1.00000   1.00000

 Dipole moment (field-independent basis, Debye):
    X=              3.6387    Y=              1.4939    Z=             -1.1823  Tot=              4.1073
 Quadrupole moment (field-independent basis, Debye-Ang):
   XX=            -92.3103   YY=           -138.1779   ZZ=           -112.6613
   XY=             -2.0599   XZ=             -3.2310   YZ=             -2.6332

 Normal termination of Gaussian 16 at Sun Jan 14 01:21:39 2024.
