 Q-Chem 5.4, Q-Chem, Inc., Pleasanton, CA (2021)
 Q-Chem 5.4.0 for Intel X86 EM64T Linux

User input:
--------------------------------------------------------------
$molecule
-1 2
O                 -0.3447460000      2.1699070000      0.2951340000
C                 -0.5352630000      0.9363600000      0.1055220000
C                  0.5484600000      0.0220340000     -0.1734980000
C                  0.3221030000     -1.3343660000     -0.3708980000
O                  1.3596500000     -2.2000110000     -0.6227200000
C                 -0.9903460000     -1.9472280000     -0.3528040000
O                 -1.1666260000     -3.1770810000     -0.5515020000
C                 -2.1017670000     -1.0276230000     -0.0826590000
C                 -3.4191290000     -1.5297680000     -0.0381230000
C                 -4.4921790000     -0.6969120000      0.2214180000
C                 -4.2789000000      0.6779460000      0.4466000000
C                 -2.9934620000      1.1893420000      0.4068750000
C                 -1.8875680000      0.3580100000      0.1453570000
C                  1.9400800000      0.6197190000     -0.2855980000
H                 -3.5545780000     -2.5908010000     -0.2145280000
H                 -5.4998790000     -1.1016890000      0.2519710000
H                 -5.1211320000      1.3329640000      0.6499580000
H                 -2.7966830000      2.2421530000      0.5747370000
C                  2.9267900000      0.0856680000      0.7223140000
C                  4.1778710000     -0.3640110000      0.5309280000
C                  4.8811080000     -0.4126780000     -0.8041830000
C                  5.0112750000     -0.8554150000      1.6910090000
H                  2.1809640000     -1.7747030000     -0.3457260000
H                  1.8055390000      1.6940480000     -0.1149880000
H                  2.3213260000      0.5035210000     -1.3070700000
H                  2.5454300000      0.0709000000      1.7426800000
H                  4.2422140000     -0.1101690000     -1.6334860000
H                  5.2527960000     -1.4238150000     -1.0125290000
H                  5.7584460000      0.2470870000     -0.7997590000
H                  4.4622610000     -0.7983860000      2.6332640000
H                  5.9309650000     -0.2646370000      1.7952870000
H                  5.3239720000     -1.8968210000      1.5413920000
$end

$rem
BASIS  =  6-311++G(d,p)
GUI  =  2
JOB_TYPE  =  SP
METHOD  =  B3LYP
SCF_CONVERGENCE  = 8
SOLVENT_METHOD = sm12
$end

$smx
solvent dimethylformamide
charges CM5
$end

--------------------------------------------------------------

             Standard Nuclear Orientation (Angstroms)
    I     Atom           X                Y                Z
 ----------------------------------------------------------------
    1      O      -0.3447460000     2.1699070000     0.2951340000
    2      C      -0.5352630000     0.9363600000     0.1055220000
    3      C       0.5484600000     0.0220340000    -0.1734980000
    4      C       0.3221030000    -1.3343660000    -0.3708980000
    5      O       1.3596500000    -2.2000110000    -0.6227200000
    6      C      -0.9903460000    -1.9472280000    -0.3528040000
    7      O      -1.1666260000    -3.1770810000    -0.5515020000
    8      C      -2.1017670000    -1.0276230000    -0.0826590000
    9      C      -3.4191290000    -1.5297680000    -0.0381230000
   10      C      -4.4921790000    -0.6969120000     0.2214180000
   11      C      -4.2789000000     0.6779460000     0.4466000000
   12      C      -2.9934620000     1.1893420000     0.4068750000
   13      C      -1.8875680000     0.3580100000     0.1453570000
   14      C       1.9400800000     0.6197190000    -0.2855980000
   15      H      -3.5545780000    -2.5908010000    -0.2145280000
   16      H      -5.4998790000    -1.1016890000     0.2519710000
   17      H      -5.1211320000     1.3329640000     0.6499580000
   18      H      -2.7966830000     2.2421530000     0.5747370000
   19      C       2.9267900000     0.0856680000     0.7223140000
   20      C       4.1778710000    -0.3640110000     0.5309280000
   21      C       4.8811080000    -0.4126780000    -0.8041830000
   22      C       5.0112750000    -0.8554150000     1.6910090000
   23      H       2.1809640000    -1.7747030000    -0.3457260000
   24      H       1.8055390000     1.6940480000    -0.1149880000
   25      H       2.3213260000     0.5035210000    -1.3070700000
   26      H       2.5454300000     0.0709000000     1.7426800000
   27      H       4.2422140000    -0.1101690000    -1.6334860000
   28      H       5.2527960000    -1.4238150000    -1.0125290000
   29      H       5.7584460000     0.2470870000    -0.7997590000
   30      H       4.4622610000    -0.7983860000     2.6332640000
   31      H       5.9309650000    -0.2646370000     1.7952870000
   32      H       5.3239720000    -1.8968210000     1.5413920000
 ----------------------------------------------------------------

   17    -805.9693201460      5.24e-09  Convergence criterion met
 Total energy in the final basis set =     -806.0617112924

                    Orbital Energies (a.u.)
 --------------------------------------------------------------

 Alpha MOs
 -- Occupied --
-19.1459 -19.0732 -19.0719 -10.2263 -10.2223 -10.2191 -10.1850 -10.1816
-10.1805 -10.1779 -10.1774 -10.1771 -10.1766 -10.1736 -10.1710 -10.1682
-10.1668 -10.1648  -1.0576  -0.9965  -0.9939  -0.8626  -0.8268  -0.8053
 -0.7643  -0.7560  -0.7234  -0.6959  -0.6796  -0.6481  -0.6215  -0.6025
 -0.5630  -0.5485  -0.5239  -0.5176  -0.4870  -0.4690  -0.4628  -0.4418
 -0.4376  -0.4358  -0.4306  -0.4255  -0.4192  -0.4071  -0.3982  -0.3879
 -0.3864  -0.3863  -0.3751  -0.3725  -0.3686  -0.3605  -0.3503  -0.3443
 -0.3391  -0.3369  -0.2685  -0.2627  -0.2535  -0.2426  -0.2353  -0.2297
 -0.1490

 Beta MOs
 -- Occupied --
-19.1452 -19.0662 -19.0660 -10.2247 -10.2211 -10.2175 -10.1850 -10.1813
-10.1799 -10.1776 -10.1774 -10.1769 -10.1757 -10.1736 -10.1710 -10.1677
-10.1668 -10.1648  -1.0557  -0.9866  -0.9816  -0.8605  -0.8262  -0.8018
 -0.7625  -0.7542  -0.7213  -0.6959  -0.6730  -0.6458  -0.6195  -0.6012
 -0.5603  -0.5464  -0.5235  -0.5158  -0.4857  -0.4664  -0.4619  -0.4405
 -0.4371  -0.4333  -0.4301  -0.4187  -0.4145  -0.4008  -0.3951  -0.3865
 -0.3857  -0.3795  -0.3742  -0.3717  -0.3610  -0.3496  -0.3489  -0.3401
 -0.3346  -0.3259  -0.2558  -0.2523  -0.2482  -0.2366  -0.2273  -0.2213

          Ground-State Mulliken Net Atomic Charges

     Atom                 Charge (a.u.)    Spin (a.u.)
  --------------------------------------------------------
      1 O                    -0.261805       0.212176
      2 C                    -2.429154       0.059197
      3 C                     1.504300       0.052774
      4 C                    -0.790035       0.129793
      5 O                    -0.139871       0.016759
      6 C                    -1.760082       0.080475
      7 O                    -0.385490       0.271377
      8 C                    -1.178736       0.014735
      9 C                    -0.286024       0.051601
     10 C                     0.720654       0.017556
     11 C                     0.792720       0.051218
     12 C                    -0.236631       0.006231
     13 C                    -1.186531       0.035730
     14 C                     0.586883       0.007583
     15 H                     0.136114      -0.003576
     16 H                     0.346706      -0.001634
     17 H                     0.353035      -0.003704
     18 H                     0.146525      -0.001091
     19 C                    -1.576082      -0.009600
     20 C                     1.988323       0.013066
     21 C                     0.428646       0.000622
     22 C                     0.244163      -0.001392
     23 H                     0.309820       0.000032
     24 H                     0.228714      -0.001662
     25 H                     0.010797       0.002009
     26 H                     0.085111      -0.000579
     27 H                     0.305716       0.000083
     28 H                     0.187284       0.000052
     29 H                     0.197475      -0.000065
     30 H                     0.260023       0.000299
     31 H                     0.200760      -0.000174
     32 H                     0.196673       0.000108
  --------------------------------------------------------
  Sum of atomic charges =    -1.000000

                    Cartesian Multipole Moments
 -----------------------------------------------------------------
    Charge (ESU x 10^10)
                -4.8032
    Dipole Moment (Debye)
         X       6.3107      Y       3.6570      Z       0.9251
       Tot       7.3522
    Quadrupole Moments (Debye-Ang)
        XX    -110.0115     XY      -7.0277     YY    -150.0428
        XZ      -0.9033     YZ      -7.1598     ZZ    -113.2442

 Total job time:  981.60s(wall), 7581.99s(cpu)
        *  Thank you very much for using Q-Chem.  Have a nice day.  *
