 Gaussian 16, Revision A.03,
 Gaussian 16:  ES64L-G16RevA.03 25-Dec-2016

 ----------------------------------------------------------------------
 #P UB3LYP/6-311++G(d,p) nosym opt freq SCRF=(PCM,Solvent=n,n-DiMethylF
 ormamide)
 ----------------------------------------------------------------------

 -------
 Radical
 -------
 Symbolic Z-matrix:
 Charge = -1 Multiplicity = 2

 SCF Done:  E(UB3LYP) =  -1458.26353268     A.U. after   19 cycles
 SCF Done:  E(UB3LYP) =  -1458.26366560     A.U. after   16 cycles
 SCF Done:  E(UB3LYP) =  -1458.26367714     A.U. after   15 cycles
 SCF Done:  E(UB3LYP) =  -1458.26370665     A.U. after   15 cycles
 SCF Done:  E(UB3LYP) =  -1458.26377730     A.U. after   15 cycles
 SCF Done:  E(UB3LYP) =  -1458.26377796     A.U. after   11 cycles
 Optimization completed.
    -- Stationary point found.
 Normal termination of Gaussian 16 at Sat Feb 10 10:33:25 2024.

 ----------------------------------------------------------------------
 #P Geom=AllCheck Guess=TCheck SCRF=Check GenChk UB3LYP/6-311++G(d,p) F
 req
 ----------------------------------------------------------------------

 Structure from the checkpoint file:  "014-rad.chk"
 -------
 Radical
 -------
 Charge = -1 Multiplicity = 2

                          Input orientation:
 ---------------------------------------------------------------------
 Center     Atomic      Atomic             Coordinates (Angstroms)
 Number     Number       Type             X           Y           Z
 ---------------------------------------------------------------------
      1          6           0       -1.570497   -1.548314   -0.638055
      2          6           0       -1.173667   -0.141714   -0.127159
      3          6           0       -1.562452    0.004591    1.364137
      4          6           0       -1.994410    0.890328   -0.924639
      5          6           0        0.342588    0.068687   -0.295606
      6          6           0        0.847463    1.078534   -1.071063
      7          6           0        2.249965    1.349707   -1.285587
      8          8           0        2.642184    2.303740   -2.013233
      9          6           0        3.162482    0.450657   -0.607150
     10          6           0        2.694980   -0.572906    0.179317
     11         17           0        3.806695   -1.657845    0.999154
     12          6           0        1.273829   -0.834451    0.392092
     13          8           0        0.902208   -1.785159    1.127832
     14         17           0        4.879235    0.734105   -0.839940
     15          1           0       -1.055514   -2.329729   -0.081091
     16          1           0       -2.650145   -1.692149   -0.526924
     17          1           0       -1.325711   -1.655858   -1.699409
     18          1           0       -1.042632   -0.727524    1.980309
     19          1           0       -2.641172   -0.140516    1.482477
     20          1           0       -1.317021    1.006599    1.729712
     21          1           0       -3.059136    0.694230   -0.771041
     22          1           0       -1.799015    0.829305   -1.998881
     23          1           0       -1.797038    1.914790   -0.596965
     24          1           0        0.186780    1.760891   -1.589882
 ---------------------------------------------------------------------

 SCF Done:  E(UB3LYP) =  -1458.26377796     A.U. after    2 cycles

 Alpha  occ. eigenvalues -- -101.55507-101.55413 -19.08610 -19.08516 -10.23724
 Alpha  occ. eigenvalues --  -10.23502 -10.23436 -10.23277 -10.18733 -10.18198
 Alpha  occ. eigenvalues --  -10.16679 -10.15306 -10.14858 -10.14843  -9.46960
 Alpha  occ. eigenvalues --   -9.46870  -7.23404  -7.23314  -7.22486  -7.22398
 Alpha  occ. eigenvalues --   -7.22389  -7.22295  -1.01370  -1.00904  -0.89499
 Alpha  occ. eigenvalues --   -0.84748  -0.83553  -0.79295  -0.72389  -0.69023
 Alpha  occ. eigenvalues --   -0.67874  -0.67749  -0.60622  -0.58314  -0.53363
 Alpha  occ. eigenvalues --   -0.50242  -0.47790  -0.45750  -0.44497  -0.44041
 Alpha  occ. eigenvalues --   -0.42994  -0.42726  -0.41640  -0.40681  -0.39836
 Alpha  occ. eigenvalues --   -0.38088  -0.37863  -0.37362  -0.36268  -0.35324
 Alpha  occ. eigenvalues --   -0.34253  -0.33402  -0.32954  -0.32622  -0.32287
 Alpha  occ. eigenvalues --   -0.30401  -0.28145  -0.25354  -0.24922  -0.24673
 Alpha  occ. eigenvalues --   -0.17078
 Alpha virt. eigenvalues --   -0.01696  -0.01146  -0.00137   0.01442   0.01587
 Alpha virt. eigenvalues --    0.02099   0.02472   0.02803   0.03671   0.04079
 Alpha virt. eigenvalues --    0.04304   0.04580   0.05329   0.05967   0.06684

  Beta  occ. eigenvalues -- -101.55502-101.55407 -19.07924 -19.07824 -10.23588
  Beta  occ. eigenvalues --  -10.23368 -10.23289 -10.23139 -10.18739 -10.18101
  Beta  occ. eigenvalues --  -10.16608 -10.15306 -10.14851 -10.14837  -9.46955
  Beta  occ. eigenvalues --   -9.46865  -7.23408  -7.23318  -7.22462  -7.22387
  Beta  occ. eigenvalues --   -7.22374  -7.22293  -1.00195  -0.99703  -0.89205
  Beta  occ. eigenvalues --   -0.84619  -0.83311  -0.79016  -0.72182  -0.68474
  Beta  occ. eigenvalues --   -0.67852  -0.67264  -0.60276  -0.57931  -0.53166
  Beta  occ. eigenvalues --   -0.50041  -0.47475  -0.45600  -0.44323  -0.43561
  Beta  occ. eigenvalues --   -0.42634  -0.41994  -0.40989  -0.40385  -0.38863
  Beta  occ. eigenvalues --   -0.37839  -0.37337  -0.36558  -0.35893  -0.34522
  Beta  occ. eigenvalues --   -0.34146  -0.32921  -0.32555  -0.32314  -0.32227
  Beta  occ. eigenvalues --   -0.30363  -0.25308  -0.24721  -0.24214  -0.24057
  Beta virt. eigenvalues --   -0.09946  -0.01046  -0.00239  -0.00111   0.01612
  Beta virt. eigenvalues --    0.01996   0.02137   0.02857   0.03686   0.04102
  Beta virt. eigenvalues --    0.04303   0.04380   0.04634   0.05370   0.06018

 Mulliken charges and spin densities:
               1          2
     1  C   -0.685550   0.009707
     2  C    0.450622  -0.023806
     3  C   -0.686858   0.009773
     4  C   -0.495493   0.001719
     5  C    0.793665   0.108482
     6  C   -0.391679   0.044356
     7  C   -0.929772   0.094618
     8  O   -0.438997   0.245384
     9  C    0.753923   0.090341
    10  C   -0.025355   0.065290
    11  Cl   0.351748   0.005789
    12  C   -1.238137   0.095128
    13  O   -0.364824   0.254088
    14  Cl   0.323594   0.006552
    15  H    0.179419  -0.001221
    16  H    0.152817   0.000329
    17  H    0.134844   0.000293
    18  H    0.179302  -0.001240
    19  H    0.152924   0.000366
    20  H    0.134990   0.000271
    21  H    0.174153   0.000083
    22  H    0.134227  -0.000250
    23  H    0.133737  -0.000240
    24  H    0.206701  -0.005812
 Sum of Mulliken charges =  -1.00000   1.00000

 Dipole moment (field-independent basis, Debye):
    X=            -12.8176    Y=             -0.8050    Z=              1.8231  Tot=             12.9716
 Quadrupole moment (field-independent basis, Debye-Ang):
   XX=           -140.3729   YY=           -124.2065   ZZ=           -115.4007
   XY=            -10.0610   XZ=             10.9918   YZ=             17.7664

  Exact polarizability: 268.690  21.251 239.709 -17.237 -74.034 199.773
 Approx polarizability: 270.568  29.304 276.216 -23.316 -91.143 227.208

                      1                      2                      3
                      A                      A                      A
 Frequencies --     51.6460                59.3879                98.9950
 Red. masses --      3.8073                 5.9571                11.6914
 Frc consts  --      0.0060                 0.0124                 0.0675
 IR Inten    --      2.5283                 3.6260                 0.0388

                      4                      5                      6
                      A                      A                      A
 Frequencies --    157.1945               169.5467               208.2349
 Red. masses --      4.5781                 4.8031                22.6059
 Frc consts  --      0.0667                 0.0813                 0.5775
 IR Inten    --     12.3181                 3.2173                 0.3085

                      7                      8                      9
                      A                      A                      A
 Frequencies --    213.6952               238.4364               249.3592
 Red. masses --      1.1567                 5.1127                 1.2589
 Frc consts  --      0.0311                 0.1713                 0.0461
 IR Inten    --      1.4185                 0.1244                 1.9147

                     10                     11                     12
                      A                      A                      A
 Frequencies --    258.4497               276.7646               289.0175
 Red. masses --      3.3434                 6.4888                 3.7113
 Frc consts  --      0.1316                 0.2928                 0.1827
 IR Inten    --      2.7176                 0.8141                 0.0925

                     13                     14                     15
                      A                      A                      A
 Frequencies --    316.4431               334.5770               358.1174
 Red. masses --      2.9589                 1.0495                13.5347
 Frc consts  --      0.1746                 0.0692                 1.0227
 IR Inten    --      2.1134                 0.0574                 7.4512

                     16                     17                     18
                      A                      A                      A
 Frequencies --    373.9021               377.8111               415.8522
 Red. masses --      9.7147                 2.6378                 2.7321
 Frc consts  --      0.8002                 0.2218                 0.2784
 IR Inten    --      4.6022                 0.4582                 0.7011

                     19                     20                     21
                      A                      A                      A
 Frequencies --    442.7666               479.5871               525.6358
 Red. masses --      5.7197                 6.2034                 4.1290
 Frc consts  --      0.6607                 0.8407                 0.6722
 IR Inten    --      0.0022                 0.3425                33.8524

                     22                     23                     24
                      A                      A                      A
 Frequencies --    548.7941               604.5664               692.0838
 Red. masses --      4.5524                 6.0253                 6.3219
 Frc consts  --      0.8078                 1.2975                 1.7841
 IR Inten    --      0.5018                36.1927                 5.3279

                     25                     26                     27
                      A                      A                      A
 Frequencies --    696.6818               762.8806               769.0677
 Red. masses --      5.9988                 5.8436                 8.2214
 Frc consts  --      1.7155                 2.0038                 2.8650
 IR Inten    --      3.0870                16.9372                 8.9975

                     28                     29                     30
                      A                      A                      A
 Frequencies --    843.8214               869.4212               888.7672
 Red. masses --      3.4425                 8.0008                 1.5288
 Frc consts  --      1.4442                 3.5632                 0.7115
 IR Inten    --     73.4793               215.3150                31.4069

                     31                     32                     33
                      A                      A                      A
 Frequencies --    928.4816               931.7117               958.3656
 Red. masses --      1.7559                 1.7389                 1.1984
 Frc consts  --      0.8919                 0.8894                 0.6485
 IR Inten    --      2.4262                 5.6996                 0.2562

                     34                     35                     36
                      A                      A                      A
 Frequencies --    994.3639              1039.4136              1043.0602
 Red. masses --      5.7787                 1.4797                 1.3861
 Frc consts  --      3.3664                 0.9419                 0.8885
 IR Inten    --     37.9133                36.8794                 0.3049

                     37                     38                     39
                      A                      A                      A
 Frequencies --   1101.8746              1156.8867              1214.6344
 Red. masses --      3.1676                 8.1848                 2.7296
 Frc consts  --      2.2659                 6.4542                 2.3727
 IR Inten    --    221.6945                33.7067                 7.8181

                     40                     41                     42
                      A                      A                      A
 Frequencies --   1222.7617              1262.3372              1301.2122
 Red. masses --      2.5917                 2.6894                 1.8707
 Frc consts  --      2.2831                 2.5249                 1.8662
 IR Inten    --     14.6520                47.6940                28.1016

                     43                     44                     45
                      A                      A                      A
 Frequencies --   1372.1688              1377.6943              1389.8399
 Red. masses --      3.0008                 1.2125                 1.5540
 Frc consts  --      3.3289                 1.3560                 1.7687
 IR Inten    --    103.9629                12.3000                 1.1223

                     46                     47                     48
                      A                      A                      A
 Frequencies --   1413.1394              1471.2300              1482.4651
 Red. masses --      1.2475                 1.0471                 1.5306
 Frc consts  --      1.4678                 1.3354                 1.9819
 IR Inten    --     18.7871                 0.0077               297.1430

                     49                     50                     51
                      A                      A                      A
 Frequencies --   1485.8036              1488.1395              1489.8825
 Red. masses --      2.2595                 1.0469                 1.2742
 Frc consts  --      2.9389                 1.3660                 1.6664
 IR Inten    --     12.8452                 1.1180                 7.5647

                     52                     53                     54
                      A                      A                      A
 Frequencies --   1500.2208              1502.3283              1515.6815
 Red. masses --      1.0509                 5.2614                 2.0190
 Frc consts  --      1.3936                 6.9965                 2.7328
 IR Inten    --     11.3446               534.9453               125.9009

                     55                     56                     57
                      A                      A                      A
 Frequencies --   1519.8466              1619.2079              3014.2250
 Red. masses --      1.6961                 7.5348                 1.0379
 Frc consts  --      2.3084                11.6393                 5.5560
 IR Inten    --    265.8548                69.4979                77.4273

                     58                     59                     60
                      A                      A                      A
 Frequencies --   3016.2566              3024.0305              3070.1364
 Red. masses --      1.0367                 1.0372                 1.1020
 Frc consts  --      5.5569                 5.5882                 6.1200
 IR Inten    --     40.2854                75.2088                28.9432

                     61                     62                     63
                      A                      A                      A
 Frequencies --   3071.6286              3084.7748              3086.0999
 Red. masses --      1.1013                 1.1011                 1.1022
 Frc consts  --      6.1222                 6.1735                 6.1850
 IR Inten    --     62.0536               105.5987                62.7071

                     64                     65                     66
                      A                      A                      A
 Frequencies --   3123.2359              3128.0035              3195.5110
 Red. masses --      1.0985                 1.0973                 1.0884
 Frc consts  --      6.3134                 6.3258                 6.5483
 IR Inten    --      1.4286                31.5900                11.4038

 - Thermochemistry -
 -------------------
 Temperature   298.150 Kelvin.  Pressure   1.00000 Atm.
 Atom     1 has atomic number  6 and mass  12.00000

 Molecular mass:   232.00579 amu.
 Principal axes and moments of inertia in atomic units:
                           1         2         3
     Eigenvalues --  2099.083884677.891666374.95172
           X            0.99585  -0.09080   0.00545
           Y            0.06883   0.79141   0.60739
           Z           -0.05946  -0.60450   0.79438
 This molecule is an asymmetric top.
 Rotational symmetry number  1.
 Warning -- assumption of classical behavior for rotation
           may cause significant error
 Rotational temperatures (Kelvin)      0.04126     0.01852     0.01359
 Rotational constants (GHZ):           0.85978     0.38580     0.28310
 Zero-point vibrational energy     461568.1 (Joules/Mol)
                                  110.31742 (Kcal/Mol)
 Warning -- explicit consideration of  23 degrees of freedom as
           vibrations may cause significant error
 Vibrational temperatures:     74.31    85.45   142.43   226.17   243.94
          (Kelvin)            299.60   307.46   343.06   358.77   371.85
                              398.20   415.83   455.29   481.38   515.25
                              537.96   543.59   598.32   637.04   690.02
                              756.27   789.59   869.84   995.75  1002.37
                             1097.62  1106.52  1214.07  1250.90  1278.74
                             1335.88  1340.53  1378.87  1430.67  1495.48
                             1500.73  1585.35  1664.50  1747.59  1759.28
                             1816.22  1872.15  1974.24  1982.19  1999.67
                             2033.19  2116.77  2132.94  2137.74  2141.10
                             2143.61  2158.48  2161.52  2180.73  2186.72
                             2329.68  4336.80  4339.72  4350.91  4417.24
                             4419.39  4438.30  4440.21  4493.64  4500.50
                             4597.63

 Zero-point correction=                           0.175802 (Hartree/Particle)
 Thermal correction to Energy=                    0.189862
 Thermal correction to Enthalpy=                  0.190806
 Thermal correction to Gibbs Free Energy=         0.134446
 Sum of electronic and zero-point Energies=          -1458.087976
 Sum of electronic and thermal Energies=             -1458.073916
 Sum of electronic and thermal Enthalpies=           -1458.072972
 Sum of electronic and thermal Free Energies=        -1458.129332

                     E (Thermal)             CV                S
                      KCal/Mol        Cal/Mol-Kelvin    Cal/Mol-Kelvin
 Total                  119.140             52.832            118.620
 Electronic               0.000              0.000              1.377
 Translational            0.889              2.981             42.227
 Rotational               0.889              2.981             32.504
 Vibrational            117.363             46.871             42.512
 Vibration     1          0.596              1.977              4.753
 Vibration     2          0.597              1.974              4.477
 Vibration     3          0.604              1.950              3.474
 Vibration     4          0.621              1.895              2.583
 Vibration     5          0.625              1.880              2.441
 Vibration     6          0.642              1.828              2.059
 Vibration     7          0.644              1.820              2.012
 Vibration     8          0.656              1.782              1.815
 Vibration     9          0.662              1.764              1.735
 Vibration    10          0.667              1.748              1.672
 Vibration    11          0.678              1.716              1.554
 Vibration    12          0.686              1.694              1.480
 Vibration    13          0.703              1.642              1.328
 Vibration    14          0.716              1.606              1.238
 Vibration    15          0.733              1.559              1.130
 Vibration    16          0.745              1.526              1.064
 Vibration    17          0.748              1.517              1.048
 Vibration    18          0.779              1.436              0.906
 Vibration    19          0.802              1.377              0.818
 Vibration    20          0.836              1.295              0.711
 Vibration    21          0.881              1.193              0.597
 Vibration    22          0.904              1.142              0.547
 Vibration    23          0.963              1.022              0.442

 Optimization completed.
    -- Stationary point found.
 Normal termination of Gaussian 16 at Sat Feb 10 11:12:31 2024.
