 Q-Chem 5.4, Q-Chem, Inc., Pleasanton, CA (2021)
 Q-Chem 5.4.0 for Intel X86 EM64T Linux

User input:
--------------------------------------------------------------
$molecule
0 1
C                 -3.2897930000      3.6092040000      0.0843370000
C                 -4.5210270000      2.9655340000      0.0899110000
C                 -4.5693120000      1.5636990000      0.0667850000
C                 -2.0957690000      2.8858660000      0.0560920000
C                 -2.1535830000      1.4765610000      0.0330030000
C                 -3.3805980000      0.8268500000      0.0383960000
C                 -0.8038100000      3.6133170000      0.0511390000
C                  0.4449080000      2.7871670000      0.0202410000
C                  0.3870940000      1.3778610000     -0.0028430000
C                 -0.9048620000      0.6504060000      0.0023740000
C                  1.6719200000      3.4368810000      0.0146140000
C                  2.8606270000      2.7000310000     -0.0140070000
C                  2.8123450000      1.2981980000     -0.0371330000
C                  1.5811140000      0.6545250000     -0.0313290000
O                 -0.7519040000      4.8338880000      0.0709080000
O                 -0.9567740000     -0.5701570000     -0.0178730000
H                 -3.4160950000     -0.2548970000      0.0205420000
H                  1.5272890000     -0.4271840000     -0.0489520000
H                 -3.2359670000      4.6909130000      0.1019640000
H                  1.7074180000      4.5186270000      0.0324710000
O                  4.0056880000      3.4266460000     -0.0173050000
O                 -5.7143690000      0.8370720000      0.0698670000
C                 -6.9656170000      1.5178280000      0.0966710000
C                  5.2569060000      2.7458470000     -0.0443370000
H                 -5.4283190000      3.5538570000      0.1120660000
H                  3.7196380000      0.7098810000     -0.0594660000
H                 -7.7244010000      0.7378000000      0.0928670000
H                 -7.0917200000      2.1522980000     -0.7864180000
H                 -7.0697980000      2.1221880000      1.0034290000
H                  6.0157160000      3.5258500000     -0.0406600000
H                  5.3609040000      2.1414900000     -0.9511180000
H                  5.3831410000      2.1113650000      0.8387260000
$end
$rem
MAX_SCF_CYCLES=200
BASIS  =  6-311++G(d,p)
GUI  =  2
JOB_TYPE  =  SP
METHOD  =  B3LYP
SOLVENT_METHOD = PCM
$end
$pcm
theory = CPCM
$end
$solvent
dielectric 37.219
opticaldielectric 1.43
$end

--------------------------------------------------------------

             Standard Nuclear Orientation (Angstroms)
    I     Atom           X                Y                Z
 ----------------------------------------------------------------
    1      C      -3.2897930000     3.6092040000     0.0843370000
    2      C      -4.5210270000     2.9655340000     0.0899110000
    3      C      -4.5693120000     1.5636990000     0.0667850000
    4      C      -2.0957690000     2.8858660000     0.0560920000
    5      C      -2.1535830000     1.4765610000     0.0330030000
    6      C      -3.3805980000     0.8268500000     0.0383960000
    7      C      -0.8038100000     3.6133170000     0.0511390000
    8      C       0.4449080000     2.7871670000     0.0202410000
    9      C       0.3870940000     1.3778610000    -0.0028430000
   10      C      -0.9048620000     0.6504060000     0.0023740000
   11      C       1.6719200000     3.4368810000     0.0146140000
   12      C       2.8606270000     2.7000310000    -0.0140070000
   13      C       2.8123450000     1.2981980000    -0.0371330000
   14      C       1.5811140000     0.6545250000    -0.0313290000
   15      O      -0.7519040000     4.8338880000     0.0709080000
   16      O      -0.9567740000    -0.5701570000    -0.0178730000
   17      H      -3.4160950000    -0.2548970000     0.0205420000
   18      H       1.5272890000    -0.4271840000    -0.0489520000
   19      H      -3.2359670000     4.6909130000     0.1019640000
   20      H       1.7074180000     4.5186270000     0.0324710000
   21      O       4.0056880000     3.4266460000    -0.0173050000
   22      O      -5.7143690000     0.8370720000     0.0698670000
   23      C      -6.9656170000     1.5178280000     0.0966710000
   24      C       5.2569060000     2.7458470000    -0.0443370000
   25      H      -5.4283190000     3.5538570000     0.1120660000
   26      H       3.7196380000     0.7098810000    -0.0594660000
   27      H      -7.7244010000     0.7378000000     0.0928670000
   28      H      -7.0917200000     2.1522980000    -0.7864180000
   29      H      -7.0697980000     2.1221880000     1.0034290000
   30      H       6.0157160000     3.5258500000    -0.0406600000
   31      H       5.3609040000     2.1414900000    -0.9511180000
   32      H       5.3831410000     2.1113650000     0.8387260000
 ----------------------------------------------------------------

    9    -918.0899939951      1.95e-06  Convergence criterion met
 Total energy in the final basis set =     -918.0899939951

                    Orbital Energies (a.u.)
 --------------------------------------------------------------

 Alpha MOs
 -- Occupied --
-19.1735 -19.1735 -19.1270 -19.1269 -10.2800 -10.2800 -10.2615 -10.2615
-10.2238 -10.2238 -10.2086 -10.2086 -10.1996 -10.1996 -10.1987 -10.1987
-10.1948 -10.1948 -10.1932 -10.1932  -1.0887  -1.0887  -1.0629  -1.0612
 -0.8918  -0.8798  -0.8101  -0.7848  -0.7830  -0.7711  -0.7223  -0.7199
 -0.6698  -0.6695  -0.6236  -0.6232  -0.5873  -0.5642  -0.5610  -0.5332
 -0.5160  -0.5111  -0.4960  -0.4813  -0.4805  -0.4788  -0.4608  -0.4583
 -0.4520  -0.4514  -0.4486  -0.4308  -0.4297  -0.4186  -0.4173  -0.3995
 -0.3966  -0.3930  -0.3845  -0.3789  -0.3483  -0.3470  -0.3420  -0.3352
 -0.2861  -0.2852  -0.2781  -0.2741  -0.2544  -0.2448

          Ground-State Mulliken Net Atomic Charges

     Atom                 Charge (a.u.)
  ----------------------------------------
      1 C                     0.075818
      2 C                     0.126547
      3 C                    -0.832885
      4 C                     0.517086
      5 C                     0.769531
      6 C                    -0.465483
      7 C                    -0.567617
      8 C                     0.770157
      9 C                     0.517283
     10 C                    -0.567791
     11 C                    -0.465193
     12 C                    -0.833729
     13 C                     0.125825
     14 C                     0.076346
     15 O                    -0.300466
     16 O                    -0.300454
     17 H                     0.205989
     18 H                     0.200316
     19 H                     0.200276
     20 H                     0.206008
     21 O                    -0.189088
     22 O                    -0.189135
     23 C                    -0.375203
     24 C                    -0.375171
     25 H                     0.259187
     26 H                     0.259222
     27 H                     0.205726
     28 H                     0.185287
     29 H                     0.185309
     30 H                     0.205717
     31 H                     0.185305
     32 H                     0.185265
  ----------------------------------------
  Sum of atomic charges =    -0.000016

                    Cartesian Multipole Moments
 -----------------------------------------------------------------
    Charge (ESU x 10^10)
                -0.0001
    Dipole Moment (Debye)
         X       0.0000      Y      -0.0002      Z      -0.0000
       Tot       0.0002
    Quadrupole Moments (Debye-Ang)
        XX     -44.9586     XY     -13.3240     YY    -136.1310
        XZ      -1.1719     YZ      -0.1330     ZZ    -117.3048

 Total job time:  76.89s(wall), 464.90s(cpu)
        *  Thank you very much for using Q-Chem.  Have a nice day.  *
