 Q-Chem 5.4, Q-Chem, Inc., Pleasanton, CA (2021)
 Q-Chem 5.4.0 for Intel X86 EM64T Linux

User input:
--------------------------------------------------------------
$molecule
-1 1
C                 -1.7942870000      1.9642040000     -5.1378580000
C                 -1.7405090000      0.6319020000     -5.5240270000
C                 -1.4321210000     -0.3594110000     -4.5850940000
C                 -1.5323200000      2.3238010000     -3.8096620000
C                 -1.2256790000      1.3339450000     -2.8728860000
C                 -1.1819610000     -0.0098180000     -3.2654250000
C                 -1.5977350000      3.7609100000     -3.4158050000
C                 -0.9610350000      1.6811550000     -1.4461400000
C                 -1.2454010000      4.1323220000     -2.0501650000
C                 -0.8738770000      3.1261270000     -1.0844580000
C                 -1.2273890000      5.5231940000     -1.6920930000
C                 -0.8289070000      5.8763290000     -0.3610550000
C                 -0.4311960000      4.9081610000      0.5189020000
C                 -0.4536870000      3.5442340000      0.1756630000
O                 -1.9356770000      4.5813130000     -4.2854480000
O                 -0.8299420000      0.7777260000     -0.6330130000
H                 -2.0369460000      2.7501320000     -5.8418190000
H                 -1.9394530000      0.3589330000     -6.5550110000
H                 -1.3910760000     -1.4003340000     -4.8876730000
H                 -0.9496560000     -0.7556390000     -2.5154200000
Br                 0.1647880000      2.3874120000      1.5828470000
N                 -1.5556120000      6.4976890000     -2.5534640000
S                 -0.9323170000      7.6079730000      0.2585300000
O                 -0.4849230000      8.4272230000     -0.9079700000
O                 -2.3663940000      7.7740340000      0.5784490000
O                 -0.0190660000      7.6423600000      1.4170290000
H                 -0.1038240000      5.2155920000      1.5037640000
H                 -1.8016050000      6.2291590000     -3.4967770000
H                 -1.3500820000      7.4569920000     -2.2705410000
$end
$rem
MAX_SCF_CYCLES=200
BASIS  =  6-311++G(d,p)
GUI  =  2
JOB_TYPE  =  SP
METHOD  =  B3LYP
SOLVENT_METHOD = PCM
$end
$pcm
theory = CPCM
$end
$solvent
dielectric 37.219
opticaldielectric 1.43
$end

--------------------------------------------------------------

             Standard Nuclear Orientation (Angstroms)
    I     Atom           X                Y                Z
 ----------------------------------------------------------------
    1      C      -1.7942870000     1.9642040000    -5.1378580000
    2      C      -1.7405090000     0.6319020000    -5.5240270000
    3      C      -1.4321210000    -0.3594110000    -4.5850940000
    4      C      -1.5323200000     2.3238010000    -3.8096620000
    5      C      -1.2256790000     1.3339450000    -2.8728860000
    6      C      -1.1819610000    -0.0098180000    -3.2654250000
    7      C      -1.5977350000     3.7609100000    -3.4158050000
    8      C      -0.9610350000     1.6811550000    -1.4461400000
    9      C      -1.2454010000     4.1323220000    -2.0501650000
   10      C      -0.8738770000     3.1261270000    -1.0844580000
   11      C      -1.2273890000     5.5231940000    -1.6920930000
   12      C      -0.8289070000     5.8763290000    -0.3610550000
   13      C      -0.4311960000     4.9081610000     0.5189020000
   14      C      -0.4536870000     3.5442340000     0.1756630000
   15      O      -1.9356770000     4.5813130000    -4.2854480000
   16      O      -0.8299420000     0.7777260000    -0.6330130000
   17      H      -2.0369460000     2.7501320000    -5.8418190000
   18      H      -1.9394530000     0.3589330000    -6.5550110000
   19      H      -1.3910760000    -1.4003340000    -4.8876730000
   20      H      -0.9496560000    -0.7556390000    -2.5154200000
   21      Br      0.1647880000     2.3874120000     1.5828470000
   22      N      -1.5556120000     6.4976890000    -2.5534640000
   23      S      -0.9323170000     7.6079730000     0.2585300000
   24      O      -0.4849230000     8.4272230000    -0.9079700000
   25      O      -2.3663940000     7.7740340000     0.5784490000
   26      O      -0.0190660000     7.6423600000     1.4170290000
   27      H      -0.1038240000     5.2155920000     1.5037640000
   28      H      -1.8016050000     6.2291590000    -3.4967770000
   29      H      -1.3500820000     7.4569920000    -2.2705410000
 ----------------------------------------------------------------

    9   -3941.3477287469      5.03e-06  Convergence criterion met
 Total energy in the final basis set =    -3941.3477287469

                    Orbital Energies (a.u.)
 --------------------------------------------------------------

 Alpha MOs
 -- Occupied --
******** -89.0618 -62.4886 -56.3092 -56.3054 -56.3049 -19.1279 -19.1228
-19.1071 -19.1058 -19.1048 -14.3293 -10.2835 -10.2769 -10.2573 -10.2487
-10.2235 -10.2168 -10.2096 -10.2080 -10.2026 -10.2019 -10.1930 -10.1924
-10.1918 -10.1908  -8.6974  -8.1205  -6.5291  -6.5163  -6.5149  -6.0832
 -6.0830  -6.0824  -2.6400  -2.6365  -2.6356  -2.6254  -2.6253  -1.1276
 -1.0642  -1.0549  -0.9942  -0.9896  -0.9487  -0.8903  -0.8795  -0.8210
 -0.8066  -0.7733  -0.7727  -0.7393  -0.6937  -0.6730  -0.6544  -0.6219
 -0.5977  -0.5850  -0.5758  -0.5488  -0.5331  -0.5094  -0.5079  -0.4970
 -0.4774  -0.4727  -0.4656  -0.4640  -0.4566  -0.4526  -0.4500  -0.4451
 -0.4347  -0.4198  -0.4180  -0.4082  -0.3927  -0.3785  -0.3721  -0.3630
 -0.3603  -0.3502  -0.3489  -0.3225  -0.3156  -0.3113  -0.3045  -0.3028
 -0.2840  -0.2790  -0.2740  -0.2736  -0.2717  -0.2608  -0.2258

          Ground-State Mulliken Net Atomic Charges

     Atom                 Charge (a.u.)
  ----------------------------------------
      1 C                     0.092438
      2 C                    -0.551204
      3 C                    -0.468949
      4 C                     0.300017
      5 C                     0.071162
      6 C                     0.184702
      7 C                    -0.394597
      8 C                    -1.143984
      9 C                     0.443218
     10 C                     0.945660
     11 C                     0.143334
     12 C                    -0.495584
     13 C                    -0.405247
     14 C                     0.173357
     15 O                    -0.334132
     16 O                    -0.218344
     17 H                     0.205293
     18 H                     0.220377
     19 H                     0.217864
     20 H                     0.207261
     21 Br                   -0.211240
     22 N                    -0.444216
     23 S                     0.550770
     24 O                    -0.411288
     25 O                    -0.334562
     26 O                    -0.313527
     27 H                     0.278480
     28 H                     0.367366
     29 H                     0.325569
  ----------------------------------------
  Sum of atomic charges =    -1.000009

                    Cartesian Multipole Moments
 -----------------------------------------------------------------
    Charge (ESU x 10^10)
                -4.8032
    Dipole Moment (Debye)
         X       4.7690      Y     -35.3967      Z      -4.1431
       Tot      35.9560
    Quadrupole Moments (Debye-Ang)
        XX    -163.5768     XY      37.3917     YY    -422.2613
        XZ       3.8036     YZ      -8.2079     ZZ    -143.4404

 Total job time:  75.80s(wall), 565.60s(cpu)
        *  Thank you very much for using Q-Chem.  Have a nice day.  *
