 Gaussian 16, Revision A.03,
 Gaussian 16:  ES64L-G16RevA.03 25-Dec-2016

 --------------------------------------
 #P UB3LYP/6-311++G(d,p) nosym opt freq
 --------------------------------------

 --------
 Oxidized
 --------
 Symbolic Z-matrix:
 Charge = -1 Multiplicity = 1

 SCF Done:  E(UB3LYP) =  -3941.26452701     A.U. after   18 cycles
 Optimization completed.
    -- Stationary point found.
 Normal termination of Gaussian 16 at Wed Dec 27 21:15:08 2023.

 ----------------------------------------------------------------------
 #P Geom=AllCheck Guess=TCheck SCRF=Check GenChk UB3LYP/6-311++G(d,p) F
 req
 ----------------------------------------------------------------------

 Structure from the checkpoint file:  "163.chk"
 --------
 Oxidized
 --------
 Charge = -1 Multiplicity = 1

                          Input orientation:
 ---------------------------------------------------------------------
 Center     Atomic      Atomic             Coordinates (Angstroms)
 Number     Number       Type             X           Y           Z
 ---------------------------------------------------------------------
      1          6           0       -1.794287    1.964204   -5.137858
      2          6           0       -1.740509    0.631902   -5.524027
      3          6           0       -1.432121   -0.359411   -4.585094
      4          6           0       -1.532320    2.323801   -3.809662
      5          6           0       -1.225679    1.333945   -2.872886
      6          6           0       -1.181961   -0.009818   -3.265425
      7          6           0       -1.597735    3.760910   -3.415805
      8          6           0       -0.961035    1.681155   -1.446140
      9          6           0       -1.245401    4.132322   -2.050165
     10          6           0       -0.873877    3.126127   -1.084458
     11          6           0       -1.227389    5.523194   -1.692093
     12          6           0       -0.828907    5.876329   -0.361055
     13          6           0       -0.431196    4.908161    0.518902
     14          6           0       -0.453687    3.544234    0.175663
     15          8           0       -1.935677    4.581313   -4.285448
     16          8           0       -0.829942    0.777726   -0.633013
     17          1           0       -2.036946    2.750132   -5.841819
     18          1           0       -1.939453    0.358933   -6.555011
     19          1           0       -1.391076   -1.400334   -4.887673
     20          1           0       -0.949656   -0.755639   -2.515420
     21         35           0        0.164788    2.387412    1.582847
     22          7           0       -1.555612    6.497689   -2.553464
     23         16           0       -0.932317    7.607973    0.258530
     24          8           0       -0.484923    8.427223   -0.907970
     25          8           0       -2.366394    7.774034    0.578449
     26          8           0       -0.019066    7.642360    1.417029
     27          1           0       -0.103824    5.215592    1.503764
     28          1           0       -1.801605    6.229159   -3.496777
     29          1           0       -1.350082    7.456992   -2.270541
 ---------------------------------------------------------------------

 SCF Done:  E(UB3LYP) =  -3941.26452701     A.U. after    1 cycles

 Alpha  occ. eigenvalues -- -482.73753 -88.92330 -62.39030 -56.21072 -56.20696
 Alpha  occ. eigenvalues --  -56.20643 -19.03221 -19.02680 -18.96673 -18.96492
 Alpha  occ. eigenvalues --  -18.96263 -14.22757 -10.18858 -10.18151 -10.15341
 Alpha  occ. eigenvalues --  -10.14990 -10.12331 -10.12287 -10.12255 -10.12229
 Alpha  occ. eigenvalues --  -10.12161 -10.11730 -10.11584 -10.10969 -10.10591
 Alpha  occ. eigenvalues --  -10.10036  -8.60000  -7.98167  -6.43156  -6.41904
 Alpha  occ. eigenvalues --   -6.41749  -5.94421  -5.94418  -5.94389  -2.54248
 Alpha  occ. eigenvalues --   -2.53920  -2.53802  -2.52804  -2.52802  -0.98622
 Alpha  occ. eigenvalues --   -0.96860  -0.95915  -0.85451  -0.84779  -0.84164
 Alpha  occ. eigenvalues --   -0.80755  -0.78362  -0.73014  -0.70448  -0.69609
 Alpha  occ. eigenvalues --   -0.68497  -0.64057  -0.59538  -0.58190  -0.56447
 Alpha  occ. eigenvalues --   -0.52858  -0.49906  -0.48894  -0.47388  -0.45410
 Alpha  occ. eigenvalues --   -0.43379  -0.41661  -0.40844  -0.39595  -0.37960
 Alpha  occ. eigenvalues --   -0.37345  -0.36982  -0.36507  -0.36120  -0.35434
 Alpha  occ. eigenvalues --   -0.34098  -0.32741  -0.32443  -0.32104  -0.31668
 Alpha  occ. eigenvalues --   -0.31171  -0.30127  -0.29261  -0.28472  -0.28446
 Alpha  occ. eigenvalues --   -0.25783  -0.21368  -0.20855  -0.20708  -0.20418
 Alpha  occ. eigenvalues --   -0.19738  -0.19615  -0.19593  -0.18566  -0.17472
 Alpha  occ. eigenvalues --   -0.17142  -0.16021  -0.15877  -0.12740  -0.12340
 Alpha virt. eigenvalues --   -0.02330   0.01856   0.04902   0.05061   0.06896
 Alpha virt. eigenvalues --    0.07199   0.07259   0.08455   0.10157   0.10537
 Alpha virt. eigenvalues --    0.11485   0.11556   0.11867   0.12045   0.12793

  Beta  occ. eigenvalues -- -482.73753 -88.92330 -62.39030 -56.21072 -56.20696
  Beta  occ. eigenvalues --  -56.20643 -19.03221 -19.02680 -18.96673 -18.96492
  Beta  occ. eigenvalues --  -18.96263 -14.22757 -10.18858 -10.18151 -10.15341
  Beta  occ. eigenvalues --  -10.14990 -10.12331 -10.12287 -10.12255 -10.12229
  Beta  occ. eigenvalues --  -10.12161 -10.11730 -10.11584 -10.10969 -10.10591
  Beta  occ. eigenvalues --  -10.10036  -8.60000  -7.98167  -6.43156  -6.41904
  Beta  occ. eigenvalues --   -6.41749  -5.94421  -5.94418  -5.94389  -2.54248
  Beta  occ. eigenvalues --   -2.53920  -2.53802  -2.52804  -2.52802  -0.98622
  Beta  occ. eigenvalues --   -0.96860  -0.95915  -0.85451  -0.84779  -0.84164
  Beta  occ. eigenvalues --   -0.80755  -0.78362  -0.73014  -0.70448  -0.69609
  Beta  occ. eigenvalues --   -0.68497  -0.64057  -0.59538  -0.58190  -0.56447
  Beta  occ. eigenvalues --   -0.52858  -0.49906  -0.48894  -0.47388  -0.45410
  Beta  occ. eigenvalues --   -0.43379  -0.41661  -0.40844  -0.39595  -0.37960
  Beta  occ. eigenvalues --   -0.37345  -0.36982  -0.36507  -0.36120  -0.35434
  Beta  occ. eigenvalues --   -0.34098  -0.32741  -0.32443  -0.32104  -0.31668
  Beta  occ. eigenvalues --   -0.31171  -0.30127  -0.29261  -0.28472  -0.28446
  Beta  occ. eigenvalues --   -0.25783  -0.21368  -0.20855  -0.20708  -0.20418
  Beta  occ. eigenvalues --   -0.19738  -0.19615  -0.19593  -0.18566  -0.17472
  Beta  occ. eigenvalues --   -0.17142  -0.16021  -0.15877  -0.12740  -0.12340
  Beta virt. eigenvalues --   -0.02330   0.01856   0.04902   0.05061   0.06896
  Beta virt. eigenvalues --    0.07199   0.07259   0.08455   0.10157   0.10537
  Beta virt. eigenvalues --    0.11485   0.11556   0.11867   0.12045   0.12793

 Mulliken charges and spin densities:
               1          2
     1  C    0.182453   0.000000
     2  C   -0.422810   0.000000
     3  C   -0.317114  -0.000000
     4  C   -0.107783  -0.000000
     5  C    0.215554   0.000000
     6  C    0.147866  -0.000000
     7  C   -0.454301  -0.000000
     8  C   -1.210439   0.000000
     9  C    0.287397  -0.000000
    10  C    0.827520   0.000000
    11  C    0.276322  -0.000000
    12  C   -0.716540   0.000000
    13  C   -0.233314  -0.000000
    14  C    0.319169   0.000000
    15  O   -0.287839  -0.000000
    16  O   -0.156499   0.000000
    17  H    0.177425  -0.000000
    18  H    0.154652   0.000000
    19  H    0.152466  -0.000000
    20  H    0.175632  -0.000000
    21  Br  -0.174336  -0.000000
    22  N   -0.399893   0.000000
    23  S    0.463612  -0.000000
    24  O   -0.342449  -0.000000
    25  O   -0.245291   0.000000
    26  O   -0.231404   0.000000
    27  H    0.277120   0.000000
    28  H    0.339763  -0.000000
    29  H    0.303061   0.000000
 Sum of Mulliken charges =  -1.00000  -0.00000

 Dipole moment (field-independent basis, Debye):
    X=              4.7776    Y=            -31.0982    Z=             -1.0733  Tot=             31.4813
 Quadrupole moment (field-independent basis, Debye-Ang):
   XX=           -163.5048   YY=           -387.6639   ZZ=           -159.1754
   XY=             31.8690   XZ=             -1.1433   YZ=             -5.7503

  Exact polarizability: 140.642  -6.470 335.246  46.365  50.779 304.760
 Approx polarizability: 239.611 -23.262 532.237  82.089  19.043 503.086

                      1                      2                      3
                      A                      A                      A
 Frequencies --     16.0434                32.3695                46.4231
 Red. masses --      8.6629                12.6279                12.9166
 Frc consts  --      0.0013                 0.0078                 0.0164
 IR Inten    --      0.3957                 1.7652                 0.1137

                      4                      5                      6
                      A                      A                      A
 Frequencies --     83.1454               107.6538               121.8819
 Red. masses --      9.0518                 5.8299                 7.1420
 Frc consts  --      0.0369                 0.0398                 0.0625
 IR Inten    --      3.6655                 0.5240                 0.8432

                      7                      8                      9
                      A                      A                      A
 Frequencies --    130.4871               139.9065               171.1136
 Red. masses --     12.5745                12.0217                 8.4102
 Frc consts  --      0.1261                 0.1386                 0.1451
 IR Inten    --      2.3994                 1.0563                 1.3304

                     10                     11                     12
                      A                      A                      A
 Frequencies --    211.1522               226.7731               242.9195
 Red. masses --      9.9387                11.1700                10.4175
 Frc consts  --      0.2611                 0.3384                 0.3622
 IR Inten    --      3.2564                 0.2517                 1.8454

                     13                     14                     15
                      A                      A                      A
 Frequencies --    259.0962               271.2706               318.6251
 Red. masses --     11.1534                 6.2658                 9.0656
 Frc consts  --      0.4411                 0.2717                 0.5423
 IR Inten    --      2.8391                 1.0221                 7.7185

                     16                     17                     18
                      A                      A                      A
 Frequencies --    362.8072               386.8835               401.4503
 Red. masses --      6.2396                 9.6751                 7.6952
 Frc consts  --      0.4839                 0.8532                 0.7307
 IR Inten    --      1.4035                 0.2585                 2.7315

                     19                     20                     21
                      A                      A                      A
 Frequencies --    413.3177               430.7426               444.7591
 Red. masses --      8.1327                 3.6768                 6.8380
 Frc consts  --      0.8186                 0.4019                 0.7969
 IR Inten    --     13.8328                 4.0508                 2.3773

                     22                     23                     24
                      A                      A                      A
 Frequencies --    447.7823               480.7488               490.8604
 Red. masses --      9.0662                 8.0490                 6.1100
 Frc consts  --      1.0711                 1.0960                 0.8674
 IR Inten    --     18.1902                 3.3496                 3.1659

                     25                     26                     27
                      A                      A                      A
 Frequencies --    505.6052               526.6130               531.4238
 Red. masses --      8.9156                 7.3524                 6.2888
 Frc consts  --      1.3428                 1.2013                 1.0464
 IR Inten    --     17.9766                 7.4311                33.9210

                     28                     29                     30
                      A                      A                      A
 Frequencies --    592.3051               605.9259               611.5292
 Red. masses --      6.0395                 2.3721                 2.2134
 Frc consts  --      1.2484                 0.5131                 0.4877
 IR Inten    --     14.9823               111.6009               222.1927

                     31                     32                     33
                      A                      A                      A
 Frequencies --    632.2105               675.4916               679.9821
 Red. masses --      6.3093                 6.1493                 4.5887
 Frc consts  --      1.4858                 1.6532                 1.2501
 IR Inten    --      2.6505                53.2473                 3.6909

                     34                     35                     36
                      A                      A                      A
 Frequencies --    717.4979               725.6700               729.2977
 Red. masses --      9.0931                 5.2381                 3.7922
 Frc consts  --      2.7580                 1.6252                 1.1884
 IR Inten    --     38.5294                13.4209                22.1189

                     37                     38                     39
                      A                      A                      A
 Frequencies --    749.7060               789.2478               804.8193
 Red. masses --      3.3190                 1.2446                 3.4367
 Frc consts  --      1.0991                 0.4568                 1.3116
 IR Inten    --     55.2830                 7.4914                 3.9013

                     40                     41                     42
                      A                      A                      A
 Frequencies --    811.4412               813.9612               903.8969
 Red. masses --      2.5934                 6.8552                 5.2311
 Frc consts  --      1.0061                 2.6760                 2.5182
 IR Inten    --      8.0293                23.2647                20.1672

                     43                     44                     45
                      A                      A                      A
 Frequencies --    906.6819               941.6972               952.2549
 Red. masses --      1.5431                 1.3281                 8.1229
 Frc consts  --      0.7474                 0.6939                 4.3398
 IR Inten    --      2.4707                 7.5270                 4.5985

                     46                     47                     48
                      A                      A                      A
 Frequencies --    980.0433               995.3913              1005.2394
 Red. masses --     11.1940                 1.3786                 1.2976
 Frc consts  --      6.3347                 0.8048                 0.7726
 IR Inten    --    319.1039                 2.3173                 0.0281

                     49                     50                     51
                      A                      A                      A
 Frequencies --   1034.3044              1058.4021              1112.2422
 Red. masses --      4.2549                 1.9363                 2.1670
 Frc consts  --      2.6818                 1.2780                 1.5795
 IR Inten    --     30.8817                 1.2951                 1.5339

                     52                     53                     54
                      A                      A                      A
 Frequencies --   1123.3336              1153.8325              1162.2985
 Red. masses --      3.7427                 6.1438                 2.4324
 Frc consts  --      2.7826                 4.8192                 1.9361
 IR Inten    --    118.7546                86.7219               137.9291

                     55                     56                     57
                      A                      A                      A
 Frequencies --   1179.5103              1193.7052              1204.6394
 Red. masses --      1.3253                 2.5914                 7.5719
 Frc consts  --      1.0863                 2.1756                 6.4740
 IR Inten    --     58.5223                65.4527               229.1662

                     58                     59                     60
                      A                      A                      A
 Frequencies --   1257.6572              1280.0465              1301.9929
 Red. masses --      1.8745                 3.9313                 1.9644
 Frc consts  --      1.7469                 3.7952                 1.9620
 IR Inten    --     71.1526               471.3169                16.7473

                     61                     62                     63
                      A                      A                      A
 Frequencies --   1353.6405              1356.0520              1365.7513
 Red. masses --      5.8126                 5.8905                 4.5285
 Frc consts  --      6.2752                 6.3820                 4.9768
 IR Inten    --     18.7169                21.6649                15.4877

                     64                     65                     66
                      A                      A                      A
 Frequencies --   1409.6488              1450.3430              1479.2052
 Red. masses --      6.0012                 3.3661                 2.5068
 Frc consts  --      7.0260                 4.1717                 3.2317
 IR Inten    --    132.4094               168.1288                 6.7952

                     67                     68                     69
                      A                      A                      A
 Frequencies --   1506.2786              1532.0700              1572.4279
 Red. masses --      2.6088                 5.2572                 4.2532
 Frc consts  --      3.4873                 7.2704                 6.1960
 IR Inten    --      1.0423                50.6018               141.8551

                     70                     71                     72
                      A                      A                      A
 Frequencies --   1613.0643              1629.6204              1636.0942
 Red. masses --      7.1184                 6.3348                 1.7272
 Frc consts  --     10.9127                 9.9118                 2.7239
 IR Inten    --     57.3736               101.8585               168.8861

                     73                     74                     75
                      A                      A                      A
 Frequencies --   1655.2613              1706.0400              3156.4233
 Red. masses --      7.2988                12.1158                 1.0863
 Frc consts  --     11.7825                20.7770                 6.3764
 IR Inten    --    113.0201               202.1567                 7.0277

                     76                     77                     78
                      A                      A                      A
 Frequencies --   3173.3334              3198.3177              3201.9171
 Red. masses --      1.0925                 1.0923                 1.0929
 Frc consts  --      6.4819                 6.5829                 6.6013
 IR Inten    --     34.2070                 5.9737                14.3967

                     79                     80                     81
                      A                      A                      A
 Frequencies --   3203.4380              3377.2352              3573.0870
 Red. masses --      1.0908                 1.0573                 1.0974
 Frc consts  --      6.5951                 7.1053                 8.2548
 IR Inten    --      5.8264               413.4451               146.5650

 - Thermochemistry -
 -------------------
 Temperature   298.150 Kelvin.  Pressure   1.00000 Atm.
 Atom     1 has atomic number  6 and mass  12.00000

 Molecular mass:   379.92283 amu.
 Principal axes and moments of inertia in atomic units:
                           1         2         3
     Eigenvalues --  5952.25486********************
           X            0.08034   0.29461   0.95223
           Y            0.82362  -0.55770   0.10306
           Z            0.56142   0.77600  -0.28745
 This molecule is an asymmetric top.
 Rotational symmetry number  1.
 Warning -- assumption of classical behavior for rotation
           may cause significant error
 Rotational temperatures (Kelvin)      0.01455     0.00772     0.00516
 Rotational constants (GHZ):           0.30320     0.16092     0.10753
 Zero-point vibrational energy     494281.2 (Joules/Mol)
                                  118.13604 (Kcal/Mol)
 Warning -- explicit consideration of  30 degrees of freedom as
           vibrations may cause significant error
 Vibrational temperatures:     23.08    46.57    66.79   119.63   154.89
          (Kelvin)            175.36   187.74   201.29   246.19   303.80
                              326.28   349.51   372.78   390.30   458.43
                              522.00   556.64   577.60   594.67   619.74
                              639.91   644.26   691.69   706.24   727.45
                              757.68   764.60   852.19   871.79   879.85
                              909.61   971.88   978.34  1032.32  1044.08
                             1049.30  1078.66  1135.55  1157.96  1167.48
                             1171.11  1300.51  1304.51  1354.89  1370.08
                             1410.06  1432.15  1446.32  1488.13  1522.80
                             1600.27  1616.23  1660.11  1672.29  1697.05
                             1717.48  1733.21  1809.49  1841.70  1873.28
                             1947.59  1951.06  1965.01  2028.17  2086.72
                             2128.25  2167.20  2204.31  2262.37  2320.84
                             2344.66  2353.97  2381.55  2454.61  4541.39
                             4565.72  4601.67  4606.84  4609.03  4859.09
                             5140.88

 Zero-point correction=                           0.188262 (Hartree/Particle)
 Thermal correction to Energy=                    0.206109
 Thermal correction to Enthalpy=                  0.207054
 Thermal correction to Gibbs Free Energy=         0.140076
 Sum of electronic and zero-point Energies=          -3941.076265
 Sum of electronic and thermal Energies=             -3941.058418
 Sum of electronic and thermal Enthalpies=           -3941.057473
 Sum of electronic and thermal Free Energies=        -3941.124451

                     E (Thermal)             CV                S
                      KCal/Mol        Cal/Mol-Kelvin    Cal/Mol-Kelvin
 Total                  129.336             68.519            140.967
 Electronic               0.000              0.000              0.000
 Translational            0.889              2.981             43.697
 Rotational               0.889              2.981             35.370
 Vibrational            127.558             62.558             61.900
 Vibration     1          0.593              1.986              7.072
 Vibration     2          0.594              1.983              5.679
 Vibration     3          0.595              1.979              4.964
 Vibration     4          0.600              1.961              3.815
 Vibration     5          0.606              1.943              3.311
 Vibration     6          0.609              1.931              3.070
 Vibration     7          0.612              1.923              2.939
 Vibration     8          0.615              1.913              2.805
 Vibration     9          0.626              1.878              2.423
 Vibration    10          0.643              1.824              2.034
 Vibration    11          0.650              1.800              1.904
 Vibration    12          0.659              1.774              1.781
 Vibration    13          0.668              1.747              1.668
 Vibration    14          0.675              1.726              1.588
 Vibration    15          0.705              1.638              1.317
 Vibration    16          0.737              1.549              1.110
 Vibration    17          0.755              1.498              1.012
 Vibration    18          0.767              1.467              0.957
 Vibration    19          0.777              1.441              0.915
 Vibration    20          0.792              1.403              0.856
 Vibration    21          0.804              1.372              0.812
 Vibration    22          0.807              1.366              0.803
 Vibration    23          0.837              1.293              0.708
 Vibration    24          0.847              1.270              0.681
 Vibration    25          0.861              1.238              0.644
 Vibration    26          0.882              1.191              0.595
 Vibration    27          0.886              1.180              0.584
 Vibration    28          0.950              1.048              0.463
 Vibration    29          0.965              1.019              0.440
 Vibration    30          0.971              1.007              0.430

 Optimization completed.
    -- Stationary point found.
 Normal termination of Gaussian 16 at Wed Dec 27 23:28:46 2023.
