 Gaussian 16, Revision A.03,
 Gaussian 16:  ES64L-G16RevA.03 25-Dec-2016

 --------------------------------------
 #P UB3LYP/6-311++G(d,p) nosym opt freq
 --------------------------------------

 -------
 Radical
 -------
 Symbolic Z-matrix:
 Charge = -1 Multiplicity = 2

 SCF Done:  E(UB3LYP) =  -839.497525192     A.U. after   20 cycles
 SCF Done:  E(UB3LYP) =  -839.530925483     A.U. after   16 cycles
 SCF Done:  E(UB3LYP) =  -839.544905679     A.U. after   18 cycles
 SCF Done:  E(UB3LYP) =  -839.548200030     A.U. after   16 cycles
 SCF Done:  E(UB3LYP) =  -839.548391878     A.U. after   16 cycles
 SCF Done:  E(UB3LYP) =  -839.548548834     A.U. after   16 cycles
 SCF Done:  E(UB3LYP) =  -839.548570462     A.U. after   14 cycles
 SCF Done:  E(UB3LYP) =  -839.548574758     A.U. after   12 cycles
 SCF Done:  E(UB3LYP) =  -839.548588271     A.U. after   12 cycles
 SCF Done:  E(UB3LYP) =  -839.548587911     A.U. after   11 cycles
 SCF Done:  E(UB3LYP) =  -839.548587725     A.U. after   11 cycles
 SCF Done:  E(UB3LYP) =  -839.548588561     A.U. after   10 cycles
 Optimization completed.
    -- Stationary point found.
 Normal termination of Gaussian 16 at Thu Dec 21 20:12:29 2023.

 ----------------------------------------------------------------------
 #P Geom=AllCheck Guess=TCheck SCRF=Check GenChk UB3LYP/6-311++G(d,p) F
 req
 ----------------------------------------------------------------------

 Structure from the checkpoint file:  "185-rad.chk"
 -------
 Radical
 -------
 Charge = -1 Multiplicity = 2

                          Input orientation:
 ---------------------------------------------------------------------
 Center     Atomic      Atomic             Coordinates (Angstroms)
 Number     Number       Type             X           Y           Z
 ---------------------------------------------------------------------
      1          6           0        4.891547   -2.864997   -0.357191
      2          6           0        5.611235   -1.970520   -1.123211
      3          6           0        5.014052   -0.761696   -1.545441
      4          6           0        3.556844   -2.593678    0.016894
      5          6           0        2.954962   -1.375347   -0.408653
      6          6           0        3.711036   -0.475381   -1.191848
      7          6           0        2.823379   -3.555115    0.824575
      8          6           0        1.458587   -3.229610    1.181257
      9          6           0        0.852331   -2.002369    0.752622
     10          6           0        1.584164   -1.046573   -0.051529
     11          6           0        0.702285   -4.141112    1.970949
     12          6           0       -0.609524   -3.834067    2.316954
     13          6           0       -0.492458   -1.722462    1.126228
     14          6           0       -1.200953   -2.636801    1.898790
     15          8           0        3.370086   -4.646832    1.202897
     16          8           0        1.050257    0.048870   -0.437285
     17          8           0        1.241376   -5.309566    2.393856
     18          1           0        5.326052   -3.798796   -0.020594
     19          1           0        6.636408   -2.194288   -1.402220
     20          1           0        5.581570   -0.059025   -2.147999
     21          1           0        3.229885    0.444407   -1.502560
     22          1           0        2.176668   -5.307549    2.027236
     23          8           0       -1.097759   -0.573877    0.740056
     24          1           0       -2.223796   -2.399187    2.169598
     25          1           0       -1.163529   -4.545656    2.919219
     26          1           0       -0.402416   -0.085763    0.203958
 ---------------------------------------------------------------------

 SCF Done:  E(UB3LYP) =  -839.548588561     A.U. after    1 cycles

 Alpha  occ. eigenvalues --  -19.00723 -19.00721 -18.96971 -18.96970 -10.11544
 Alpha  occ. eigenvalues --  -10.11543 -10.11192 -10.11190 -10.07019 -10.06972
 Alpha  occ. eigenvalues --  -10.06441 -10.06433 -10.06391 -10.06356 -10.05985
 Alpha  occ. eigenvalues --  -10.05944 -10.05532 -10.05480  -0.93138  -0.92972
 Alpha  occ. eigenvalues --   -0.88596  -0.88402  -0.75222  -0.73066  -0.67648
 Alpha  occ. eigenvalues --   -0.64505  -0.63191  -0.61647  -0.56069  -0.52849
 Alpha  occ. eigenvalues --   -0.52034  -0.47904  -0.46194  -0.43112  -0.41532
 Alpha  occ. eigenvalues --   -0.40246  -0.38725  -0.36182  -0.35431  -0.34732
 Alpha  occ. eigenvalues --   -0.31994  -0.31822  -0.30955  -0.30396  -0.30135
 Alpha  occ. eigenvalues --   -0.29007  -0.28645  -0.28182  -0.28028  -0.25476
 Alpha  occ. eigenvalues --   -0.24884  -0.24155  -0.23981  -0.23794  -0.22488
 Alpha  occ. eigenvalues --   -0.18641  -0.15628  -0.14942  -0.14121  -0.13815
 Alpha  occ. eigenvalues --   -0.12842  -0.09411  -0.02762
 Alpha virt. eigenvalues --    0.06210   0.07716   0.08689   0.09194   0.09661
 Alpha virt. eigenvalues --    0.11121   0.11231   0.12177   0.12828   0.13524
 Alpha virt. eigenvalues --    0.14871   0.15105   0.15187   0.15951   0.16564

  Beta  occ. eigenvalues --  -19.00669 -19.00667 -18.96481 -18.96480 -10.11357
  Beta  occ. eigenvalues --  -10.11356 -10.11148 -10.11146 -10.06965 -10.06917
  Beta  occ. eigenvalues --  -10.06434 -10.06434 -10.06314 -10.06271 -10.05986
  Beta  occ. eigenvalues --  -10.05944 -10.05428 -10.05375  -0.92945  -0.92783
  Beta  occ. eigenvalues --   -0.87816  -0.87600  -0.74985  -0.72900  -0.67242
  Beta  occ. eigenvalues --   -0.64288  -0.63016  -0.61366  -0.55400  -0.52667
  Beta  occ. eigenvalues --   -0.51789  -0.47808  -0.46031  -0.42860  -0.41416
  Beta  occ. eigenvalues --   -0.40113  -0.38571  -0.35970  -0.35325  -0.34554
  Beta  occ. eigenvalues --   -0.31786  -0.31132  -0.30791  -0.29997  -0.29917
  Beta  occ. eigenvalues --   -0.28897  -0.28437  -0.27352  -0.27220  -0.25367
  Beta  occ. eigenvalues --   -0.23990  -0.23938  -0.23273  -0.22765  -0.22326
  Beta  occ. eigenvalues --   -0.17933  -0.14282  -0.13796  -0.13704  -0.13317
  Beta  occ. eigenvalues --   -0.12445  -0.08306
  Beta virt. eigenvalues --    0.02652   0.07165   0.07709   0.09194   0.09655
  Beta virt. eigenvalues --    0.09720   0.11127   0.11239   0.12751   0.12830
  Beta virt. eigenvalues --    0.13528   0.14918   0.15134   0.15182   0.16668

 Mulliken charges and spin densities:
               1          2
     1  C    0.017308   0.024116
     2  C   -0.440522   0.043298
     3  C   -0.440518   0.043300
     4  C    0.123778   0.037985
     5  C    0.123775   0.037970
     6  C    0.017353   0.024110
     7  C   -0.328625   0.102134
     8  C    0.583267  -0.008067
     9  C    0.583390  -0.008076
    10  C   -0.328649   0.102142
    11  C   -0.420025   0.045939
    12  C   -0.028262   0.072217
    13  C   -0.420034   0.045932
    14  C   -0.028327   0.072215
    15  O   -0.423377   0.179467
    16  O   -0.423391   0.179457
    17  O   -0.362933   0.017340
    18  H    0.161462  -0.000296
    19  H    0.127460  -0.003621
    20  H    0.127458  -0.003621
    21  H    0.161457  -0.000295
    22  H    0.337696  -0.004071
    23  O   -0.362984   0.017343
    24  H    0.152745  -0.006424
    25  H    0.152747  -0.006423
    26  H    0.337750  -0.004071
 Sum of Mulliken charges =  -1.00000   1.00000

 Dipole moment (field-independent basis, Debye):
    X=             -7.4403    Y=             11.9969    Z=             -3.5970  Tot=             14.5678
 Quadrupole moment (field-independent basis, Debye-Ang):
   XX=           -136.4502   YY=           -164.3918   ZZ=           -118.5295
   XY=             27.4379   XZ=             -4.6304   YZ=             18.6520

  Exact polarizability: 288.425   3.467 206.209 -77.957 -62.383 157.934
 Approx polarizability: 466.774 -22.661 381.611-111.666-117.044 256.509

                      1                      2                      3
                      A                      A                      A
 Frequencies --     60.5771                91.0171               144.9964
 Red. masses --      6.5509                 6.7625                 5.8095
 Frc consts  --      0.0142                 0.0330                 0.0720
 IR Inten    --      2.3582                 0.0000                 0.0000

                      4                      5                      6
                      A                      A                      A
 Frequencies --    150.7461               175.2007               213.8512
 Red. masses --      7.5453                 8.2167                 5.5126
 Frc consts  --      0.1010                 0.1486                 0.1485
 IR Inten    --      0.5312                 0.7377                 0.3603

                      7                      8                      9
                      A                      A                      A
 Frequencies --    243.8424               329.6249               345.0017
 Red. masses --      6.0281                 6.8797                 6.4068
 Frc consts  --      0.2112                 0.4404                 0.4493
 IR Inten    --      0.2512                 1.5170                 5.4901

                     10                     11                     12
                      A                      A                      A
 Frequencies --    374.1967               398.3441               413.1527
 Red. masses --      6.7537                12.5897                 6.4999
 Frc consts  --      0.5572                 1.1770                 0.6537
 IR Inten    --      0.0000                 0.1023                 0.0000

                     13                     14                     15
                      A                      A                      A
 Frequencies --    431.4222               437.3753               440.6020
 Red. masses --      7.3344                 3.3533                12.2707
 Frc consts  --      0.8043                 0.3779                 1.4035
 IR Inten    --     27.4417                 1.2334                 4.4676

                     16                     17                     18
                      A                      A                      A
 Frequencies --    471.7169               491.4528               518.4084
 Red. masses --     10.2095                 4.5668                 5.9620
 Frc consts  --      1.3385                 0.6499                 0.9440
 IR Inten    --      4.5566                 0.0000                18.9563

                     19                     20                     21
                      A                      A                      A
 Frequencies --    530.0770               587.3272               604.5748
 Red. masses --      9.6928                 3.3341                 5.4167
 Frc consts  --      1.6046                 0.6776                 1.1665
 IR Inten    --      0.5539                23.9951                 0.8390

                     22                     23                     24
                      A                      A                      A
 Frequencies --    640.4154               664.3125               709.8803
 Red. masses --      4.9784                 6.6619                 6.9829
 Frc consts  --      1.2030                 1.7322                 2.0733
 IR Inten    --      0.0000                 6.9122                27.0576

                     25                     26                     27
                      A                      A                      A
 Frequencies --    714.6988               716.3869               763.1453
 Red. masses --      2.2345                 6.8951                 7.3122
 Frc consts  --      0.6725                 2.0849                 2.5091
 IR Inten    --     19.5137                 0.0002                18.5628

                     28                     29                     30
                      A                      A                      A
 Frequencies --    776.9422               779.9577               817.9195
 Red. masses --      5.6169                 1.8219                 1.7606
 Frc consts  --      1.9977                 0.6530                 0.6939
 IR Inten    --      0.0000                51.2386                48.1957

                     31                     32                     33
                      A                      A                      A
 Frequencies --    867.5076               879.3664               898.3926
 Red. masses --      1.4333                 7.6076                 1.3109
 Frc consts  --      0.6355                 3.4661                 0.6234
 IR Inten    --      0.0000                37.2448                 0.0049

                     34                     35                     36
                      A                      A                      A
 Frequencies --    913.7972               915.5521               917.0568
 Red. masses --      7.8616                 1.0617                 1.0579
 Frc consts  --      3.8677                 0.5244                 0.5242
 IR Inten    --     20.1610                14.5882               128.4106

                     37                     38                     39
                      A                      A                      A
 Frequencies --    981.1073               982.2935               982.9964
 Red. masses --      1.3624                 5.9829                 1.2601
 Frc consts  --      0.7727                 3.4013                 0.7174
 IR Inten    --      1.7021                58.1440                 0.0020

                     40                     41                     42
                      A                      A                      A
 Frequencies --   1033.2506              1070.6198              1110.6254
 Red. masses --      2.3969                 1.9550                 2.2206
 Frc consts  --      1.5077                 1.3203                 1.6138
 IR Inten    --     24.5900                 6.5501                26.6152

                     43                     44                     45
                      A                      A                      A
 Frequencies --   1148.9968              1171.2445              1194.4677
 Red. masses --      1.4236                 1.4849                 2.0523
 Frc consts  --      1.1074                 1.2002                 1.7252
 IR Inten    --     21.7727                11.1699                24.1684

                     46                     47                     48
                      A                      A                      A
 Frequencies --   1245.9526              1256.3230              1283.2394
 Red. masses --      1.7057                 3.9901                 7.5480
 Frc consts  --      1.5601                 3.7106                 7.3232
 IR Inten    --      1.3609                 0.3572                 0.6975

                     49                     50                     51
                      A                      A                      A
 Frequencies --   1284.6209              1308.1989              1325.7950
 Red. masses --      2.6235                 4.1224                 3.1125
 Frc consts  --      2.5508                 4.1567                 3.2234
 IR Inten    --     96.3370               133.0575               271.0991

                     52                     53                     54
                      A                      A                      A
 Frequencies --   1360.5380              1380.0057              1404.6042
 Red. masses --     10.7377                 5.7873                 2.8905
 Frc consts  --     11.7107                 6.4937                 3.3599
 IR Inten    --     11.1305                 0.1232               284.8595

                     55                     56                     57
                      A                      A                      A
 Frequencies --   1453.1797              1484.0379              1488.1503
 Red. masses --      5.6945                 2.3790                 4.0282
 Frc consts  --      7.0851                 3.0870                 5.2559
 IR Inten    --      0.0477                31.0695               132.8046

                     58                     59                     60
                      A                      A                      A
 Frequencies --   1511.9849              1523.8078              1564.1929
 Red. masses --      2.1304                 4.8115                 4.9695
 Frc consts  --      2.8695                 6.5824                 7.1638
 IR Inten    --    570.7615               311.9472                59.7159

                     61                     62                     63
                      A                      A                      A
 Frequencies --   1600.0015              1623.6547              1638.0453
 Red. masses --      1.8071                 5.7371                 5.6707
 Frc consts  --      2.7257                 8.9111                 8.9648
 IR Inten    --    156.6937                 0.7855                 0.9214

                     64                     65                     66
                      A                      A                      A
 Frequencies --   1654.2508              2999.7377              3007.2298
 Red. masses --      2.5055                 1.0726                 1.0730
 Frc consts  --      4.0397                 5.6867                 5.7175
 IR Inten    --      4.1169                 0.3513               554.7773

                     67                     68                     69
                      A                      A                      A
 Frequencies --   3139.0038              3157.5968              3162.7776
 Red. masses --      1.0850                 1.0913                 1.0864
 Frc consts  --      6.2987                 6.4107                 6.4031
 IR Inten    --     17.2970                45.3622                19.8073

                     70                     71                     72
                      A                      A                      A
 Frequencies --   3179.7462              3187.7207              3190.0356
 Red. masses --      1.0936                 1.0915                 1.0930
 Frc consts  --      6.5148                 6.5349                 6.5532
 IR Inten    --     32.3010                 7.8653                25.2560

 - Thermochemistry -
 -------------------
 Temperature   298.150 Kelvin.  Pressure   1.00000 Atm.
 Atom     1 has atomic number  6 and mass  12.00000

 Molecular mass:   240.04226 amu.
 Principal axes and moments of inertia in atomic units:
                           1         2         3
     Eigenvalues --  2563.719524632.930497196.64998
           X            0.84610  -0.42266   0.32476
           Y            0.25437   0.85561   0.45081
           Z           -0.46841  -0.29883   0.83144
 This molecule is an asymmetric top.
 Rotational symmetry number  1.
 Warning -- assumption of classical behavior for rotation
           may cause significant error
 Rotational temperatures (Kelvin)      0.03378     0.01870     0.01204
 Rotational constants (GHZ):           0.70395     0.38955     0.25078
 Zero-point vibrational energy     487591.1 (Joules/Mol)
                                  116.53708 (Kcal/Mol)
 Warning -- explicit consideration of  21 degrees of freedom as
           vibrations may cause significant error
 Vibrational temperatures:     87.16   130.95   208.62   216.89   252.07
          (Kelvin)            307.68   350.83   474.26   496.38   538.39
                              573.13   594.43   620.72   629.29   633.93
                              678.70   707.09   745.87   762.66   845.03
                              869.85   921.41   955.80  1021.36  1028.29
                             1030.72  1098.00  1117.85  1122.19  1176.80
                             1248.15  1265.21  1292.59  1314.75  1317.28
                             1319.44  1411.59  1413.30  1414.31  1486.62
                             1540.38  1597.94  1653.15  1685.16  1718.57
                             1792.65  1807.57  1846.30  1848.28  1882.21
                             1907.52  1957.51  1985.52  2020.91  2090.80
                             2135.20  2141.12  2175.41  2192.42  2250.52
                             2302.05  2336.08  2356.78  2380.10  4315.95
                             4326.73  4516.33  4543.08  4550.53  4574.95
                             4586.42  4589.75

 Zero-point correction=                           0.185714 (Hartree/Particle)
 Thermal correction to Energy=                    0.198420
 Thermal correction to Enthalpy=                  0.199364
 Thermal correction to Gibbs Free Energy=         0.146188
 Sum of electronic and zero-point Energies=           -839.362875
 Sum of electronic and thermal Energies=              -839.350168
 Sum of electronic and thermal Enthalpies=            -839.349224
 Sum of electronic and thermal Free Energies=         -839.402401

                     E (Thermal)             CV                S
                      KCal/Mol        Cal/Mol-Kelvin    Cal/Mol-Kelvin
 Total                  124.510             52.715            111.919
 Electronic               0.000              0.000              1.377
 Translational            0.889              2.981             42.328
 Rotational               0.889              2.981             32.813
 Vibrational            122.733             46.754             35.400
 Vibration     1          0.597              1.973              4.438
 Vibration     2          0.602              1.956              3.638
 Vibration     3          0.616              1.908              2.737
 Vibration     4          0.618              1.902              2.663
 Vibration     5          0.627              1.873              2.379
 Vibration     6          0.644              1.820              2.011
 Vibration     7          0.659              1.773              1.775
 Vibration     8          0.712              1.616              1.262
 Vibration     9          0.723              1.585              1.189
 Vibration    10          0.745              1.525              1.063
 Vibration    11          0.765              1.474              0.969
 Vibration    12          0.777              1.442              0.916
 Vibration    13          0.792              1.402              0.854
 Vibration    14          0.798              1.389              0.835
 Vibration    15          0.801              1.382              0.825
 Vibration    16          0.829              1.313              0.733
 Vibration    17          0.847              1.269              0.680
 Vibration    18          0.873              1.209              0.614
 Vibration    19          0.885              1.183              0.587
 Vibration    20          0.944              1.059              0.472
 Vibration    21          0.963              1.022              0.442

 Optimization completed.
    -- Stationary point found.
 Normal termination of Gaussian 16 at Thu Dec 21 21:12:29 2023.
