 Gaussian 16, Revision A.03,
 Gaussian 16:  ES64L-G16RevA.03 25-Dec-2016

 --------------------------------------
 #P UB3LYP/6-311++G(d,p) nosym opt freq
 --------------------------------------

 -------
 Radical
 -------
 Symbolic Z-matrix:
 Charge = -1 Multiplicity = 2

 SCF Done:  E(UB3LYP) =  -538.947511976     A.U. after   19 cycles
 SCF Done:  E(UB3LYP) =  -538.947548077     A.U. after   12 cycles
 SCF Done:  E(UB3LYP) =  -538.947547895     A.U. after   12 cycles
 SCF Done:  E(UB3LYP) =  -538.947551395     A.U. after   10 cycles
 SCF Done:  E(UB3LYP) =  -538.947552072     A.U. after    9 cycles
 SCF Done:  E(UB3LYP) =  -538.947552799     A.U. after   11 cycles
 SCF Done:  E(UB3LYP) =  -538.947570748     A.U. after   13 cycles
 SCF Done:  E(UB3LYP) =  -538.910452014     A.U. after   18 cycles
 SCF Done:  E(UB3LYP) =  -538.947787765     A.U. after   15 cycles
 SCF Done:  E(UB3LYP) =  -538.897745826     A.U. after   19 cycles
 SCF Done:  E(UB3LYP) =  -538.948668634     A.U. after   13 cycles
 SCF Done:  E(UB3LYP) =  -538.948680974     A.U. after   12 cycles
 SCF Done:  E(UB3LYP) =  -538.948701065     A.U. after   13 cycles
 SCF Done:  E(UB3LYP) =  -538.948712139     A.U. after   12 cycles
 SCF Done:  E(UB3LYP) =  -538.948714892     A.U. after   11 cycles
 SCF Done:  E(UB3LYP) =  -538.948715150     A.U. after   10 cycles
 SCF Done:  E(UB3LYP) =  -538.948715187     A.U. after    9 cycles
 SCF Done:  E(UB3LYP) =  -538.948715234     A.U. after    9 cycles
 SCF Done:  E(UB3LYP) =  -538.948715251     A.U. after    8 cycles
 Optimization completed.
    -- Stationary point found.
 Normal termination of Gaussian 16 at Fri Jan 19 04:07:47 2024.

 ----------------------------------------------------------------------
 #P Geom=AllCheck Guess=TCheck SCRF=Check GenChk UB3LYP/6-311++G(d,p) F
 req
 ----------------------------------------------------------------------

 Structure from the checkpoint file:  "053-rad.chk"
 -------
 Radical
 -------
 Charge = -1 Multiplicity = 2

                          Input orientation:
 ---------------------------------------------------------------------
 Center     Atomic      Atomic             Coordinates (Angstroms)
 Number     Number       Type             X           Y           Z
 ---------------------------------------------------------------------
      1          6           0        0.258273    1.462572   -0.960487
      2          6           0       -0.959231    0.662424   -0.936118
      3          6           0       -0.915567   -0.711604   -0.836261
      4          6           0        0.350121   -1.428369   -0.750183
      5          6           0        1.567635   -0.628211   -0.774458
      6          6           0        1.523978    0.745805   -0.874357
      7          8           0        0.218077    2.728063   -1.052494
      8          8           0        0.390338   -2.693857   -0.658120
      9          6           0        2.787500    1.571296   -0.899222
     10          6           0        2.880873   -1.367132   -0.685571
     11          6           0       -2.272479    1.401328   -1.024985
     12          6           0       -2.179100   -1.537092   -0.811503
     13          1           0        3.432960    1.301368   -1.745270
     14          1           0        3.386187    1.425975    0.009480
     15          1           0        2.526853    2.626876   -0.981128
     16          1           0        2.687872   -2.438012   -0.615836
     17          1           0        3.463573   -1.056716    0.191584
     18          1           0        3.513180   -1.179642   -1.563227
     19          1           0       -2.079530    2.472309   -1.093319
     20          1           0       -2.905413    1.212632   -0.148055
     21          1           0       -2.854507    1.092003   -1.902988
     22          1           0       -2.824513   -1.267352    0.034640
     23          1           0       -1.918462   -2.592691   -0.729830
     24          1           0       -2.777819   -1.391553   -1.720152
 ---------------------------------------------------------------------

 SCF Done:  E(UB3LYP) =  -538.948715251     A.U. after    1 cycles

 Alpha  occ. eigenvalues --  -18.92604 -18.92604 -10.07042 -10.07041 -10.02842
 Alpha  occ. eigenvalues --  -10.02842 -10.02841 -10.02841 -10.02651 -10.02648
 Alpha  occ. eigenvalues --  -10.02589 -10.02589  -0.84858  -0.84574  -0.69083
 Alpha  occ. eigenvalues --   -0.65818  -0.59209  -0.58953  -0.56512  -0.50093
 Alpha  occ. eigenvalues --   -0.49703  -0.40945  -0.40230  -0.36310  -0.30818
 Alpha  occ. eigenvalues --   -0.30607  -0.29430  -0.28246  -0.27786  -0.27065
 Alpha  occ. eigenvalues --   -0.26478  -0.25768  -0.25164  -0.24993  -0.24459
 Alpha  occ. eigenvalues --   -0.23332  -0.23091  -0.21592  -0.20190  -0.19801
 Alpha  occ. eigenvalues --   -0.12405  -0.09826  -0.09449  -0.08572  -0.01126
 Alpha virt. eigenvalues --    0.09042   0.09487   0.11210   0.11753   0.12107
 Alpha virt. eigenvalues --    0.12804   0.13381   0.13744   0.14619   0.15039
 Alpha virt. eigenvalues --    0.15128   0.15442   0.16071   0.16910   0.17555

  Beta  occ. eigenvalues --  -18.91897 -18.91896 -10.06905 -10.06904 -10.02851
  Beta  occ. eigenvalues --  -10.02851 -10.02851 -10.02850 -10.02544 -10.02542
  Beta  occ. eigenvalues --  -10.02482 -10.02481  -0.83645  -0.83321  -0.68560
  Beta  occ. eigenvalues --   -0.65644  -0.58866  -0.58843  -0.56308  -0.49973
  Beta  occ. eigenvalues --   -0.48881  -0.40602  -0.39834  -0.36152  -0.30344
  Beta  occ. eigenvalues --   -0.30291  -0.29309  -0.28006  -0.27397  -0.26755
  Beta  occ. eigenvalues --   -0.26395  -0.25722  -0.25077  -0.24920  -0.23943
  Beta  occ. eigenvalues --   -0.23002  -0.21558  -0.19855  -0.19609  -0.18797
  Beta  occ. eigenvalues --   -0.09169  -0.09152  -0.08705  -0.07934
  Beta virt. eigenvalues --    0.06047   0.09049   0.09489   0.11215   0.11754
  Beta virt. eigenvalues --    0.12138   0.12803   0.13745   0.14479   0.14610
  Beta virt. eigenvalues --    0.15100   0.15154   0.15453   0.16350   0.16907

 Mulliken charges and spin densities:
               1          2
     1  C   -1.402095   0.085166
     2  C    0.838110   0.074090
     3  C    0.838123   0.074087
     4  C   -1.402076   0.085168
     5  C    0.838061   0.074080
     6  C    0.838130   0.074084
     7  O   -0.406621   0.257108
     8  O   -0.406623   0.257111
     9  C   -0.604077   0.000121
    10  C   -0.604075   0.000120
    11  C   -0.604085   0.000118
    12  C   -0.604092   0.000119
    13  H    0.110655   0.003665
    14  H    0.110670   0.003652
    15  H    0.199012  -0.002661
    16  H    0.199008  -0.002661
    17  H    0.110703   0.003671
    18  H    0.110611   0.003646
    19  H    0.199008  -0.002660
    20  H    0.110566   0.003638
    21  H    0.110750   0.003680
    22  H    0.110641   0.003667
    23  H    0.199012  -0.002661
    24  H    0.110682   0.003651
 Sum of Mulliken charges =  -1.00000   1.00000

 Dipole moment (field-independent basis, Debye):
    X=             -1.4612    Y=             -0.0821    Z=              4.1082  Tot=              4.3610
 Quadrupole moment (field-independent basis, Debye-Ang):
   XX=            -83.7197   YY=           -114.0449   ZZ=            -80.7442
   XY=              0.9423   XZ=              1.0097   YZ=              2.7577

  Exact polarizability: 170.901  -0.210 182.314   2.315  -6.866  87.537
 Approx polarizability: 217.800  -3.020 317.484   2.472 -13.172 136.671

                      1                      2                      3
                      A                      A                      A
 Frequencies --     75.2265                76.2940                89.0105
 Red. masses --      1.0669                 1.0552                 4.4860
 Frc consts  --      0.0036                 0.0036                 0.0209
 IR Inten    --      0.0042                 0.0000                12.0720

                      4                      5                      6
                      A                      A                      A
 Frequencies --    116.1456               117.4776               120.0510
 Red. masses --      2.5182                 1.1198                 1.0249
 Frc consts  --      0.0200                 0.0091                 0.0087
 IR Inten    --      0.0015                 0.5687                 0.0001

                      7                      8                      9
                      A                      A                      A
 Frequencies --    148.2740               198.3299               300.9661
 Red. masses --      3.5083                 3.4194                 2.7400
 Frc consts  --      0.0454                 0.0792                 0.1462
 IR Inten    --      0.0000                 0.0815                 4.5792

                     10                     11                     12
                      A                      A                      A
 Frequencies --    307.8483               315.2968               317.4206
 Red. masses --      2.5169                 3.5216                 2.5323
 Frc consts  --      0.1405                 0.2063                 0.1503
 IR Inten    --      0.0000                 0.0001                 1.8693

                     13                     14                     15
                      A                      A                      A
 Frequencies --    362.4143               415.6244               417.2938
 Red. masses --      4.5133                 5.2392                 9.3655
 Frc consts  --      0.3493                 0.5332                 0.9609
 IR Inten    --      0.0000                 0.0003                20.6508

                     16                     17                     18
                      A                      A                      A
 Frequencies --    434.5973               458.9511               552.5148
 Red. masses --      4.9257                 6.4307                 3.6095
 Frc consts  --      0.5481                 0.7981                 0.6492
 IR Inten    --      0.0000                 0.0000                 0.0000

                     19                     20                     21
                      A                      A                      A
 Frequencies --    556.4296               614.8964               677.3591
 Red. masses --      6.4528                 4.7801                 3.0679
 Frc consts  --      1.1771                 1.0649                 0.8293
 IR Inten    --      0.0000                22.7478                 0.0000

                     22                     23                     24
                      A                      A                      A
 Frequencies --    705.4366               766.9552               852.3852
 Red. masses --      6.0182                 5.5133                 2.1283
 Frc consts  --      1.7646                 1.9107                 0.9111
 IR Inten    --      7.8584                 0.0000                14.2812

                     25                     26                     27
                      A                      A                      A
 Frequencies --    876.8399               986.1131              1015.5419
 Red. masses --      3.3419                 1.4162                 3.7713
 Frc consts  --      1.5138                 0.8114                 2.2916
 IR Inten    --      0.0030                 0.0000                 0.0000

                     28                     29                     30
                      A                      A                      A
 Frequencies --   1015.9161              1023.8770              1027.2830
 Red. masses --      1.6720                 1.3723                 1.4364
 Frc consts  --      1.0167                 0.8476                 0.8931
 IR Inten    --     28.0636                 0.0001                 0.0177

                     31                     32                     33
                      A                      A                      A
 Frequencies --   1053.8847              1058.9121              1098.9515
 Red. masses --      1.5352                 1.5130                 2.1518
 Frc consts  --      1.0046                 0.9996                 1.5311
 IR Inten    --      0.0000                 0.0011                 0.0000

                     34                     35                     36
                      A                      A                      A
 Frequencies --   1121.6423              1161.1430              1218.3855
 Red. masses --      2.7955                 4.7434                 6.3571
 Frc consts  --      2.0722                 3.7680                 5.5600
 IR Inten    --     34.3372                 0.0000                27.9575

                     37                     38                     39
                      A                      A                      A
 Frequencies --   1300.0939              1367.9023              1373.8465
 Red. masses --      3.4258                 1.3049                 1.5000
 Frc consts  --      3.4116                 1.4386                 1.6681
 IR Inten    --     17.8079                 0.0000                89.2691

                     40                     41                     42
                      A                      A                      A
 Frequencies --   1382.8030              1384.8828              1425.4679
 Red. masses --      1.3126                 1.2521                 2.5422
 Frc consts  --      1.4788                 1.4148                 3.0435
 IR Inten    --      0.0000                 6.3391                 0.0000

                     43                     44                     45
                      A                      A                      A
 Frequencies --   1475.0589              1475.4122              1477.4201
 Red. masses --      1.2105                 1.1339                 1.0682
 Frc consts  --      1.5518                 1.4542                 1.3738
 IR Inten    --      0.0000                 0.9750                74.7144

                     46                     47                     48
                      A                      A                      A
 Frequencies --   1491.4987              1491.9139              1491.9434
 Red. masses --      1.0507                 1.0665                 1.3695
 Frc consts  --      1.3771                 1.3986                 1.7960
 IR Inten    --      0.0001                 0.0018                 0.0001

                     49                     50                     51
                      A                      A                      A
 Frequencies --   1497.4177              1500.7372              1506.1450
 Red. masses --      4.1929                 8.0873                 1.0485
 Frc consts  --      5.5393                10.7316                 1.4013
 IR Inten    --      0.0002               425.4884                23.2856

                     52                     53                     54
                      A                      A                      A
 Frequencies --   1506.4232              1531.0134              1629.1192
 Red. masses --      1.0480                 5.4953                 8.7756
 Frc consts  --      1.4012                 7.5892                13.7225
 IR Inten    --      0.0021                44.0620                 0.0000

                     55                     56                     57
                      A                      A                      A
 Frequencies --   2983.8527              2983.8677              2984.3588
 Red. masses --      1.0418                 1.0418                 1.0406
 Frc consts  --      5.4650                 5.4651                 5.4605
 IR Inten    --     21.0407                 0.9705               396.1326

                     58                     59                     60
                      A                      A                      A
 Frequencies --   2986.8568              3013.4501              3013.8906
 Red. masses --      1.0407                 1.0990                 1.0988
 Frc consts  --      5.4700                 5.8798                 5.8805
 IR Inten    --      0.0010                 0.0034               205.8710

                     61                     62                     63
                      A                      A                      A
 Frequencies --   3016.6601              3016.6678              3108.0857
 Red. masses --      1.0987                 1.0987                 1.0938
 Frc consts  --      5.8909                 5.8907                 6.2256
 IR Inten    --      0.0015                 0.0106                 3.4529

                     64                     65                     66
                      A                      A                      A
 Frequencies --   3108.7542              3108.9351              3109.2316
 Red. masses --      1.0939                 1.0937                 1.0939
 Frc consts  --      6.2286                 6.2281                 6.2305
 IR Inten    --      0.0004                 0.0044                32.5807

 - Thermochemistry -
 -------------------
 Temperature   298.150 Kelvin.  Pressure   1.00000 Atm.
 Atom     1 has atomic number  6 and mass  12.00000

 Molecular mass:   164.08373 amu.
 Principal axes and moments of inertia in atomic units:
                           1         2         3
     Eigenvalues --  1638.613771747.826603341.85719
           X            0.99912  -0.03177  -0.02721
           Y            0.03365   0.99686   0.07164
           Z            0.02485  -0.07250   0.99706
 This molecule is an asymmetric top.
 Rotational symmetry number  1.
 Warning -- assumption of classical behavior for rotation
           may cause significant error
 Rotational temperatures (Kelvin)      0.05286     0.04956     0.02592
 Rotational constants (GHZ):           1.10138     1.03256     0.54004
 Zero-point vibrational energy     504820.5 (Joules/Mol)
                                  120.65500 (Kcal/Mol)
 Warning -- explicit consideration of  20 degrees of freedom as
           vibrations may cause significant error
 Vibrational temperatures:    108.23   109.77   128.07   167.11   169.02
          (Kelvin)            172.73   213.33   285.35   433.02   442.92
                              453.64   456.70   521.43   597.99   600.39
                              625.29   660.33   794.95   800.58   884.70
                              974.57  1014.97  1103.48  1226.39  1261.58
                             1418.80  1461.14  1461.68  1473.13  1478.03
                             1516.30  1523.54  1581.15  1613.79  1670.63
                             1752.98  1870.55  1968.11  1976.66  1989.55
                             1992.54  2050.93  2122.28  2122.79  2125.68
                             2145.93  2146.53  2146.57  2154.45  2159.23
                             2167.01  2167.41  2202.79  2343.94  4293.10
                             4293.12  4293.83  4297.42  4335.68  4336.32
                             4340.30  4340.31  4471.84  4472.80  4473.06
                             4473.49

 Zero-point correction=                           0.192276 (Hartree/Particle)
 Thermal correction to Energy=                    0.205235
 Thermal correction to Enthalpy=                  0.206180
 Thermal correction to Gibbs Free Energy=         0.152558
 Sum of electronic and zero-point Energies=           -538.756439
 Sum of electronic and thermal Energies=              -538.743480
 Sum of electronic and thermal Enthalpies=            -538.742536
 Sum of electronic and thermal Free Energies=         -538.796158

                     E (Thermal)             CV                S
                      KCal/Mol        Cal/Mol-Kelvin    Cal/Mol-Kelvin
 Total                  128.787             46.940            112.857
 Electronic               0.000              0.000              1.377
 Translational            0.889              2.981             41.194
 Rotational               0.889              2.981             30.638
 Vibrational            127.010             40.978             39.648
 Vibration     1          0.599              1.966              4.012
 Vibration     2          0.599              1.965              3.984
 Vibration     3          0.602              1.957              3.682
 Vibration     4          0.608              1.936              3.164
 Vibration     5          0.608              1.935              3.141
 Vibration     6          0.609              1.933              3.100
 Vibration     7          0.618              1.905              2.694
 Vibration     8          0.637              1.842              2.149
 Vibration     9          0.693              1.672              1.412
 Vibration    10          0.698              1.659              1.374
 Vibration    11          0.703              1.644              1.334
 Vibration    12          0.704              1.640              1.323
 Vibration    13          0.736              1.550              1.112
 Vibration    14          0.779              1.436              0.907
 Vibration    15          0.780              1.433              0.901
 Vibration    16          0.795              1.395              0.844
 Vibration    17          0.817              1.341              0.769
 Vibration    18          0.908              1.134              0.539
 Vibration    19          0.912              1.126              0.531
 Vibration    20          0.974              1.000              0.425

 Optimization completed.
    -- Stationary point found.
 Normal termination of Gaussian 16 at Fri Jan 19 04:20:21 2024.
