 Q-Chem 5.4, Q-Chem, Inc., Pleasanton, CA (2021)
 Q-Chem 5.4.0 for Intel X86 EM64T Linux

User input:
--------------------------------------------------------------
$molecule
-1 2
C                  0.2582730000      1.4625720000     -0.9604870000
C                 -0.9592310000      0.6624240000     -0.9361180000
C                 -0.9155670000     -0.7116040000     -0.8362610000
C                  0.3501210000     -1.4283690000     -0.7501830000
C                  1.5676350000     -0.6282110000     -0.7744580000
C                  1.5239780000      0.7458050000     -0.8743570000
O                  0.2180770000      2.7280630000     -1.0524940000
O                  0.3903380000     -2.6938570000     -0.6581200000
C                  2.7875000000      1.5712960000     -0.8992220000
C                  2.8808730000     -1.3671320000     -0.6855710000
C                 -2.2724790000      1.4013280000     -1.0249850000
C                 -2.1791000000     -1.5370920000     -0.8115030000
H                  3.4329600000      1.3013680000     -1.7452700000
H                  3.3861870000      1.4259750000      0.0094800000
H                  2.5268530000      2.6268760000     -0.9811280000
H                  2.6878720000     -2.4380120000     -0.6158360000
H                  3.4635730000     -1.0567160000      0.1915840000
H                  3.5131800000     -1.1796420000     -1.5632270000
H                 -2.0795300000      2.4723090000     -1.0933190000
H                 -2.9054130000      1.2126320000     -0.1480550000
H                 -2.8545070000      1.0920030000     -1.9029880000
H                 -2.8245130000     -1.2673520000      0.0346400000
H                 -1.9184620000     -2.5926910000     -0.7298300000
H                 -2.7778190000     -1.3915530000     -1.7201520000
$end
$rem
MAX_SCF_CYCLES=200
BASIS  =  6-311++G(d,p)
GUI  =  2
JOB_TYPE  =  SP
METHOD  =  B3LYP
SOLVENT_METHOD = PCM
$end
$pcm
theory = CPCM
$end
$solvent
dielectric 37.219
opticaldielectric 1.43
$end

--------------------------------------------------------------

             Standard Nuclear Orientation (Angstroms)
    I     Atom           X                Y                Z
 ----------------------------------------------------------------
    1      C       0.2582730000     1.4625720000    -0.9604870000
    2      C      -0.9592310000     0.6624240000    -0.9361180000
    3      C      -0.9155670000    -0.7116040000    -0.8362610000
    4      C       0.3501210000    -1.4283690000    -0.7501830000
    5      C       1.5676350000    -0.6282110000    -0.7744580000
    6      C       1.5239780000     0.7458050000    -0.8743570000
    7      O       0.2180770000     2.7280630000    -1.0524940000
    8      O       0.3903380000    -2.6938570000    -0.6581200000
    9      C       2.7875000000     1.5712960000    -0.8992220000
   10      C       2.8808730000    -1.3671320000    -0.6855710000
   11      C      -2.2724790000     1.4013280000    -1.0249850000
   12      C      -2.1791000000    -1.5370920000    -0.8115030000
   13      H       3.4329600000     1.3013680000    -1.7452700000
   14      H       3.3861870000     1.4259750000     0.0094800000
   15      H       2.5268530000     2.6268760000    -0.9811280000
   16      H       2.6878720000    -2.4380120000    -0.6158360000
   17      H       3.4635730000    -1.0567160000     0.1915840000
   18      H       3.5131800000    -1.1796420000    -1.5632270000
   19      H      -2.0795300000     2.4723090000    -1.0933190000
   20      H      -2.9054130000     1.2126320000    -0.1480550000
   21      H      -2.8545070000     1.0920030000    -1.9029880000
   22      H      -2.8245130000    -1.2673520000     0.0346400000
   23      H      -1.9184620000    -2.5926910000    -0.7298300000
   24      H      -2.7778190000    -1.3915530000    -1.7201520000
 ----------------------------------------------------------------

    8    -539.0301375494      4.82e-06  Convergence criterion met
 Total energy in the final basis set =     -539.0301375494

                    Orbital Energies (a.u.)
 --------------------------------------------------------------

 Alpha MOs
 -- Occupied --
-19.0687 -19.0686 -10.2092 -10.2092 -10.1590 -10.1589 -10.1584 -10.1584
-10.1476 -10.1476 -10.1476 -10.1476  -0.9913  -0.9888  -0.8237  -0.7857
 -0.7188  -0.7133  -0.6897  -0.6286  -0.6255  -0.5379  -0.5350  -0.4949
 -0.4394  -0.4344  -0.4141  -0.4134  -0.4093  -0.3938  -0.3826  -0.3824
 -0.3822  -0.3757  -0.3705  -0.3670  -0.3559  -0.3548  -0.3352  -0.3258
 -0.2623  -0.2416  -0.2267  -0.2243  -0.1516

 Beta MOs
 -- Occupied --
-19.0621 -19.0621 -10.2073 -10.2073 -10.1580 -10.1580 -10.1574 -10.1574
-10.1477 -10.1477 -10.1477 -10.1476  -0.9798  -0.9770  -0.8184  -0.7840
 -0.7146  -0.7121  -0.6876  -0.6244  -0.6206  -0.5344  -0.5306  -0.4931
 -0.4353  -0.4272  -0.4121  -0.4085  -0.4079  -0.3876  -0.3818  -0.3817
 -0.3792  -0.3750  -0.3696  -0.3550  -0.3500  -0.3326  -0.3300  -0.3239
 -0.2356  -0.2328  -0.2210  -0.2173

          Ground-State Mulliken Net Atomic Charges

     Atom                 Charge (a.u.)    Spin (a.u.)
  --------------------------------------------------------
      1 C                    -1.111596       0.123235
      2 C                     0.639541       0.065305
      3 C                     0.642031       0.065277
      4 C                    -1.111478       0.123236
      5 C                     0.639432       0.065297
      6 C                     0.642121       0.065282
      7 O                    -0.521513       0.235583
      8 O                    -0.521519       0.235585
      9 C                    -0.558534       0.000476
     10 C                    -0.558136       0.000465
     11 C                    -0.558233       0.000463
     12 C                    -0.558484       0.000474
     13 H                     0.154517       0.003487
     14 H                     0.154550       0.003467
     15 H                     0.175237      -0.002119
     16 H                     0.174828      -0.002121
     17 H                     0.154714       0.003487
     18 H                     0.154338       0.003460
     19 H                     0.174830      -0.002121
     20 H                     0.154257       0.003453
     21 H                     0.154800       0.003495
     22 H                     0.154514       0.003488
     23 H                     0.175241      -0.002119
     24 H                     0.154541       0.003466
  --------------------------------------------------------
  Sum of atomic charges =    -1.000000

                    Cartesian Multipole Moments
 -----------------------------------------------------------------
    Charge (ESU x 10^10)
                -4.8032
    Dipole Moment (Debye)
         X      -1.4612      Y      -0.0822      Z       4.1080
       Tot       4.3609
    Quadrupole Moments (Debye-Ang)
        XX     -73.6569     XY       1.4175     YY    -118.2088
        XZ       1.2298     YZ       3.1195     ZZ     -79.9291

 Total job time:  25.33s(wall), 190.41s(cpu)
        *  Thank you very much for using Q-Chem.  Have a nice day.  *
