 Q-Chem 5.4, Q-Chem, Inc., Pleasanton, CA (2021)
 Q-Chem 5.4.0 for Intel X86 EM64T Linux

User input:
--------------------------------------------------------------
$molecule
-2 1
C                  2.6431500000      1.4343070000     -0.2136500000
O                  2.4758130000      0.2273130000      0.5132640000
C                  1.2216400000     -0.3835270000      0.3340480000
C                  1.2337650000     -1.7096070000     -0.0930390000
C                  0.0434440000     -2.4949140000     -0.2445970000
O                  0.0490270000     -3.7283370000     -0.6407860000
C                 -1.1553460000     -1.7708270000      0.0638410000
C                 -1.1551230000     -0.4444060000      0.4900970000
O                 -2.4047380000      0.1021330000      0.8337980000
C                 -2.7270770000      1.2968280000      0.1395190000
C                  0.0320650000      0.3432620000      0.6894980000
O                  0.0317230000      1.5576350000      1.1580390000
H                  3.6335430000      1.8310000000      0.0466500000
H                  2.6176750000      1.2429390000     -1.3009510000
H                  1.8616210000      2.1513230000      0.0551520000
H                  2.1914960000     -2.1728400000     -0.3202060000
H                 -2.1096860000     -2.2830480000     -0.0376610000
H                 -2.8353410000      1.1035810000     -0.9423180000
H                 -3.6933240000      1.6437860000      0.5294270000
H                 -1.9543260000      2.0533980000      0.3057750000
$end
$rem
MAX_SCF_CYCLES=200
BASIS  =  6-311++G(d,p)
GUI  =  2
JOB_TYPE  =  SP
METHOD  =  B3LYP
SOLVENT_METHOD = PCM
$end
$pcm
theory = CPCM
$end
$solvent
dielectric 37.219
opticaldielectric 1.43
$end

--------------------------------------------------------------

             Standard Nuclear Orientation (Angstroms)
    I     Atom           X                Y                Z
 ----------------------------------------------------------------
    1      C       2.6431500000     1.4343070000    -0.2136500000
    2      O       2.4758130000     0.2273130000     0.5132640000
    3      C       1.2216400000    -0.3835270000     0.3340480000
    4      C       1.2337650000    -1.7096070000    -0.0930390000
    5      C       0.0434440000    -2.4949140000    -0.2445970000
    6      O       0.0490270000    -3.7283370000    -0.6407860000
    7      C      -1.1553460000    -1.7708270000     0.0638410000
    8      C      -1.1551230000    -0.4444060000     0.4900970000
    9      O      -2.4047380000     0.1021330000     0.8337980000
   10      C      -2.7270770000     1.2968280000     0.1395190000
   11      C       0.0320650000     0.3432620000     0.6894980000
   12      O       0.0317230000     1.5576350000     1.1580390000
   13      H       3.6335430000     1.8310000000     0.0466500000
   14      H       2.6176750000     1.2429390000    -1.3009510000
   15      H       1.8616210000     2.1513230000     0.0551520000
   16      H       2.1914960000    -2.1728400000    -0.3202060000
   17      H      -2.1096860000    -2.2830480000    -0.0376610000
   18      H      -2.8353410000     1.1035810000    -0.9423180000
   19      H      -3.6933240000     1.6437860000     0.5294270000
   20      H      -1.9543260000     2.0533980000     0.3057750000
 ----------------------------------------------------------------

    9    -610.9436090103      5.91e-06  Convergence criterion met
 Total energy in the final basis set =     -610.9436090103

                    Orbital Energies (a.u.)
 --------------------------------------------------------------

 Alpha MOs
 -- Occupied --
-19.1151 -19.1150 -19.0183 -19.0161 -10.1890 -10.1890 -10.1790 -10.1790
-10.1739 -10.1698 -10.1182 -10.1182  -1.0244  -1.0213  -0.9304  -0.9242
 -0.7800  -0.7161  -0.6750  -0.6430  -0.6380  -0.5559  -0.5354  -0.4722
 -0.4677  -0.4385  -0.4371  -0.4309  -0.4269  -0.4210  -0.3929  -0.3628
 -0.3549  -0.3417  -0.3349  -0.3267  -0.3233  -0.3136  -0.2734  -0.2583
 -0.2225  -0.2020  -0.1990  -0.1898  -0.1199

          Ground-State Mulliken Net Atomic Charges

     Atom                 Charge (a.u.)
  ----------------------------------------
      1 C                    -0.291646
      2 O                    -0.254190
      3 C                    -0.749884
      4 C                     0.640062
      5 C                    -0.713754
      6 O                    -0.756636
      7 C                     0.644080
      8 C                    -0.743854
      9 O                    -0.255278
     10 C                    -0.291965
     11 C                     0.333747
     12 O                    -0.754630
     13 H                     0.140630
     14 H                     0.123297
     15 H                     0.172581
     16 H                     0.160699
     17 H                     0.160562
     18 H                     0.122938
     19 H                     0.140468
     20 H                     0.172774
  ----------------------------------------
  Sum of atomic charges =    -2.000000

                    Cartesian Multipole Moments
 -----------------------------------------------------------------
    Charge (ESU x 10^10)
                -9.6064
    Dipole Moment (Debye)
         X      -0.5586      Y      12.4507      Z      -4.3295
       Tot      13.1938
    Quadrupole Moments (Debye-Ang)
        XX     -88.3934     XY       0.2349     YY    -142.7719
        XZ       0.4046     YZ     -16.7188     ZZ     -89.1728

 Total job time:  34.51s(wall), 151.56s(cpu)
        *  Thank you very much for using Q-Chem.  Have a nice day.  *
