 Q-Chem 5.4, Q-Chem, Inc., Pleasanton, CA (2021)
 Q-Chem 5.4.0 for Intel X86 EM64T Linux

User input:
--------------------------------------------------------------
$molecule
0 1
C                  6.7362830000      0.2424810000      0.5978930000
C                  5.2394750000      0.2865500000      0.4093080000
C                  4.6484880000      1.1724610000     -0.4978990000
C                  3.2734740000      1.1876930000     -0.7057890000
C                  2.4355850000      0.3207160000      0.0065920000
N                  1.0410130000      0.4224000000     -0.1839210000
C                  0.1174380000     -0.5893040000     -0.2418700000
C                  0.5335390000     -1.9311340000     -0.4122360000
C                 -0.3784060000     -2.9519510000     -0.4810920000
C                 -1.7623260000     -2.7187510000     -0.3841330000
O                 -2.6208260000     -3.7700920000     -0.4390100000
C                 -2.2288130000     -1.4049710000     -0.2459650000
C                 -3.6951970000     -1.1436260000     -0.1537050000
O                 -4.5287040000     -2.0329050000     -0.2144000000
C                 -4.1368840000      0.2700360000      0.0284630000
C                 -5.5036850000      0.5415320000      0.1563030000
C                 -5.9420360000      1.8481390000      0.3240610000
C                 -5.0184340000      2.8986120000      0.3610920000
C                 -3.6616460000      2.6374980000      0.2296420000
C                 -3.2127560000      1.3203360000      0.0657170000
C                 -1.7582680000      1.0638110000     -0.0773770000
O                 -0.9844920000      2.0327730000     -0.1031700000
C                 -1.2843760000     -0.3250040000     -0.1847460000
C                  3.0135760000     -0.5514390000      0.9374870000
C                  4.3929210000     -0.5688590000      1.1221220000
H                  7.0014500000     -0.1005740000      1.6007160000
H                  7.2046920000     -0.4433220000     -0.1169560000
H                  7.1863130000      1.2266850000      0.4475810000
H                  5.2737540000      1.8590350000     -1.0597960000
H                  2.8373620000      1.8736100000     -1.4236920000
H                  0.6254160000      1.3532830000     -0.2180830000
H                  1.5871590000     -2.1494700000     -0.5164620000
H                 -0.0271810000     -3.9702490000     -0.6261790000
H                 -2.1108910000     -4.5825380000     -0.5328750000
H                 -6.1981810000     -0.2883550000      0.1205720000
H                 -7.0016380000      2.0545110000      0.4253250000
H                 -5.3624830000      3.9184870000      0.4915640000
H                 -2.9294110000      3.4343830000      0.2510070000
H                  2.3828220000     -1.1933020000      1.5404820000
H                  4.8158730000     -1.2491810000      1.8546970000
$end

$rem
BASIS  =  6-311++G(d,p)
GUI  =  2
JOB_TYPE  =  SP
METHOD  =  B3LYP
SCF_CONVERGENCE  = 8
SOLVENT_METHOD = sm12
$end

$smx
solvent dimethylformamide
charges CM5
$end

--------------------------------------------------------------

             Standard Nuclear Orientation (Angstroms)
    I     Atom           X                Y                Z
 ----------------------------------------------------------------
    1      C       6.7362830000     0.2424810000     0.5978930000
    2      C       5.2394750000     0.2865500000     0.4093080000
    3      C       4.6484880000     1.1724610000    -0.4978990000
    4      C       3.2734740000     1.1876930000    -0.7057890000
    5      C       2.4355850000     0.3207160000     0.0065920000
    6      N       1.0410130000     0.4224000000    -0.1839210000
    7      C       0.1174380000    -0.5893040000    -0.2418700000
    8      C       0.5335390000    -1.9311340000    -0.4122360000
    9      C      -0.3784060000    -2.9519510000    -0.4810920000
   10      C      -1.7623260000    -2.7187510000    -0.3841330000
   11      O      -2.6208260000    -3.7700920000    -0.4390100000
   12      C      -2.2288130000    -1.4049710000    -0.2459650000
   13      C      -3.6951970000    -1.1436260000    -0.1537050000
   14      O      -4.5287040000    -2.0329050000    -0.2144000000
   15      C      -4.1368840000     0.2700360000     0.0284630000
   16      C      -5.5036850000     0.5415320000     0.1563030000
   17      C      -5.9420360000     1.8481390000     0.3240610000
   18      C      -5.0184340000     2.8986120000     0.3610920000
   19      C      -3.6616460000     2.6374980000     0.2296420000
   20      C      -3.2127560000     1.3203360000     0.0657170000
   21      C      -1.7582680000     1.0638110000    -0.0773770000
   22      O      -0.9844920000     2.0327730000    -0.1031700000
   23      C      -1.2843760000    -0.3250040000    -0.1847460000
   24      C       3.0135760000    -0.5514390000     0.9374870000
   25      C       4.3929210000    -0.5688590000     1.1221220000
   26      H       7.0014500000    -0.1005740000     1.6007160000
   27      H       7.2046920000    -0.4433220000    -0.1169560000
   28      H       7.1863130000     1.2266850000     0.4475810000
   29      H       5.2737540000     1.8590350000    -1.0597960000
   30      H       2.8373620000     1.8736100000    -1.4236920000
   31      H       0.6254160000     1.3532830000    -0.2180830000
   32      H       1.5871590000    -2.1494700000    -0.5164620000
   33      H      -0.0271810000    -3.9702490000    -0.6261790000
   34      H      -2.1108910000    -4.5825380000    -0.5328750000
   35      H      -6.1981810000    -0.2883550000     0.1205720000
   36      H      -7.0016380000     2.0545110000     0.4253250000
   37      H      -5.3624830000     3.9184870000     0.4915640000
   38      H      -2.9294110000     3.4343830000     0.2510070000
   39      H       2.3828220000    -1.1933020000     1.5404820000
   40      H       4.8158730000    -1.2491810000     1.8546970000
 ----------------------------------------------------------------

   15   -1089.9976569607      8.83e-09  Convergence criterion met
 Total energy in the final basis set =    -1090.0308245436

                    Orbital Energies (a.u.)
 --------------------------------------------------------------

 Alpha MOs
 -- Occupied --
-19.1678 -19.1222 -19.1131 -14.3471 -10.2750 -10.2713 -10.2605 -10.2481
-10.2266 -10.2069 -10.2064 -10.2025 -10.2021 -10.2010 -10.1992 -10.1940
-10.1934 -10.1921 -10.1917 -10.1888 -10.1844 -10.1830 -10.1817 -10.1810
-10.1669  -1.0839  -1.0560  -1.0490  -0.9679  -0.8869  -0.8768  -0.8591
 -0.8110  -0.7875  -0.7731  -0.7709  -0.7594  -0.7501  -0.6948  -0.6869
 -0.6661  -0.6524  -0.6281  -0.6177  -0.5995  -0.5929  -0.5794  -0.5633
 -0.5435  -0.5315  -0.5066  -0.4959  -0.4848  -0.4841  -0.4786  -0.4716
 -0.4583  -0.4568  -0.4463  -0.4453  -0.4407  -0.4384  -0.4312  -0.4244
 -0.4230  -0.4169  -0.4133  -0.4045  -0.3959  -0.3849  -0.3814  -0.3745
 -0.3716  -0.3650  -0.3629  -0.3625  -0.3519  -0.3144  -0.2868  -0.2803
 -0.2749  -0.2732  -0.2669  -0.2613  -0.2548  -0.2069

          Ground-State Mulliken Net Atomic Charges

     Atom                 Charge (a.u.)
  ----------------------------------------
      1 C                    -0.058981
      2 C                     0.111676
      3 C                    -0.436235
      4 C                    -0.162083
      5 C                    -0.425013
      6 N                    -0.017414
      7 C                    -0.662206
      8 C                     0.930511
      9 C                     1.627487
     10 C                    -0.102612
     11 O                    -0.203500
     12 C                    -0.367507
     13 C                    -1.683733
     14 O                    -0.280020
     15 C                    -0.396310
     16 C                    -0.053111
     17 C                     0.296442
     18 C                     0.405160
     19 C                    -0.112957
     20 C                    -0.436521
     21 C                    -1.160613
     22 O                    -0.245070
     23 C                    -0.023934
     24 C                    -0.242700
     25 C                    -0.227178
     26 H                     0.186371
     27 H                     0.206395
     28 H                     0.186512
     29 H                     0.237849
     30 H                     0.236579
     31 H                     0.325330
     32 H                     0.329038
     33 H                     0.382945
     34 H                     0.338819
     35 H                     0.173453
     36 H                     0.309722
     37 H                     0.329861
     38 H                     0.193052
     39 H                     0.238647
     40 H                     0.251849
  ----------------------------------------
  Sum of atomic charges =     0.000000

                    Cartesian Multipole Moments
 -----------------------------------------------------------------
    Charge (ESU x 10^10)
                 0.0000
    Dipole Moment (Debye)
         X       4.5844      Y      -1.0876      Z       0.1684
       Tot       4.7146
    Quadrupole Moments (Debye-Ang)
        XX    -133.1101     XY     -19.8042     YY    -127.4749
        XZ      -2.0686     YZ      -0.3155     ZZ    -146.5734

 Total job time:  1621.65s(wall), 12305.59s(cpu)
        *  Thank you very much for using Q-Chem.  Have a nice day.  *
