 Gaussian 16, Revision A.03,
 Gaussian 16:  ES64L-G16RevA.03 25-Dec-2016

 --------------------------------------
 #P UB3LYP/6-311++G(d,p) nosym opt freq
 --------------------------------------

 --------
 Oxidized
 --------
 Symbolic Z-matrix:
 Charge =  0 Multiplicity = 1

 SCF Done:  E(UB3LYP) =  -1090.00024212     A.U. after   16 cycles
 Optimization completed.
    -- Stationary point found.
 Normal termination of Gaussian 16 at Wed Dec 27 20:04:16 2023.

 ----------------------------------------------------------------------
 #P Geom=AllCheck Guess=TCheck SCRF=Check GenChk UB3LYP/6-311++G(d,p) F
 req
 ----------------------------------------------------------------------

 Structure from the checkpoint file:  "182.chk"
 --------
 Oxidized
 --------
 Charge =  0 Multiplicity = 1

                          Input orientation:
 ---------------------------------------------------------------------
 Center     Atomic      Atomic             Coordinates (Angstroms)
 Number     Number       Type             X           Y           Z
 ---------------------------------------------------------------------
      1          6           0        6.736283    0.242481    0.597893
      2          6           0        5.239475    0.286550    0.409308
      3          6           0        4.648488    1.172461   -0.497899
      4          6           0        3.273474    1.187693   -0.705789
      5          6           0        2.435585    0.320716    0.006592
      6          7           0        1.041013    0.422400   -0.183921
      7          6           0        0.117438   -0.589304   -0.241870
      8          6           0        0.533539   -1.931134   -0.412236
      9          6           0       -0.378406   -2.951951   -0.481092
     10          6           0       -1.762326   -2.718751   -0.384133
     11          8           0       -2.620826   -3.770092   -0.439010
     12          6           0       -2.228813   -1.404971   -0.245965
     13          6           0       -3.695197   -1.143626   -0.153705
     14          8           0       -4.528704   -2.032905   -0.214400
     15          6           0       -4.136884    0.270036    0.028463
     16          6           0       -5.503685    0.541532    0.156303
     17          6           0       -5.942036    1.848139    0.324061
     18          6           0       -5.018434    2.898612    0.361092
     19          6           0       -3.661646    2.637498    0.229642
     20          6           0       -3.212756    1.320336    0.065717
     21          6           0       -1.758268    1.063811   -0.077377
     22          8           0       -0.984492    2.032773   -0.103170
     23          6           0       -1.284376   -0.325004   -0.184746
     24          6           0        3.013576   -0.551439    0.937487
     25          6           0        4.392921   -0.568859    1.122122
     26          1           0        7.001450   -0.100574    1.600716
     27          1           0        7.204692   -0.443322   -0.116956
     28          1           0        7.186313    1.226685    0.447581
     29          1           0        5.273754    1.859035   -1.059796
     30          1           0        2.837362    1.873610   -1.423692
     31          1           0        0.625416    1.353283   -0.218083
     32          1           0        1.587159   -2.149470   -0.516462
     33          1           0       -0.027181   -3.970249   -0.626179
     34          1           0       -2.110891   -4.582538   -0.532875
     35          1           0       -6.198181   -0.288355    0.120572
     36          1           0       -7.001638    2.054511    0.425325
     37          1           0       -5.362483    3.918487    0.491564
     38          1           0       -2.929411    3.434383    0.251007
     39          1           0        2.382822   -1.193302    1.540482
     40          1           0        4.815873   -1.249181    1.854697
 ---------------------------------------------------------------------

 SCF Done:  E(UB3LYP) =  -1090.00024212     A.U. after    2 cycles

 Alpha  occ. eigenvalues --  -19.16751 -19.11824 -19.10662 -14.34393 -10.27113
 Alpha  occ. eigenvalues --  -10.26459 -10.25871 -10.24605 -10.22647 -10.20493
 Alpha  occ. eigenvalues --  -10.20482 -10.20437 -10.20021 -10.19787 -10.19607
 Alpha  occ. eigenvalues --  -10.19240 -10.19187 -10.19083 -10.18876 -10.18744
 Alpha  occ. eigenvalues --  -10.18516 -10.18370 -10.18363 -10.18282 -10.17551
 Alpha  occ. eigenvalues --   -1.08418  -1.05163  -1.04183  -0.96573  -0.88434
 Alpha  occ. eigenvalues --   -0.87550  -0.85970  -0.80907  -0.78888  -0.77022
 Alpha  occ. eigenvalues --   -0.76832  -0.76063  -0.75061  -0.69720  -0.68573
 Alpha  occ. eigenvalues --   -0.66516  -0.65044  -0.62863  -0.61772  -0.60001
 Alpha  occ. eigenvalues --   -0.59080  -0.57761  -0.56322  -0.54169  -0.53103
 Alpha  occ. eigenvalues --   -0.50374  -0.49636  -0.48515  -0.48246  -0.48136
 Alpha  occ. eigenvalues --   -0.47103  -0.45787  -0.45312  -0.44551  -0.44190
 Alpha  occ. eigenvalues --   -0.43918  -0.43443  -0.43315  -0.42988  -0.42165
 Alpha  occ. eigenvalues --   -0.41524  -0.41069  -0.40528  -0.39788  -0.38653
 Alpha  occ. eigenvalues --   -0.38166  -0.37331  -0.36971  -0.36767  -0.36174
 Alpha  occ. eigenvalues --   -0.36015  -0.35474  -0.31380  -0.28469  -0.27590
 Alpha  occ. eigenvalues --   -0.27184  -0.26867  -0.26747  -0.25562  -0.25272
 Alpha  occ. eigenvalues --   -0.20505
 Alpha virt. eigenvalues --   -0.10685  -0.06056  -0.03603  -0.02622  -0.02509
 Alpha virt. eigenvalues --   -0.01876  -0.00974  -0.00274  -0.00193   0.00552
 Alpha virt. eigenvalues --    0.00655   0.01560   0.01928   0.02312   0.03024

  Beta  occ. eigenvalues --  -19.16751 -19.11824 -19.10662 -14.34393 -10.27113
  Beta  occ. eigenvalues --  -10.26459 -10.25871 -10.24605 -10.22647 -10.20493
  Beta  occ. eigenvalues --  -10.20482 -10.20437 -10.20021 -10.19787 -10.19607
  Beta  occ. eigenvalues --  -10.19240 -10.19187 -10.19083 -10.18876 -10.18744
  Beta  occ. eigenvalues --  -10.18516 -10.18370 -10.18363 -10.18282 -10.17551
  Beta  occ. eigenvalues --   -1.08418  -1.05163  -1.04183  -0.96573  -0.88434
  Beta  occ. eigenvalues --   -0.87550  -0.85970  -0.80907  -0.78888  -0.77022
  Beta  occ. eigenvalues --   -0.76832  -0.76063  -0.75061  -0.69720  -0.68573
  Beta  occ. eigenvalues --   -0.66516  -0.65044  -0.62863  -0.61772  -0.60001
  Beta  occ. eigenvalues --   -0.59080  -0.57761  -0.56322  -0.54169  -0.53103
  Beta  occ. eigenvalues --   -0.50374  -0.49636  -0.48515  -0.48246  -0.48136
  Beta  occ. eigenvalues --   -0.47103  -0.45787  -0.45312  -0.44551  -0.44190
  Beta  occ. eigenvalues --   -0.43918  -0.43443  -0.43315  -0.42988  -0.42165
  Beta  occ. eigenvalues --   -0.41524  -0.41069  -0.40528  -0.39788  -0.38653
  Beta  occ. eigenvalues --   -0.38166  -0.37331  -0.36971  -0.36767  -0.36174
  Beta  occ. eigenvalues --   -0.36015  -0.35474  -0.31380  -0.28469  -0.27590
  Beta  occ. eigenvalues --   -0.27184  -0.26867  -0.26747  -0.25562  -0.25272
  Beta  occ. eigenvalues --   -0.20505
  Beta virt. eigenvalues --   -0.10685  -0.06056  -0.03603  -0.02622  -0.02509
  Beta virt. eigenvalues --   -0.01876  -0.00974  -0.00274  -0.00193   0.00552
  Beta virt. eigenvalues --    0.00655   0.01560   0.01928   0.02312   0.03024

 Mulliken charges and spin densities:
               1          2
     1  C   -0.568435   0.000000
     2  C    0.364188   0.000000
     3  C   -0.347794   0.000000
     4  C   -0.154036  -0.000000
     5  C   -0.018042   0.000000
     6  N    0.040113   0.000000
     7  C   -0.115289  -0.000000
     8  C    0.019526   0.000000
     9  C   -0.297730   0.000000
    10  C   -0.333173  -0.000000
    11  O   -0.152805   0.000000
    12  C    0.312031  -0.000000
    13  C   -0.453007  -0.000000
    14  O   -0.213381  -0.000000
    15  C    0.285218  -0.000000
    16  C    0.144759  -0.000000
    17  C   -0.389054   0.000000
    18  C   -0.382877  -0.000000
    19  C   -0.010975   0.000000
    20  C    0.332935   0.000000
    21  C   -0.384380   0.000000
    22  O   -0.249786  -0.000000
    23  C    0.158129  -0.000000
    24  C    0.019570   0.000000
    25  C   -0.423906  -0.000000
    26  H    0.144333  -0.000000
    27  H    0.170973   0.000000
    28  H    0.143651   0.000000
    29  H    0.163804  -0.000000
    30  H    0.164155   0.000000
    31  H    0.376803   0.000000
    32  H    0.204829   0.000000
    33  H    0.146332   0.000000
    34  H    0.262103  -0.000000
    35  H    0.187172  -0.000000
    36  H    0.170015   0.000000
    37  H    0.172655  -0.000000
    38  H    0.173611   0.000000
    39  H    0.168141  -0.000000
    40  H    0.169623  -0.000000
 Sum of Mulliken charges =  -0.00000   0.00000

 Dipole moment (field-independent basis, Debye):
    X=              3.6221    Y=             -0.7274    Z=              0.1272  Tot=              3.6966
 Quadrupole moment (field-independent basis, Debye-Ang):
   XX=           -136.2895   YY=           -131.2390   ZZ=           -146.7161
   XY=            -16.8576   XZ=             -1.9986   YZ=             -0.7152

  Exact polarizability: 472.271 -20.934 292.982  -0.095   0.652 148.059
 Approx polarizability: 654.379  -6.809 520.174  -5.373  -8.560 249.027

                      1                      2                      3
                      A                      A                      A
 Frequencies --     18.9943                25.9195                31.6325
 Red. masses --      5.4045                 4.5083                 2.0915
 Frc consts  --      0.0011                 0.0018                 0.0012
 IR Inten    --      3.0318                 2.6682                 1.2879

                      4                      5                      6
                      A                      A                      A
 Frequencies --     39.0508                58.4380                66.3493
 Red. masses --      1.5181                 4.6501                 6.5350
 Frc consts  --      0.0014                 0.0094                 0.0169
 IR Inten    --      0.8490                 0.9072                 0.1591

                      7                      8                      9
                      A                      A                      A
 Frequencies --    113.1307               134.4641               135.6697
 Red. masses --      4.7833                 5.2580                 5.2098
 Frc consts  --      0.0361                 0.0560                 0.0565
 IR Inten    --      0.5977                 0.7857                 1.2902

                     10                     11                     12
                      A                      A                      A
 Frequencies --    168.4175               185.1065               231.3494
 Red. masses --      6.9806                 5.4298                 5.4344
 Frc consts  --      0.1167                 0.1096                 0.1714
 IR Inten    --      0.3096                 1.1702                 1.7848

                     13                     14                     15
                      A                      A                      A
 Frequencies --    240.4806               277.3229               316.2193
 Red. masses --      4.9908                 4.3919                 4.4653
 Frc consts  --      0.1701                 0.1990                 0.2631
 IR Inten    --      6.7832                 2.1582                 2.3643

                     16                     17                     18
                      A                      A                      A
 Frequencies --    330.5619               338.1737               357.4881
 Red. masses --      2.7922                 1.5891                 3.8098
 Frc consts  --      0.1798                 0.1071                 0.2869
 IR Inten    --     15.4227                51.1387                20.1466

                     19                     20                     21
                      A                      A                      A
 Frequencies --    366.2349               390.8318               405.2442
 Red. masses --      7.4821                 8.4229                 4.5657
 Frc consts  --      0.5913                 0.7580                 0.4418
 IR Inten    --     10.4745                 2.3035                 1.7866

                     22                     23                     24
                      A                      A                      A
 Frequencies --    422.4489               428.8573               433.3179
 Red. masses --      3.1247                 3.5133                 9.9096
 Frc consts  --      0.3286                 0.3807                 1.0963
 IR Inten    --      1.6890                 2.1789                14.9432

                     25                     26                     27
                      A                      A                      A
 Frequencies --    435.7850               465.9071               482.5192
 Red. masses --      5.6019                 6.0768                 8.2188
 Frc consts  --      0.6268                 0.7772                 1.1274
 IR Inten    --      0.9963                14.8523                 3.5031

                     28                     29                     30
                      A                      A                      A
 Frequencies --    502.0882               512.4402               517.9819
 Red. masses --      4.8040                 3.1353                 4.9788
 Frc consts  --      0.7135                 0.4851                 0.7871
 IR Inten    --      1.8118                15.1186                 4.4812

                     31                     32                     33
                      A                      A                      A
 Frequencies --    578.3687               584.0864               638.7716
 Red. masses --      4.9771                 3.4674                 5.4707
 Frc consts  --      0.9809                 0.6970                 1.3152
 IR Inten    --     10.6324                25.7729                 8.2675

                     34                     35                     36
                      A                      A                      A
 Frequencies --    654.9856               668.9894               673.6606
 Red. masses --      6.8289                 5.6908                 4.8514
 Frc consts  --      1.7261                 1.5006                 1.2972
 IR Inten    --      4.0118                 4.7907                 6.4622

                     37                     38                     39
                      A                      A                      A
 Frequencies --    693.2863               720.3511               725.8962
 Red. masses --      1.3575                 4.4719                 4.2227
 Frc consts  --      0.3844                 1.3672                 1.3109
 IR Inten    --     53.9964                 6.7676                 8.0159

                     40                     41                     42
                      A                      A                      A
 Frequencies --    739.9099               748.2710               780.2287
 Red. masses --      4.3104                 1.9169                 3.0907
 Frc consts  --      1.3904                 0.6324                 1.1085
 IR Inten    --      2.5047                77.5634                 8.8912

                     43                     44                     45
                      A                      A                      A
 Frequencies --    780.7331               812.3186               817.5603
 Red. masses --      5.5720                 3.4857                 2.6397
 Frc consts  --      2.0011                 1.3552                 1.0395
 IR Inten    --      3.4799                 3.9875                22.7684

                     46                     47                     48
                      A                      A                      A
 Frequencies --    832.1840               834.3210               843.8860
 Red. masses --      1.7622                 2.2278                 1.3315
 Frc consts  --      0.7190                 0.9137                 0.5587
 IR Inten    --     29.5260                21.1012                 5.9624

                     49                     50                     51
                      A                      A                      A
 Frequencies --    865.6661               885.4123               913.1920
 Red. masses --      3.2475                 7.6901                 1.4007
 Frc consts  --      1.4338                 3.5520                 0.6882
 IR Inten    --      8.6385                47.3797                 0.0190

                     52                     53                     54
                      A                      A                      A
 Frequencies --    917.4109               954.6584               966.1572
 Red. masses --      6.5522                 1.3497                 2.0748
 Frc consts  --      3.2491                 0.7247                 1.1411
 IR Inten    --     12.8640                 0.6536                14.0064

                     55                     56                     57
                      A                      A                      A
 Frequencies --    967.5665               979.9151              1001.6787
 Red. masses --      2.1021                 1.3342                 1.3767
 Frc consts  --      1.1595                 0.7548                 0.8138
 IR Inten    --     14.0876                 1.5675                 1.5936

                     58                     59                     60
                      A                      A                      A
 Frequencies --   1006.6008              1014.9869              1033.0118
 Red. masses --      1.4082                 1.3174                 2.7714
 Frc consts  --      0.8407                 0.7997                 1.7425
 IR Inten    --      0.2787                 0.0383                 9.6985

                     61                     62                     63
                      A                      A                      A
 Frequencies --   1046.3466              1060.8834              1082.4854
 Red. masses --      2.9937                 1.5261                 2.3545
 Frc consts  --      1.9311                 1.0120                 1.6255
 IR Inten    --     78.1486                17.8934               119.0348

                     64                     65                     66
                      A                      A                      A
 Frequencies --   1114.4851              1140.2202              1175.8484
 Red. masses --      2.3397                 1.2929                 1.9260
 Frc consts  --      1.7122                 0.9904                 1.5689
 IR Inten    --      2.5494                 8.6643                16.2869

                     67                     68                     69
                      A                      A                      A
 Frequencies --   1180.4777              1199.1482              1203.6869
 Red. masses --      1.2432                 1.3441                 1.1728
 Frc consts  --      1.0207                 1.1388                 1.0011
 IR Inten    --     12.0428                88.9934                 9.3156

                     70                     71                     72
                      A                      A                      A
 Frequencies --   1216.3393              1231.2243              1253.0259
 Red. masses --      1.6337                 3.3874                 3.7715
 Frc consts  --      1.4241                 3.0255                 3.4889
 IR Inten    --     98.5427                 5.7330                50.0678

                     73                     74                     75
                      A                      A                      A
 Frequencies --   1257.3983              1279.2607              1288.9712
 Red. masses --      2.0763                 3.1422                 2.5440
 Frc consts  --      1.9342                 3.0297                 2.4903
 IR Inten    --    100.8693               536.0578               352.1742

                     76                     77                     78
                      A                      A                      A
 Frequencies --   1312.4450              1317.9302              1333.8669
 Red. masses --      4.2465                 2.7208                 2.3477
 Frc consts  --      4.3096                 2.7844                 2.4610
 IR Inten    --     65.4248               119.1889                88.4626

                     79                     80                     81
                      A                      A                      A
 Frequencies --   1341.0514              1360.2620              1380.2274
 Red. masses --      1.6830                 7.7265                 4.8675
 Frc consts  --      1.7833                 8.4232                 5.4633
 IR Inten    --     57.2464                 0.7540                81.5192

                     82                     83                     84
                      A                      A                      A
 Frequencies --   1415.5083              1420.5527              1445.8212
 Red. masses --      1.2538                 4.2169                 2.8243
 Frc consts  --      1.4802                 5.0137                 3.4785
 IR Inten    --      0.4242                 6.0004                 4.5655

                     85                     86                     87
                      A                      A                      A
 Frequencies --   1476.2756              1483.8991              1489.3926
 Red. masses --      2.8190                 2.5435                 1.0499
 Frc consts  --      3.6197                 3.2998                 1.3722
 IR Inten    --      5.1262                 9.1352                 8.0009

                     88                     89                     90
                      A                      A                      A
 Frequencies --   1494.3604              1508.5790              1538.3646
 Red. masses --      1.1393                 2.5777                 2.5624
 Frc consts  --      1.4990                 3.4564                 3.5729
 IR Inten    --     22.4803                 3.0177               173.7175

                     91                     92                     93
                      A                      A                      A
 Frequencies --   1546.8332              1602.3894              1607.7342
 Red. masses --      2.9288                 4.5551                 6.6589
 Frc consts  --      4.1288                 6.8910                10.1410
 IR Inten    --    505.5380                46.7307                27.9833

                     94                     95                     96
                      A                      A                      A
 Frequencies --   1617.5633              1629.4263              1638.5025
 Red. masses --      4.8748                 5.6229                 4.1285
 Frc consts  --      7.5150                 8.7959                 6.5303
 IR Inten    --     14.2781                58.0592               335.2617

                     97                     98                     99
                      A                      A                      A
 Frequencies --   1652.3113              1668.2841              1718.4131
 Red. masses --      5.4050                 7.9613                11.6556
 Frc consts  --      8.6942                13.0549                20.2787
 IR Inten    --      9.5266               134.7518               210.8626

                    100                    101                    102
                      A                      A                      A
 Frequencies --   3018.4316              3072.4318              3099.7373
 Red. masses --      1.0414                 1.0936                 1.1022
 Frc consts  --      5.5902                 6.0824                 6.2399
 IR Inten    --     48.0300                20.5302                15.3755

                    103                    104                    105
                      A                      A                      A
 Frequencies --   3144.5417              3156.6120              3157.6814
 Red. masses --      1.0899                 1.0887                 1.0880
 Frc consts  --      6.3499                 6.3914                 6.3917
 IR Inten    --     17.7106                20.6124                20.8704

                    106                    107                    108
                      A                      A                      A
 Frequencies --   3167.6391              3178.5746              3182.7726
 Red. masses --      1.0870                 1.0940                 1.0924
 Frc consts  --      6.4259                 6.5124                 6.5199
 IR Inten    --      3.6892                 8.1397                17.7057

                    109                    110                    111
                      A                      A                      A
 Frequencies --   3186.4873              3202.4892              3205.8695
 Red. masses --      1.0931                 1.0926                 1.0936
 Frc consts  --      6.5395                 6.6022                 6.6224
 IR Inten    --      5.3362                 3.2661                10.6990

                    112                    113                    114
                      A                      A                      A
 Frequencies --   3210.3022              3393.2487              3812.6838
 Red. masses --      1.0918                 1.0785                 1.0660
 Frc consts  --      6.6296                 7.3167                 9.1300
 IR Inten    --      0.7721               140.3526                77.6791

 - Thermochemistry -
 -------------------
 Temperature   298.150 Kelvin.  Pressure   1.00000 Atm.
 Atom     1 has atomic number  6 and mass  12.00000

 Molecular mass:   329.10519 amu.
 Principal axes and moments of inertia in atomic units:
                           1         2         3
     Eigenvalues --  3943.45975********************
           X            0.99956   0.01289  -0.02676
           Y           -0.01503   0.99659  -0.08118
           Z            0.02563   0.08155   0.99634
 This molecule is an asymmetric top.
 Rotational symmetry number  1.
 Warning -- assumption of classical behavior for rotation
           may cause significant error
 Rotational temperatures (Kelvin)      0.02196     0.00559     0.00456
 Rotational constants (GHZ):           0.45765     0.11637     0.09494
 Zero-point vibrational energy     807394.3 (Joules/Mol)
                                  192.97187 (Kcal/Mol)
 Warning -- explicit consideration of  32 degrees of freedom as
           vibrations may cause significant error
 Vibrational temperatures:     27.33    37.29    45.51    56.19    84.08
          (Kelvin)             95.46   162.77   193.46   195.20   242.32
                              266.33   332.86   346.00   399.01   454.97
                              475.60   486.56   514.35   526.93   562.32
                              583.06   607.81   617.03   623.45   627.00
                              670.34   694.24   722.39   737.29   745.26
                              832.14   840.37   919.05   942.38   962.53
                              969.25   997.48  1036.42  1044.40  1064.57
                             1076.60  1122.58  1123.30  1168.75  1176.29
                             1197.33  1200.40  1214.16  1245.50  1273.91
                             1313.88  1319.95  1373.54  1390.08  1392.11
                             1409.88  1441.19  1448.27  1460.34  1486.27
                             1505.46  1526.37  1557.45  1603.50  1640.52
                             1691.78  1698.44  1725.31  1731.84  1750.04
                             1771.46  1802.82  1809.12  1840.57  1854.54
                             1888.32  1896.21  1919.14  1929.47  1957.11
                             1985.84  2036.60  2043.86  2080.21  2124.03
                             2135.00  2142.90  2150.05  2170.51  2213.36
                             2225.55  2305.48  2313.17  2327.31  2344.38
                             2357.44  2377.31  2400.29  2472.41  4342.85
                             4420.54  4459.83  4524.29  4541.66  4543.20
                             4557.53  4573.26  4579.30  4584.64  4607.67
                             4612.53  4618.91  4882.13  5485.60

 Zero-point correction=                           0.307520 (Hartree/Particle)
 Thermal correction to Energy=                    0.327781
 Thermal correction to Enthalpy=                  0.328725
 Thermal correction to Gibbs Free Energy=         0.256250
 Sum of electronic and zero-point Energies=          -1089.692722
 Sum of electronic and thermal Energies=             -1089.672461
 Sum of electronic and thermal Enthalpies=           -1089.671517
 Sum of electronic and thermal Free Energies=        -1089.743992

                     E (Thermal)             CV                S
                      KCal/Mol        Cal/Mol-Kelvin    Cal/Mol-Kelvin
 Total                  205.686             79.971            152.538
 Electronic               0.000              0.000              0.000
 Translational            0.889              2.981             43.269
 Rotational               0.889              2.981             35.407
 Vibrational            203.908             74.009             73.862
 Vibration     1          0.593              1.986              6.737
 Vibration     2          0.593              1.985              6.120
 Vibration     3          0.594              1.983              5.724
 Vibration     4          0.594              1.981              5.307
 Vibration     5          0.596              1.974              4.509
 Vibration     6          0.598              1.970              4.259
 Vibration     7          0.607              1.939              3.214
 Vibration     8          0.613              1.919              2.881
 Vibration     9          0.613              1.918              2.864
 Vibration    10          0.625              1.881              2.453
 Vibration    11          0.631              1.860              2.276
 Vibration    12          0.653              1.793              1.868
 Vibration    13          0.658              1.778              1.799
 Vibration    14          0.678              1.715              1.550
 Vibration    15          0.703              1.643              1.330
 Vibration    16          0.713              1.614              1.257
 Vibration    17          0.718              1.599              1.221
 Vibration    18          0.733              1.560              1.133
 Vibration    19          0.739              1.542              1.096
 Vibration    20          0.759              1.490              0.997
 Vibration    21          0.770              1.459              0.944
 Vibration    22          0.785              1.421              0.884
 Vibration    23          0.790              1.407              0.862
 Vibration    24          0.794              1.398              0.848
 Vibration    25          0.796              1.392              0.840
 Vibration    26          0.823              1.326              0.749
 Vibration    27          0.839              1.289              0.703
 Vibration    28          0.857              1.245              0.653
 Vibration    29          0.868              1.222              0.628
 Vibration    30          0.873              1.210              0.615
 Vibration    31          0.935              1.078              0.488
 Vibration    32          0.941              1.066              0.478

 Optimization completed.
    -- Stationary point found.
 Normal termination of Gaussian 16 at Wed Dec 27 23:25:28 2023.
