 Q-Chem 5.4, Q-Chem, Inc., Pleasanton, CA (2021)
 Q-Chem 5.4.0 for Intel X86 EM64T Linux

User input:
--------------------------------------------------------------
$molecule
-2 1
C                 -1.7577920000      1.4984150000      1.0612110000
C                 -2.9331680000      0.7105160000      0.8126270000
C                 -2.9794570000     -0.5362360000      0.1943620000
C                 -1.7731460000     -1.1890640000     -0.2812220000
C                 -0.5929590000     -0.4168720000     -0.0407610000
C                 -0.5756250000      0.8442500000      0.5879670000
O                 -1.7687310000     -2.3465400000     -0.8602660000
O                 -1.7979610000      2.6456450000      1.6395250000
I                  1.2102050000      1.9866790000      0.9358940000
I                  1.1821340000     -1.3979250000     -0.7484410000
H                 -3.8447850000      1.1844180000      1.1621310000
C                 -4.3213600000     -1.2744720000     -0.0095800000
C                 -5.5348170000     -0.4927080000      0.5314130000
C                 -4.2781060000     -2.6391500000      0.7212870000
C                 -4.5546780000     -1.5162880000     -1.5213550000
H                 -5.6469170000      0.4764830000      0.0355210000
H                 -5.4530830000     -0.3103900000      1.6074720000
H                 -6.4500780000     -1.0737010000      0.3534020000
H                 -4.1839330000     -2.4843370000      1.8024610000
H                 -3.4143430000     -3.2048350000      0.3659300000
H                 -5.2003360000     -3.2119660000      0.5353410000
H                 -4.6582570000     -0.5582920000     -2.0441160000
H                 -5.4744300000     -2.0992390000     -1.6870500000
H                 -3.6976410000     -2.0547720000     -1.9310730000
$end

$rem
BASIS  =  6-311++G(d,p)
GUI  =  2
JOB_TYPE  =  SP
METHOD  =  B3LYP
SCF_CONVERGENCE  = 8
SOLVENT_METHOD = sm12
$end

$smx
solvent dimethylformamide
charges CM5
$end

--------------------------------------------------------------

             Standard Nuclear Orientation (Angstroms)
    I     Atom           X                Y                Z
 ----------------------------------------------------------------
    1      C      -1.7577920000     1.4984150000     1.0612110000
    2      C      -2.9331680000     0.7105160000     0.8126270000
    3      C      -2.9794570000    -0.5362360000     0.1943620000
    4      C      -1.7731460000    -1.1890640000    -0.2812220000
    5      C      -0.5929590000    -0.4168720000    -0.0407610000
    6      C      -0.5756250000     0.8442500000     0.5879670000
    7      O      -1.7687310000    -2.3465400000    -0.8602660000
    8      O      -1.7979610000     2.6456450000     1.6395250000
    9      I       1.2102050000     1.9866790000     0.9358940000
   10      I       1.1821340000    -1.3979250000    -0.7484410000
   11      H      -3.8447850000     1.1844180000     1.1621310000
   12      C      -4.3213600000    -1.2744720000    -0.0095800000
   13      C      -5.5348170000    -0.4927080000     0.5314130000
   14      C      -4.2781060000    -2.6391500000     0.7212870000
   15      C      -4.5546780000    -1.5162880000    -1.5213550000
   16      H      -5.6469170000     0.4764830000     0.0355210000
   17      H      -5.4530830000    -0.3103900000     1.6074720000
   18      H      -6.4500780000    -1.0737010000     0.3534020000
   19      H      -4.1839330000    -2.4843370000     1.8024610000
   20      H      -3.4143430000    -3.2048350000     0.3659300000
   21      H      -5.2003360000    -3.2119660000     0.5353410000
   22      H      -4.6582570000    -0.5582920000    -2.0441160000
   23      H      -5.4744300000    -2.0992390000    -1.6870500000
   24      H      -3.6976410000    -2.0547720000    -1.9310730000
 ----------------------------------------------------------------

   18  -14376.6930948691      4.43e-09  Convergence criterion met
 Total energy in the final basis set =   -14376.9751547121

                    Orbital Energies (a.u.)
 --------------------------------------------------------------

 Alpha MOs
 -- Occupied --
*****************-176.2945-176.2931-165.6980-165.6967-165.6963-165.6962
********-165.6948 -35.7907 -35.7894 -31.2832 -31.2819 -31.2785 -31.2781
-31.2772 -31.2768 -22.9339 -22.9328 -22.9326 -22.9326 -22.9316 -22.9313
-22.9293 -22.9293 -22.9280 -22.9280 -19.0358 -19.0341 -10.2042 -10.2039
-10.1994 -10.1978 -10.1965 -10.1722 -10.1674 -10.1640 -10.1640 -10.1555
 -6.3396  -6.3384  -4.7500  -4.7488  -4.7384  -4.7375  -4.7373  -4.7362
 -2.0161  -2.0146  -2.0121  -2.0114  -2.0113  -2.0103  -2.0016  -2.0015
 -2.0003  -2.0002  -0.9554  -0.9522  -0.8347  -0.8082  -0.7385  -0.6975
 -0.6922  -0.6919  -0.6486  -0.6387  -0.5823  -0.5520  -0.5233  -0.4779
 -0.4679  -0.4463  -0.4348  -0.4269  -0.4098  -0.3982  -0.3851  -0.3835
 -0.3748  -0.3739  -0.3542  -0.3451  -0.3428  -0.3334  -0.3319  -0.3250
 -0.2952  -0.2776  -0.2680  -0.2489  -0.2443  -0.2302  -0.2131  -0.2076
 -0.1431

          Ground-State Mulliken Net Atomic Charges

     Atom                 Charge (a.u.)
  ----------------------------------------
      1 C                    -2.151288
      2 C                    -1.177210
      3 C                    -0.286564
      4 C                    -0.822600
      5 C                    -1.082057
      6 C                    -0.179052
      7 O                    -0.148142
      8 O                    -0.299636
      9 I                     0.048789
     10 I                     0.081816
     11 H                    -0.011213
     12 C                     2.121863
     13 C                     0.776559
     14 C                    -0.277263
     15 C                    -0.278784
     16 H                     0.119897
     17 H                     0.119754
     18 H                     0.470281
     19 H                     0.045623
     20 H                     0.076797
     21 H                     0.364898
     22 H                     0.046055
     23 H                     0.364688
     24 H                     0.076789
  ----------------------------------------
  Sum of atomic charges =    -2.000000

                    Cartesian Multipole Moments
 -----------------------------------------------------------------
    Charge (ESU x 10^10)
                -9.6064
    Dipole Moment (Debye)
         X      11.0055      Y      -1.8853      Z      -3.2115
       Tot      11.6185
    Quadrupole Moments (Debye-Ang)
        XX    -183.2072     XY      -1.7363     YY    -190.2659
        XZ       5.0493     YZ     -23.2152     ZZ    -156.2502

 Total job time:  553.34s(wall), 4243.54s(cpu)
        *  Thank you very much for using Q-Chem.  Have a nice day.  *
