 Q-Chem 5.4, Q-Chem, Inc., Pleasanton, CA (2021)
 Q-Chem 5.4.0 for Intel X86 EM64T Linux

User input:
--------------------------------------------------------------
$molecule
-2 1
C                  5.8609810000     -5.7052300000      0.5066800000
C                  5.9821760000     -5.9211790000     -0.8547670000
C                  5.2425300000     -5.1246800000     -1.7597680000
C                  5.0116860000     -4.7034770000      1.0244650000
C                  4.2627870000     -3.8989000000      0.1085200000
C                  4.4028140000     -4.1371800000     -1.2755650000
C                  4.9172600000     -4.5084000000      2.4711670000
C                  4.0217820000     -3.4650750000      2.9063320000
C                  3.2938110000     -2.6700350000      2.0064700000
C                  3.3645660000     -2.8456840000      0.5786350000
O                  5.5947590000     -5.2265790000      3.2820220000
O                  2.6906030000     -2.1281170000     -0.2347860000
H                  6.6428080000     -6.7002170000     -1.2286610000
C                  2.3762550000     -1.5663810000      2.4856770000
H                  5.3335120000     -5.2892760000     -2.8310550000
C                  3.9166390000     -3.2593530000      4.4006370000
C                  0.8964130000     -1.9875910000      2.6009060000
C                 -0.0232260000     -0.8455740000      3.0513840000
C                 -1.5002490000     -1.2396070000      3.1841300000
H                  6.4151800000     -6.2986510000      1.2263950000
H                  3.8204620000     -3.5104180000     -1.9429640000
H                  2.4298130000     -0.7490880000      1.7576910000
H                  2.7102860000     -1.1762940000      3.4544000000
H                  4.4454970000     -4.0728930000      4.9003330000
H                  2.8764240000     -3.2401080000      4.7488980000
H                  4.3758310000     -2.3127780000      4.7226640000
H                  0.8089330000     -2.8256980000      3.3045750000
H                  0.5753730000     -2.3585460000      1.6222080000
H                  0.0646520000     -0.0150480000      2.3380490000
H                  0.3295520000     -0.4546830000      4.0168570000
H                 -1.5882960000     -2.0762070000      3.8904380000
H                 -1.8590710000     -1.6202730000      2.2189380000
C                 -2.4093050000     -0.0932250000      3.6465670000
C                 -3.8860310000     -0.4821020000      3.7948920000
C                 -4.7864560000      0.6660520000      4.2687850000
C                 -6.2627370000      0.2781690000      4.4245420000
C                 -7.1580920000      1.4276290000      4.9042500000
H                 -2.3262950000      0.7407720000      2.9367850000
H                 -2.0418420000      0.2915150000      4.6077010000
H                 -3.9688620000     -1.3194730000      4.5006510000
H                 -4.2582340000     -0.8600790000      2.8334260000
H                 -4.7065200000      1.5030770000      3.5623600000
H                 -4.4114420000      1.0455420000      5.2287610000
H                 -6.3428680000     -0.5598320000      5.1297670000
H                 -6.6406410000     -0.0976880000      3.4644230000
H                 -7.0820810000      2.2661580000      4.1996670000
H                 -6.7812320000      1.8052610000      5.8638070000
C                 -8.6337720000      1.0385180000      5.0637380000
C                 -9.5249430000      2.1874170000      5.5447560000
H                 -8.7109150000      0.2000220000      5.7677610000
H                 -9.0126420000      0.6616510000      4.1050580000
H                 -9.2018480000      2.5634880000      6.5223120000
H                -10.5695820000      1.8743440000      5.6475780000
H                 -9.5065220000      3.0301440000      4.8441200000
$end
$rem
MAX_SCF_CYCLES=200
BASIS  =  6-311++G(d,p)
GUI  =  2
JOB_TYPE  =  SP
METHOD  =  B3LYP
SCF_CONVERGENCE  = 8
SOLVENT_METHOD = COSMO
$end
$solvent
dielectric 37.219
opticaldielectric 1.43
$end

--------------------------------------------------------------

             Standard Nuclear Orientation (Angstroms)
    I     Atom           X                Y                Z
 ----------------------------------------------------------------
    1      C       6.8148384422     0.0662633842    -0.9643324511
    2      C       7.4075560768     1.3161082018    -1.0021989279
    3      C       6.7115135074     2.4380327650    -0.4949281045
    4      C       5.5223516956    -0.1240468907    -0.4293816260
    5      C       4.8182519942     1.0114659968     0.0824808526
    6      C       5.4429590516     2.2761492069     0.0335556342
    7      C       4.9361673420    -1.4641215927    -0.4068943223
    8      C       3.6111971788    -1.5598925781     0.1544063694
    9      C       2.9243456644    -0.4464527089     0.6645716881
   10      C       3.4766300062     0.8837003526     0.6488724152
   11      O       5.5744527069    -2.4740100713    -0.8596512724
   12      O       2.8424098597     1.8949367693     1.1026873152
   13      H       8.4043605306     1.4366602043    -1.4205046341
   14      C       1.5429369402    -0.5747030264     1.2686100201
   15      H       7.1719591985     3.4230727488    -0.5216001830
   16      C       2.9974261735    -2.9415692121     0.1784658134
   17      C       0.3971014711    -0.2573410098     0.2852635097
   18      C      -0.9931467460    -0.3558274536     0.9258721752
   19      C      -2.1526652183    -0.0547369729    -0.0329510009
   20      H       7.3227585436    -0.8138431770    -1.3447326451
   21      H       4.8817985371     3.1164800400     0.4289400670
   22      H       1.4735685316     0.1402371002     2.0961657962
   23      H       1.3898210031    -1.5798927783     1.6788756654
   24      H       3.6369875825    -3.6147188967    -0.3951759863
   25      H       1.9860639041    -2.9583729946    -0.2464663379
   26      H       2.9183429101    -3.3429251530     1.1998482875
   27      H       0.4526403828    -0.9398526048    -0.5728271075
   28      H       0.5566824929     0.7543135384    -0.1015349411
   29      H      -1.0424365867     0.3354170312     1.7779838906
   30      H      -1.1293906729    -1.3635429338     1.3446003787
   31      H      -2.0990022899    -0.7395205708    -0.8901059107
   32      H      -2.0258677153     0.9550089346    -0.4447653080
   33      C      -3.5390260381    -0.1676029050     0.6148818778
   34      C      -4.7049521737     0.1188019109    -0.3403844901
   35      C      -6.0879218121    -0.0074956124     0.3115674089
   36      C      -7.2560502774     0.2717438946    -0.6432206524
   37      C      -8.6368658579     0.1384394922     0.0114677482
   38      H      -3.5949795724     0.5218882895     1.4679371153
   39      H      -3.6587886899    -1.1759035953     1.0341897779
   40      H      -4.6462978803    -0.5670688155    -1.1961227403
   41      H      -4.5919283270     1.1291627415    -0.7553726308
   42      H      -6.1487484032     0.6798669739     1.1658915254
   43      H      -6.1986829411    -1.0172158199     0.7291786585
   44      H      -7.1946455501    -0.4144623869    -1.4984161579
   45      H      -7.1492173222     1.2826408625    -1.0586510939
   46      H      -8.7022417534     0.8253023104     0.8654532405
   47      H      -8.7451544537    -0.8715249637     0.4281503625
   48      C      -9.8050756200     0.4138878741    -0.9445078769
   49      C     -11.1824255601     0.2780473088    -0.2887735839
   50      H      -9.7405289355    -0.2720985231    -1.7988680804
   51      H      -9.6990951284     1.4236592827    -1.3613632389
   52      H     -11.3419557110    -0.7329028335     0.1036107303
   53      H     -11.9912523460     0.4808931558    -0.9990626096
   54      H     -11.3005473133     0.9787266971     0.5458009068
 ----------------------------------------------------------------

  156   -1007.1588692751      5.09e-09  Convergence criterion met
 Total energy in the final basis set =    -1007.1588692751
   12   -1007.4080825834      5.75e-09  Convergence criterion met
 Total energy in the final basis set =    -1007.4080825834

                    Orbital Energies (a.u.)
 --------------------------------------------------------------

 Alpha MOs
 -- Occupied --
-19.0155 -19.0145 -10.1643 -10.1633 -10.1571 -10.1546 -10.1543 -10.1539
-10.1533 -10.1525 -10.1510 -10.1508 -10.1480 -10.1460 -10.1455 -10.1429
-10.1428 -10.1423 -10.1349 -10.1315 -10.1312 -10.1306 -10.1227 -10.1190
 -0.9399  -0.9366  -0.8234  -0.8054  -0.7924  -0.7793  -0.7623  -0.7375
 -0.7201  -0.7195  -0.7026  -0.6731  -0.6479  -0.6232  -0.6120  -0.5864
 -0.5710  -0.5680  -0.5642  -0.5607  -0.5458  -0.5160  -0.4810  -0.4769
 -0.4633  -0.4573  -0.4435  -0.4292  -0.4273  -0.4235  -0.4175  -0.4119
 -0.4007  -0.3984  -0.3966  -0.3872  -0.3853  -0.3774  -0.3703  -0.3679
 -0.3622  -0.3607  -0.3571  -0.3485  -0.3441  -0.3392  -0.3337  -0.3303
 -0.3253  -0.3199  -0.3189  -0.3161  -0.3144  -0.3135  -0.3128  -0.3104
 -0.3050  -0.3012  -0.2970  -0.2857  -0.2284  -0.2235  -0.2015  -0.1999
 -0.1893  -0.1043

          Ground-State Mulliken Net Atomic Charges

     Atom                 Charge (a.u.)
  ----------------------------------------
      1 C                     0.112452
      2 C                    -0.504995
      3 C                    -0.492077
      4 C                     0.147421
      5 C                    -0.174732
      6 C                    -0.005590
      7 C                    -0.665819
      8 C                     0.869496
      9 C                     0.960129
     10 C                    -0.897428
     11 O                    -0.730546
     12 O                    -0.702865
     13 H                     0.171306
     14 C                    -0.432920
     15 H                     0.171378
     16 C                    -0.571389
     17 C                    -1.028395
     18 C                    -0.337503
     19 C                    -0.082393
     20 H                     0.156845
     21 H                     0.153371
     22 H                     0.176025
     23 H                     0.169071
     24 H                     0.163756
     25 H                     0.144995
     26 H                     0.156398
     27 H                     0.127356
     28 H                     0.193813
     29 H                     0.121495
     30 H                     0.106760
     31 H                     0.130721
     32 H                     0.128787
     33 C                     0.032717
     34 C                     0.031134
     35 C                    -0.057741
     36 C                    -0.292045
     37 C                    -0.485349
     38 H                     0.136028
     39 H                     0.135083
     40 H                     0.133353
     41 H                     0.134858
     42 H                     0.133473
     43 H                     0.133204
     44 H                     0.131909
     45 H                     0.132162
     46 H                     0.129399
     47 H                     0.128675
     48 C                    -0.293893
     49 C                    -0.716763
     50 H                     0.136201
     51 H                     0.136501
     52 H                     0.145874
     53 H                     0.154563
     54 H                     0.145737
  ----------------------------------------
  Sum of atomic charges =    -2.000000

                    Cartesian Multipole Moments
 -----------------------------------------------------------------
    Charge (ESU x 10^10)
                -9.6064
    Dipole Moment (Debye)
         X     -42.3682      Y       1.3396      Z      -0.5622
       Tot      42.3932
    Quadrupole Moments (Debye-Ang)
        XX    -372.7699     XY      24.2471     YY    -198.6428
        XZ       9.6196     YZ     -14.0407     ZZ    -171.0374

 Total job time:  2256.13s(wall), 17635.90s(cpu)
        *  Thank you very much for using Q-Chem.  Have a nice day.  *
