 Q-Chem 5.4, Q-Chem, Inc., Pleasanton, CA (2021)
 Q-Chem 5.4.0 for Intel X86 EM64T Linux

User input:
--------------------------------------------------------------
$molecule
0 1
C                  3.4559990000      2.7435680000     -0.0320500000
C                  2.7431020000      1.4257560000      0.0135080000
C                  1.3938630000      1.3128640000     -0.0238880000
C                  0.6995250000      0.0406640000      0.0199980000
C                  1.5333760000     -1.1423590000      0.1078210000
C                  2.8864930000     -1.0974390000      0.1487160000
C                  3.7440110000     -2.3235680000      0.2394050000
C                  3.5817950000      0.2089280000      0.1032600000
O                  4.8084050000      0.2804920000      0.1378560000
C                 -0.6994590000     -0.0408710000     -0.0201890000
C                 -1.3939010000     -1.3130240000      0.0236660000
C                 -2.7431640000     -1.4257800000     -0.0133590000
C                 -3.4562510000     -2.7434450000      0.0321790000
C                 -3.5817740000     -0.2088510000     -0.1027890000
O                 -4.8083970000     -0.2802790000     -0.1371360000
C                 -2.8863310000      1.0974370000     -0.1486530000
C                 -1.5332040000      1.1422240000     -0.1079340000
C                 -3.7437580000      2.3235720000     -0.2394770000
H                  4.0799600000      2.8753200000      0.8565570000
H                  2.7506490000      3.5738320000     -0.0973060000
H                  4.1352890000      2.7851090000     -0.8882870000
H                  0.8152220000      2.2240400000     -0.0898870000
H                  1.0617980000     -2.1148860000      0.1430720000
H                  3.1373840000     -3.2303660000      0.2679870000
H                  4.4282410000     -2.3793980000     -0.6120850000
H                  4.3742000000     -2.2881850000      1.1326580000
H                 -0.8153050000     -2.2242570000      0.0892980000
H                 -4.1360390000     -2.7845860000      0.8880490000
H                 -4.0799150000     -2.8753300000     -0.8566260000
H                 -2.7511280000     -3.5738400000      0.0980370000
H                 -1.0615330000      2.1147150000     -0.1432420000
H                 -3.1371590000      3.2303990000     -0.2675190000
H                 -4.3733910000      2.2884210000     -1.1331670000
H                 -4.4286020000      2.3791240000      0.6115260000
$end
$rem
MAX_SCF_CYCLES=200
BASIS  =  6-311++G(d,p)
GUI  =  2
JOB_TYPE  =  SP
METHOD  =  B3LYP
SOLVENT_METHOD = COSMO
$end
$solvent
dielectric 37.219
opticaldielectric 1.43
$end

--------------------------------------------------------------

             Standard Nuclear Orientation (Angstroms)
    I     Atom           X                Y                Z
 ----------------------------------------------------------------
    1      C       3.6074409119    -2.5413402332    -0.0002798587
    2      C       2.8206650821    -1.2654445005    -0.0002151872
    3      C       1.4666264945    -1.2312643398     0.0001890767
    4      C       0.7009769066     0.0001189419     0.0001526678
    5      C       1.4667464685     1.2314437410     0.0000803179
    6      C       2.8207997520     1.2654358149    -0.0001794145
    7      C       3.6077601900     2.5412285906    -0.0001338402
    8      C       3.5893545561    -0.0000401246    -0.0003117982
    9      O       4.8185371975    -0.0001084776     0.0003291617
   10      C      -0.7009571793     0.0000723906     0.0001451230
   11      C      -1.4667087019     1.2314012717     0.0001339312
   12      C      -2.8207526886     1.2654643113     0.0001600859
   13      C      -3.6077101373     2.5412016668     0.0002310992
   14      C      -3.5893442286    -0.0000188537    -0.0000673019
   15      O      -4.8185247899    -0.0000735183    -0.0009642468
   16      C      -2.8206650156    -1.2654298537     0.0002161165
   17      C      -1.4666145385    -1.2313140221     0.0001392533
   18      C      -3.6075381665    -2.5412306742     0.0003078675
   19      H       4.2632300592    -2.5898908775    -0.8742888682
   20      H       2.9500207901    -3.4124969589    -0.0004227331
   21      H       4.2631700030    -2.5900591064     0.8737614387
   22      H       0.9403356356    -2.1759551484     0.0006202438
   23      H       0.9405787817     2.1762107769     0.0002293615
   24      H       2.9504616929     3.4124655190    -0.0010062120
   25      H       4.2628887229     2.5901185484     0.8743598872
   26      H       4.2642894792     2.5893553252    -0.8736005907
   27      H      -0.9404765868     2.1761267493     0.0000706095
   28      H      -4.2639234241     2.5894739544    -0.8734803362
   29      H      -4.2632163262     2.5898911383     0.8744540329
   30      H      -2.9505069019     3.4125083145    -0.0002273397
   31      H      -0.9403577766    -2.1760429489     0.0000519133
   32      H      -2.9502504416    -3.4124692440     0.0006388464
   33      H      -4.2635116546    -2.5895805851     0.8742164397
   34      H      -4.2633095453    -2.5899042530    -0.8737048421
 ----------------------------------------------------------------

    9    -769.9788600075      1.67e-06  Convergence criterion met
 Total energy in the final basis set =     -769.9788600075
    4    -769.9973581521      7.97e-06  Convergence criterion met
 Total energy in the final basis set =     -769.9973581521

                    Orbital Energies (a.u.)
 --------------------------------------------------------------

 Alpha MOs
 -- Occupied --
-19.1210 -19.1210 -10.2646 -10.2645 -10.2248 -10.2243 -10.2018 -10.2018
-10.2018 -10.2018 -10.1966 -10.1966 -10.1966 -10.1966 -10.1689 -10.1689
-10.1689 -10.1689  -1.0518  -1.0518  -0.8913  -0.8600  -0.8086  -0.8042
 -0.7964  -0.7370  -0.7100  -0.6978  -0.6916  -0.6735  -0.6300  -0.6037
 -0.5799  -0.5758  -0.5253  -0.5242  -0.4816  -0.4808  -0.4761  -0.4521
 -0.4480  -0.4410  -0.4382  -0.4287  -0.4190  -0.4184  -0.4183  -0.4181
 -0.4142  -0.3934  -0.3898  -0.3861  -0.3850  -0.3829  -0.3809  -0.3758
 -0.3719  -0.3554  -0.3240  -0.2760  -0.2723  -0.2687  -0.2669  -0.2347

          Ground-State Mulliken Net Atomic Charges

     Atom                 Charge (a.u.)
  ----------------------------------------
      1 C                    -0.230572
      2 C                     0.422861
      3 C                    -0.673638
      4 C                     1.485868
      5 C                    -0.674243
      6 C                     0.423345
      7 C                    -0.230728
      8 C                    -1.428212
      9 O                    -0.335407
     10 C                     1.486477
     11 C                    -0.674141
     12 C                     0.423031
     13 C                    -0.230335
     14 C                    -1.428356
     15 O                    -0.335400
     16 C                     0.423763
     17 C                    -0.673717
     18 C                    -0.230891
     19 H                     0.193233
     20 H                     0.182103
     21 H                     0.193188
     22 H                     0.051288
     23 H                     0.051657
     24 H                     0.181995
     25 H                     0.193304
     26 H                     0.193136
     27 H                     0.051612
     28 H                     0.193135
     29 H                     0.193220
     30 H                     0.182004
     31 H                     0.051949
     32 H                     0.182003
     33 H                     0.193248
     34 H                     0.193217
  ----------------------------------------
  Sum of atomic charges =     0.000000

                    Cartesian Multipole Moments
 -----------------------------------------------------------------
    Charge (ESU x 10^10)
                 0.0000
    Dipole Moment (Debye)
         X      -0.0025      Y       0.0007      Z       0.0014
       Tot       0.0030
    Quadrupole Moments (Debye-Ang)
        XX    -162.4161     XY       0.0017     YY     -87.0102
        XZ      -0.0172     YZ      -0.0001     ZZ    -108.5688

 Total job time:  70.55s(wall), 526.06s(cpu)
        *  Thank you very much for using Q-Chem.  Have a nice day.  *
