 Q-Chem 5.4, Q-Chem, Inc., Pleasanton, CA (2021)
 Q-Chem 5.4.0 for Intel X86 EM64T Linux

User input:
--------------------------------------------------------------
$molecule
-2 1
O                 -2.7252300000     -0.2031280000      0.4485040000
C                 -1.3497560000     -0.0568330000      0.2276990000
C                 -0.7074870000      1.1826600000      0.2663440000
C                  0.6902590000      1.2876750000      0.0366030000
O                  1.4224730000      2.3954250000      0.0442370000
C                  1.3498130000      0.0567830000     -0.2277990000
C                  0.7075610000     -1.1826380000     -0.2664020000
C                 -0.6901410000     -1.2877760000     -0.0359850000
O                 -1.4221100000     -2.3956170000     -0.0431110000
O                  2.7251110000      0.2032380000     -0.4492520000
H                 -2.7769380000     -1.1872980000      0.3380140000
H                 -1.2792140000      2.0860410000      0.4752590000
H                  1.2790870000     -2.0860150000     -0.4758550000
H                  2.7765710000      1.1874830000     -0.3382560000
$end
$rem
MAX_SCF_CYCLES=200
BASIS  =  6-311++G(d,p)
GUI  =  2
JOB_TYPE  =  SP
METHOD  =  B3LYP
SOLVENT_METHOD = COSMO
$end
$solvent
dielectric 37.219
opticaldielectric 1.43
$end

--------------------------------------------------------------

             Standard Nuclear Orientation (Angstroms)
    I     Atom           X                Y                Z
 ----------------------------------------------------------------
    1      O       2.4547237137     1.2821004826     0.0004420376
    2      C       1.1933428617     0.6729995374     0.0000125026
    3      C       0.0031721890     1.4036427697     0.0002082051
    4      C      -1.2562344644     0.7468340468    -0.0001669073
    5      O      -2.4563095896     1.3152750875    -0.0005661975
    6      C      -1.1933331088    -0.6730456242     0.0002220604
    7      C      -0.0032110197    -1.4036286776    -0.0000090698
    8      C       1.2562793583    -0.7468176191    -0.0003173502
    9      O       2.4562369462    -1.3153621140    -0.0004674708
   10      O      -2.4547027805    -1.2820460957     0.0004753579
   11      H       3.0044732506     0.4567231188     0.0004614847
   12      H       0.0325860150     2.4925639295     0.0002831599
   13      H      -0.0325015910    -2.4925475718     0.0004769248
   14      H      -3.0042388879    -0.4563849572     0.0000119685
 ----------------------------------------------------------------

   10    -532.0575322699      3.72e-06  Convergence criterion met
 Total energy in the final basis set =     -532.0575322699
    5    -532.3614270836      9.89e-06  Convergence criterion met
 Total energy in the final basis set =     -532.3614270836

                    Orbital Energies (a.u.)
 --------------------------------------------------------------

 Alpha MOs
 -- Occupied --
-19.1140 -19.1140 -19.0366 -19.0366 -10.1811 -10.1810 -10.1762 -10.1762
-10.1324 -10.1324  -1.0218  -1.0202  -0.9296  -0.9288  -0.7862  -0.6986
 -0.6515  -0.5738  -0.5506  -0.5073  -0.4600  -0.4416  -0.4247  -0.4049
 -0.3955  -0.3728  -0.3646  -0.3557  -0.3474  -0.3137  -0.3103  -0.3045
 -0.2308  -0.2277  -0.2217  -0.1943  -0.1287

          Ground-State Mulliken Net Atomic Charges

     Atom                 Charge (a.u.)
  ----------------------------------------
      1 O                    -0.395116
      2 C                    -0.196089
      3 C                     0.104700
      4 C                    -0.187290
      5 O                    -0.794861
      6 C                    -0.194840
      7 C                     0.104861
      8 C                    -0.186280
      9 O                    -0.794908
     10 O                    -0.395204
     11 H                     0.287683
     12 H                     0.179843
     13 H                     0.179822
     14 H                     0.287679
  ----------------------------------------
  Sum of atomic charges =    -2.000000

                    Cartesian Multipole Moments
 -----------------------------------------------------------------
    Charge (ESU x 10^10)
                -9.6064
    Dipole Moment (Debye)
         X       0.0002      Y      -0.0002      Z       0.0039
       Tot       0.0039
    Quadrupole Moments (Debye-Ang)
        XX    -115.0959     XY      13.1712     YY     -86.4484
        XZ       0.0034     YZ      -0.0013     ZZ     -66.2257

 Total job time:  14.69s(wall), 91.22s(cpu)
        *  Thank you very much for using Q-Chem.  Have a nice day.  *
