 Gaussian 16, Revision A.03,
 Gaussian 16:  ES64L-G16RevA.03 25-Dec-2016

 ----------------------------------------------------------------
 #P UB3LYP/6-311++G(d,p) SCRF=(PCM,Solvent=n,n-DiMethylFormamide)
 ----------------------------------------------------------------

 ------------------
 Quinone PCM in DMF
 ------------------
 Symbolic Z-matrix:
 Charge =  0 Multiplicity = 1

                         Standard orientation:
 ---------------------------------------------------------------------
 Center     Atomic      Atomic             Coordinates (Angstroms)
 Number     Number       Type             X           Y           Z
 ---------------------------------------------------------------------
      1          6           0      -19.207902    0.474185    1.346573
      2          6           0      -18.558582   -0.328313    0.275708
      3          6           0      -18.161182    0.282355   -0.860855
      4          6           0      -18.352144    1.769355   -1.061450
      5          6           0      -18.893156    2.560937    0.037822
      6          6           0      -19.333262    1.954687    1.176291
      7          8           0      -19.640792   -0.035823    2.370622
      8          8           0      -18.054543    2.276991   -2.139672
      9          6           0      -18.026884    4.742539   -0.481244
     10          6           0      -18.400227   -1.802142    0.540048
     11          1           0      -18.394542    5.764967   -0.402467
     12          1           0      -17.720033    4.528109   -1.503757
     13          1           0      -17.183583    4.603547    0.203257
     14          6           0      -17.498127   -0.448410   -2.006581
     15          6           0      -15.990256   -0.435338   -1.876875
     16          6           0      -15.141922   -1.471821   -1.921172
     17          6           0      -13.651659   -1.232394   -1.780271
     18          6           0      -13.054769   -1.734724   -0.441602
     19          6           0      -11.564416   -1.545018   -0.376049
     20          6           0      -10.851329   -0.781297    0.463903
     21          6           0       -9.340630   -0.738070    0.355047
     22          6           0       -8.599459   -1.387572    1.550866
     23          6           0       -7.105344   -1.276802    1.422341
     24          6           0       -6.198212   -2.253748    1.280381
     25          6           0       -4.727061   -1.912128    1.153578
     26          6           0      -15.548929   -2.908749   -2.136898
     27          6           0      -11.448945    0.075537    1.553682
     28          6           0       -6.526781   -3.726564    1.247314
     29          6           0       -4.128746   -2.185612   -0.249503
     30          6           0       -2.655496   -1.889677   -0.306156
     31          6           0       -2.010237   -0.960270   -1.025388
     32          6           0       -0.504733   -0.824680   -0.915103
     33          6           0       -0.033239    0.476848   -0.218692
     34          6           0        1.465799    0.586970   -0.175366
     35          6           0        2.277667    0.610623    0.891293
     36          6           0        3.778159    0.710559    0.702351
     37          6           0        4.553219   -0.575968    1.083922
     38          6           0        6.040504   -0.408963    0.938269
     39          6           0        6.880763   -1.038589    0.104599
     40          6           0        8.358275   -0.700999    0.116951
     41          6           0        8.853137    0.036665   -1.152822
     42          6           0       10.333966    0.295744   -1.118719
     43          6           0       10.983265    1.468275   -1.086320
     44          6           0       -2.678962   -0.005453   -1.984189
     45          6           0        1.807352    0.556277    2.324536
     46          6           0        6.468425   -2.108420   -0.877084
     47          6           0       10.309565    2.818822   -1.106051
     48          6           0       12.497894    1.496625   -1.039345
     49          6           0       13.083138    2.003435    0.302972
     50          6           0       14.585629    2.060488    0.282285
     51          6           0       15.464653    1.368851    1.021317
     52          6           0       15.084750    0.368682    2.086293
     53          6           0       16.953239    1.573703    0.824476
     54          6           0       17.694119    0.346726    0.236264
     55          6           0       19.141785    0.639095   -0.047689
     56          6           0       20.234320    0.086962    0.498738
     57          6           0       20.207187   -0.987971    1.558670
     58          6           0       21.614620    0.533358    0.061513
     59          1           0      -17.771319    0.067898   -2.931619
     60          1           0      -17.883880   -1.465812   -2.064807
     61          1           0      -15.565602    0.558805   -1.754920
     62          1           0      -13.440434   -0.163673   -1.875044
     63          1           0      -13.124714   -1.729603   -2.605511
     64          1           0      -13.274869   -2.803544   -0.328925
     65          1           0      -13.562448   -1.228893    0.382621
     66          1           0      -11.008237   -2.103415   -1.129460
     67          1           0       -9.013141    0.307055    0.270134
     68          1           0       -9.024359   -1.240066   -0.563827
     69          1           0       -8.921101   -2.427697    1.639449
     70          1           0       -8.908358   -0.887433    2.476833
     71          1           0       -6.729391   -0.253414    1.438899
     72          1           0       -4.155712   -2.489615    1.893030
     73          1           0       -4.573222   -0.856722    1.396071
     74          1           0      -16.627019   -3.043884   -2.220308
     75          1           0      -15.194549   -3.550526   -1.323571
     76          1           0      -15.094587   -3.293910   -3.057288
     77          1           0      -12.537258    0.113811    1.516570
     78          1           0      -11.073761    1.102584    1.478033
     79          1           0      -11.165414   -0.288138    2.547347
     80          1           0       -7.588515   -3.930251    1.382466
     81          1           0       -5.979604   -4.256519    2.035917
     82          1           0       -6.221905   -4.179770    0.298061
     83          1           0       -4.686346   -1.604646   -0.987461
     84          1           0       -4.282882   -3.241109   -0.504754
     85          1           0       -2.047407   -2.521092    0.342315
     86          1           0       -0.062191   -0.860766   -1.919913
     87          1           0       -0.099083   -1.678586   -0.364964
     88          1           0       -0.470199    0.516656    0.781538
     89          1           0       -0.431583    1.339879   -0.766022
     90          1           0        1.938702    0.643260   -1.156278
     91          1           0        4.165696    1.541702    1.307117
     92          1           0        4.001527    0.953203   -0.340529
     93          1           0        4.178314   -1.403277    0.477334
     94          1           0        4.331258   -0.831004    2.127332
     95          1           0        6.473965    0.338385    1.603530
     96          1           0        8.940639   -1.625539    0.230336
     97          1           0        8.585558   -0.080706    0.988703
     98          1           0        8.283478    0.961847   -1.264701
     99          1           0        8.626085   -0.575968   -2.033805
    100          1           0       10.945659   -0.606871   -1.108688
    101          1           0       -3.754202   -0.162674   -2.062607
    102          1           0       -2.249650   -0.110538   -2.987600
    103          1           0       -2.518480    1.035522   -1.684130
    104          1           0        0.722236    0.525261    2.416871
    105          1           0        2.166735    1.432946    2.876347
    106          1           0        2.207998   -0.322559    2.840827
    107          1           0        5.406847   -2.348117   -0.826194
    108          1           0        7.030818   -3.031442   -0.692807
    109          1           0        6.690227   -1.808850   -1.906874
    110          1           0        9.224929    2.753501   -1.185421
    111          1           0       10.673461    3.413473   -1.952308
    112          1           0       10.540560    3.390827   -0.201121
    113          1           0       12.874089    2.139537   -1.846767
    114          1           0       12.889486    0.493638   -1.231644
    115          1           0       12.714224    1.365032    1.108793
    116          1           0       12.697978    3.010665    0.503529
    117          1           0       14.996394    2.757998   -0.448299
    118          1           0       14.009431    0.307789    2.250417
    119          1           0       15.556265    0.631084    3.040641
    120          1           0       15.436878   -0.636368    1.829875
    121          1           0       17.419227    1.826059    1.785981
    122          1           0       17.116535    2.431849    0.164993
    123          1           0       17.195677    0.067729   -0.701128
    124          1           0       17.589557   -0.508940    0.905932
    125          1           0       19.302724    1.417479   -0.793999
    126          1           0       19.206526   -1.179618    1.945206
    127          1           0       20.845006   -0.704827    2.403822
    128          1           0       20.599369   -1.936078    1.174376
    129          1           0       21.523519    1.415945   -0.579370
    130          6           0       22.424350   -0.549592   -0.694992
    131          1           0       22.195556    0.843340    0.939977
    132          6           0       23.736019   -0.022896   -1.208260
    133          6           0       24.978549   -0.396147   -0.873885
    134          6           0       26.180736    0.266546   -1.502154
    135          6           0       25.316751   -1.477145    0.121977
    136          1           0       21.819128   -0.893174   -1.543868
    137          1           0       22.574501   -1.418562   -0.051440
    138          1           0       23.641376    0.778027   -1.941669
    139          1           0       25.891093    1.040333   -2.215923
    140          1           0       26.803364   -0.467210   -2.028114
    141          1           0       26.819032    0.727321   -0.738712
    142          1           0       24.439573   -1.932799    0.580487
    143          1           0       25.945907   -1.074782    0.924638
    144          1           0       25.897881   -2.273506   -0.358083
    145          8           0      -19.129333    3.903707   -0.090409
    146          1           0      -17.384912   -2.133458    0.313657
    147          1           0      -19.087041   -2.388691   -0.079679
    148          1           0      -18.624070   -2.025231    1.582199
    149          7           0      -19.900042    2.618865    2.213339
    150          1           0      -20.176073    3.578175    2.084081
    151          1           0      -20.317167    2.067304    2.947559
 ---------------------------------------------------------------------

 SCF Done:  E(UB3LYP) =  -2544.77182468     A.U. after   16 cycles

 Alpha virt. eigenvalues --    0.44246   0.44576   0.45147   0.45359   0.45975
 Alpha virt. eigenvalues --    0.46163   0.46737   0.46971   0.47388   0.47618
 Alpha virt. eigenvalues --    0.47824   0.47938   0.48207   0.48488   0.48579

  Beta  occ. eigenvalues --  -19.15757 -19.14345 -19.12499 -14.34519 -10.28886
  Beta  occ. eigenvalues --  -10.27454 -10.24357 -10.23600 -10.21791 -10.21133
  Beta  occ. eigenvalues --  -10.20806 -10.18205 -10.18146 -10.17740 -10.17597
  Beta  occ. eigenvalues --  -10.17554 -10.17554 -10.17551 -10.17549 -10.17548
  Beta  occ. eigenvalues --  -10.17548 -10.17537 -10.17280 -10.17024 -10.17011
  Beta  occ. eigenvalues --  -10.16965 -10.16841 -10.16832 -10.16829 -10.16829
  Beta  occ. eigenvalues --  -10.16828 -10.16826 -10.16820 -10.16815 -10.16800
  Beta  occ. eigenvalues --  -10.16785 -10.16782 -10.16782 -10.16781 -10.16780
  Beta  occ. eigenvalues --  -10.16760 -10.16758 -10.16507 -10.16209 -10.16193
  Beta  occ. eigenvalues --  -10.16180 -10.16179 -10.16170 -10.16165 -10.16164
  Beta  occ. eigenvalues --  -10.16164 -10.16163 -10.16157 -10.16136 -10.16133
  Beta  occ. eigenvalues --  -10.16132 -10.16131 -10.16131 -10.16129 -10.16122
  Beta  occ. eigenvalues --  -10.16119 -10.16052  -1.07917  -1.07439  -1.04945
  Beta  occ. eigenvalues --   -0.94380  -0.86042  -0.83338  -0.83245  -0.83078
  Beta  occ. eigenvalues --   -0.82838  -0.82530  -0.82161  -0.81740  -0.81286
  Beta  occ. eigenvalues --   -0.80837  -0.80504  -0.79189  -0.77904  -0.77425
  Beta  occ. eigenvalues --   -0.76812  -0.76121  -0.75386  -0.74628  -0.73877
  Beta  occ. eigenvalues --   -0.73181  -0.72609  -0.72225  -0.72013  -0.69969
  Beta  occ. eigenvalues --   -0.69255  -0.68972  -0.68936  -0.68871  -0.68782
  Beta  occ. eigenvalues --   -0.68648  -0.68420  -0.68060  -0.67556  -0.66985
  Beta  occ. eigenvalues --   -0.66931  -0.66016  -0.64646  -0.63722  -0.62727
  Beta  occ. eigenvalues --   -0.61746  -0.60828  -0.60229  -0.60029  -0.59442
  Beta  occ. eigenvalues --   -0.58981  -0.58616  -0.58397  -0.56507  -0.52778
  Beta  occ. eigenvalues --   -0.52564  -0.52500  -0.52387  -0.52276  -0.52132
  Beta  occ. eigenvalues --   -0.51965  -0.51768  -0.51567  -0.51408  -0.51287
  Beta  occ. eigenvalues --   -0.51108  -0.49796  -0.48206  -0.48042  -0.48017
  Beta  occ. eigenvalues --   -0.47957  -0.47875  -0.47856  -0.47709  -0.47448
  Beta  occ. eigenvalues --   -0.47093  -0.46987  -0.46641  -0.46508  -0.45780
  Beta  occ. eigenvalues --   -0.45442  -0.45037  -0.44791  -0.44622  -0.44434
  Beta  occ. eigenvalues --   -0.44294  -0.44153  -0.43788  -0.43702  -0.43528
  Beta  occ. eigenvalues --   -0.43381  -0.43214  -0.43057  -0.42560  -0.42058
  Beta  occ. eigenvalues --   -0.41964  -0.41822  -0.41746  -0.41623  -0.41565
  Beta  occ. eigenvalues --   -0.41450  -0.41290  -0.41158  -0.41008  -0.40964
  Beta  occ. eigenvalues --   -0.40899  -0.40481  -0.40473  -0.40386  -0.40240
  Beta  occ. eigenvalues --   -0.39944  -0.39671  -0.39463  -0.39364  -0.39250
  Beta  occ. eigenvalues --   -0.38759  -0.38513  -0.38196  -0.37517  -0.37484
  Beta  occ. eigenvalues --   -0.37474  -0.37437  -0.37419  -0.37364  -0.37251
  Beta  occ. eigenvalues --   -0.37174  -0.37147  -0.37090  -0.37081  -0.36975
  Beta  occ. eigenvalues --   -0.36893  -0.36783  -0.36601  -0.36588  -0.36379
  Beta  occ. eigenvalues --   -0.36171  -0.36068  -0.35841  -0.35783  -0.35613
  Beta  occ. eigenvalues --   -0.35244  -0.35092  -0.34525  -0.34440  -0.33941
  Beta  occ. eigenvalues --   -0.33893  -0.33680  -0.33634  -0.33294  -0.33269
  Beta  occ. eigenvalues --   -0.33140  -0.32934  -0.32914  -0.32802  -0.32493
  Beta  occ. eigenvalues --   -0.32030  -0.31925  -0.31582  -0.31203  -0.30963
  Beta  occ. eigenvalues --   -0.29270  -0.28497  -0.27126  -0.25441  -0.25272
  Beta  occ. eigenvalues --   -0.24989  -0.24687  -0.24332  -0.23906  -0.23540
  Beta  occ. eigenvalues --   -0.23249  -0.22849  -0.22509  -0.22379
  Beta virt. eigenvalues --   -0.12368  -0.01343  -0.01076  -0.00956  -0.00805
  Beta virt. eigenvalues --   -0.00689  -0.00466  -0.00203  -0.00012   0.00029
  Beta virt. eigenvalues --    0.00064   0.00144   0.00275   0.00333   0.00390

 Mulliken charges and spin densities:
               1          2
     1  C   -0.830953  -0.000000
     2  C    0.453853   0.000000
     3  C    1.071672  -0.000000
     4  C   -0.424734  -0.000000
     5  C   -0.416905   0.000000
     6  C    0.273456   0.000000
     7  O   -0.301434   0.000000
     8  O   -0.315298   0.000000
     9  C   -0.283000   0.000000
    10  C   -0.677623  -0.000000
    11  H    0.162413   0.000000
    12  H    0.173332  -0.000000
    13  H    0.149633  -0.000000
    14  C    0.289904   0.000000
    15  C   -0.796768   0.000000
    16  C    0.773634  -0.000000
    17  C   -0.615952   0.000000
    18  C   -0.323996  -0.000000
    19  C   -0.417038  -0.000000
    20  C    0.723941  -0.000000
    21  C   -0.487658   0.000000
    22  C   -0.325863   0.000000
    23  C   -0.334338  -0.000000
    24  C    0.556542  -0.000000
    25  C   -0.462249   0.000000
    26  C   -0.713245   0.000000
    27  C   -0.696328  -0.000000
    28  C   -0.702959   0.000000
    29  C   -0.252472  -0.000000
    30  C   -0.324804   0.000000
    31  C    0.486626  -0.000000
    32  C   -0.409993  -0.000000
    33  C   -0.277469   0.000000
    34  C   -0.325713  -0.000000
    35  C    0.495473  -0.000000
    36  C   -0.412009   0.000000
    37  C   -0.268503   0.000000
    38  C   -0.334022  -0.000000
    39  C    0.524856  -0.000000
    40  C   -0.448854   0.000000
    41  C   -0.225458  -0.000000
    42  C   -0.411243   0.000000
    43  C    0.598067   0.000000
    44  C   -0.721391   0.000000
    45  C   -0.714640  -0.000000
    46  C   -0.715537   0.000000
    47  C   -0.714861  -0.000000
    48  C   -0.484593  -0.000000
    49  C   -0.145078   0.000000
    50  C   -0.420499  -0.000000
    51  C    0.687302   0.000000
    52  C   -0.723991   0.000000
    53  C   -0.664051   0.000000
    54  C   -0.414885  -0.000000
    55  C   -0.111277   0.000000
    56  C    0.892166   0.000000
    57  C   -0.766377   0.000000
    58  C   -0.898837  -0.000000
    59  H    0.227772   0.000000
    60  H    0.205219   0.000000
    61  H    0.232255   0.000000
    62  H    0.156090   0.000000
    63  H    0.149677   0.000000
    64  H    0.149769   0.000000
    65  H    0.111938  -0.000000
    66  H    0.195111  -0.000000
    67  H    0.154701  -0.000000
    68  H    0.170218  -0.000000
    69  H    0.136033  -0.000000
    70  H    0.133382  -0.000000
    71  H    0.184655  -0.000000
    72  H    0.138457   0.000000
    73  H    0.175818   0.000000
    74  H    0.117970  -0.000000
    75  H    0.163311  -0.000000
    76  H    0.169029  -0.000000
    77  H    0.130157  -0.000000
    78  H    0.164447  -0.000000
    79  H    0.173822   0.000000
    80  H    0.127413   0.000000
    81  H    0.161829  -0.000000
    82  H    0.168744  -0.000000
    83  H    0.141211  -0.000000
    84  H    0.127366  -0.000000
    85  H    0.192457   0.000000
    86  H    0.139097  -0.000000
    87  H    0.174044  -0.000000
    88  H    0.134798   0.000000
    89  H    0.127815   0.000000
    90  H    0.192297   0.000000
    91  H    0.139607  -0.000000
    92  H    0.172833   0.000000
    93  H    0.135553   0.000000
    94  H    0.127868  -0.000000
    95  H    0.192092   0.000000
    96  H    0.140923   0.000000
    97  H    0.170013   0.000000
    98  H    0.134466   0.000000
    99  H    0.127928  -0.000000
   100  H    0.189315   0.000000
   101  H    0.130117  -0.000000
   102  H    0.162700   0.000000
   103  H    0.169043  -0.000000
   104  H    0.132000  -0.000000
   105  H    0.162286   0.000000
   106  H    0.168794   0.000000
   107  H    0.131274   0.000000
   108  H    0.162191  -0.000000
   109  H    0.168868  -0.000000
   110  H    0.131413  -0.000000
   111  H    0.162085   0.000000
   112  H    0.169938   0.000000
   113  H    0.141065  -0.000000
   114  H    0.171767  -0.000000
   115  H    0.130264   0.000000
   116  H    0.125497  -0.000000
   117  H    0.196701   0.000000
   118  H    0.135625   0.000000
   119  H    0.155535   0.000000
   120  H    0.168621  -0.000000
   121  H    0.166603  -0.000000
   122  H    0.154619   0.000000
   123  H    0.173574   0.000000
   124  H    0.125776   0.000000
   125  H    0.183803   0.000000
   126  H    0.125389  -0.000000
   127  H    0.160524  -0.000000
   128  H    0.172343   0.000000
   129  H    0.148579   0.000000
   130  C   -0.273840   0.000000
   131  H    0.178121  -0.000000
   132  C   -0.081641  -0.000000
   133  C    0.433675   0.000000
   134  C   -0.624778  -0.000000
   135  C   -0.676905   0.000000
   136  H    0.173323   0.000000
   137  H    0.120866  -0.000000
   138  H    0.164778  -0.000000
   139  H    0.156861   0.000000
   140  H    0.144706  -0.000000
   141  H    0.150699  -0.000000
   142  H    0.134999   0.000000
   143  H    0.150884  -0.000000
   144  H    0.147081  -0.000000
   145  O   -0.248574  -0.000000
   146  H    0.183594  -0.000000
   147  H    0.213496   0.000000
   148  H    0.183613   0.000000
   149  N   -0.401968  -0.000000
   150  H    0.310677   0.000000
   151  H    0.315871  -0.000000
 Sum of Mulliken charges =  -0.00000  -0.00000

 Dipole moment (field-independent basis, Debye):
    X=              1.1259    Y=             -1.1206    Z=              2.3512  Tot=              2.8375
 Quadrupole moment (field-independent basis, Debye-Ang):
   XX=           -391.6845   YY=           -375.4058   ZZ=           -399.6963
   XY=             -6.4233   XZ=            -21.0127   YZ=             12.5527

 Normal termination of Gaussian 16 at Thu Jan 25 00:23:34 2024.
