 Q-Chem 5.4, Q-Chem, Inc., Pleasanton, CA (2021)
 Q-Chem 5.4.0 for Intel X86 EM64T Linux

User input:
--------------------------------------------------------------
$molecule
0 1
C                 -4.1000470000      3.6200770000      1.5296850000
C                 -4.5842060000      3.8392160000      0.2343320000
C                 -3.9835090000      3.1868730000     -0.8505380000
C                 -2.9097680000      2.3253940000     -0.6352290000
C                 -2.4179300000      2.0979190000      0.6459560000
C                 -3.0288410000      2.7587010000      1.7309310000
C                 -2.5222730000      2.5312940000      3.1000500000
C                 -1.3657230000      1.5947260000      3.2720000000
C                 -0.7881600000      0.9673840000      2.2274880000
C                 -1.2649670000      1.1697140000      0.8547840000
O                 -2.9827980000      3.0558030000      4.1048700000
O                 -0.7344380000      0.5960160000     -0.0874780000
O                 -0.9642570000      1.4400610000      4.5386670000
O                 -5.6310630000      4.6948110000      0.1346000000
C                 -6.1796490000      4.9686650000     -1.1521900000
H                 -4.5627610000      4.1230610000      2.3692820000
H                 -4.3425490000      3.3425880000     -1.8588400000
H                 -2.4384580000      1.8163120000     -1.4672060000
H                  0.0476660000      0.2927170000      2.3667590000
H                 -1.5479440000      2.0018190000      5.0828470000
H                 -6.9939460000      5.6697250000     -0.9809370000
H                 -6.5737530000      4.0593940000     -1.6170120000
H                 -5.4358750000      5.4283190000     -1.8107190000
$end

$rem
BASIS  =  6-311++G(d,p)
GUI  =  2
JOB_TYPE  =  SP
METHOD  =  B3LYP
SCF_CONVERGENCE  = 8
SOLVENT_METHOD = sm12
$end

$smx
solvent dimethylformamide
charges CM5
$end

--------------------------------------------------------------

             Standard Nuclear Orientation (Angstroms)
    I     Atom           X                Y                Z
 ----------------------------------------------------------------
    1      C      -4.1000470000     3.6200770000     1.5296850000
    2      C      -4.5842060000     3.8392160000     0.2343320000
    3      C      -3.9835090000     3.1868730000    -0.8505380000
    4      C      -2.9097680000     2.3253940000    -0.6352290000
    5      C      -2.4179300000     2.0979190000     0.6459560000
    6      C      -3.0288410000     2.7587010000     1.7309310000
    7      C      -2.5222730000     2.5312940000     3.1000500000
    8      C      -1.3657230000     1.5947260000     3.2720000000
    9      C      -0.7881600000     0.9673840000     2.2274880000
   10      C      -1.2649670000     1.1697140000     0.8547840000
   11      O      -2.9827980000     3.0558030000     4.1048700000
   12      O      -0.7344380000     0.5960160000    -0.0874780000
   13      O      -0.9642570000     1.4400610000     4.5386670000
   14      O      -5.6310630000     4.6948110000     0.1346000000
   15      C      -6.1796490000     4.9686650000    -1.1521900000
   16      H      -4.5627610000     4.1230610000     2.3692820000
   17      H      -4.3425490000     3.3425880000    -1.8588400000
   18      H      -2.4384580000     1.8163120000    -1.4672060000
   19      H       0.0476660000     0.2927170000     2.3667590000
   20      H      -1.5479440000     2.0018190000     5.0828470000
   21      H      -6.9939460000     5.6697250000    -0.9809370000
   22      H      -6.5737530000     4.0593940000    -1.6170120000
   23      H      -5.4358750000     5.4283190000    -1.8107190000
 ----------------------------------------------------------------

   15    -725.0749036084      7.14e-09  Convergence criterion met
 Total energy in the final basis set =     -725.0962990872

                    Orbital Energies (a.u.)
 --------------------------------------------------------------

 Alpha MOs
 -- Occupied --
-19.1837 -19.1691 -19.1537 -19.1222 -10.2973 -10.2772 -10.2749 -10.2619
-10.2211 -10.2151 -10.2029 -10.2011 -10.2002 -10.1986 -10.1981  -1.1142
 -1.0854  -1.0727  -1.0550  -0.8926  -0.8364  -0.7872  -0.7777  -0.7209
 -0.6962  -0.6611  -0.6308  -0.6113  -0.5773  -0.5505  -0.5278  -0.5175
 -0.5065  -0.4792  -0.4722  -0.4714  -0.4571  -0.4540  -0.4501  -0.4292
 -0.4228  -0.4158  -0.4116  -0.3932  -0.3881  -0.3866  -0.3453  -0.3385
 -0.3057  -0.2901  -0.2761  -0.2728  -0.2479

          Ground-State Mulliken Net Atomic Charges

     Atom                 Charge (a.u.)
  ----------------------------------------
      1 C                    -0.045069
      2 C                    -0.035967
      3 C                     1.417071
      4 C                     0.183789
      5 C                    -0.581431
      6 C                     0.511897
      7 C                    -0.960140
      8 C                    -0.356757
      9 C                     0.411366
     10 C                    -1.393168
     11 O                    -0.276441
     12 O                    -0.341447
     13 O                    -0.209117
     14 O                    -0.191234
     15 C                    -0.134229
     16 H                     0.215234
     17 H                     0.406244
     18 H                     0.191217
     19 H                     0.247830
     20 H                     0.292439
     21 H                     0.229851
     22 H                     0.209115
     23 H                     0.208945
  ----------------------------------------
  Sum of atomic charges =     0.000000

                    Cartesian Multipole Moments
 -----------------------------------------------------------------
    Charge (ESU x 10^10)
                -0.0000
    Dipole Moment (Debye)
         X      -4.1056      Y       3.0411      Z      -2.6087
       Tot       5.7367
    Quadrupole Moments (Debye-Ang)
        XX     -61.0681     XY     -19.1834     YY     -72.9679
        XZ      16.4518     YZ     -13.5982     ZZ     -86.5020

 Total job time:  343.03s(wall), 2667.96s(cpu)
        *  Thank you very much for using Q-Chem.  Have a nice day.  *
