 Q-Chem 5.4, Q-Chem, Inc., Pleasanton, CA (2021)
 Q-Chem 5.4.0 for Intel X86 EM64T Linux

User input:
--------------------------------------------------------------
$molecule
-2 1
C                  5.9015280000     -5.2058010000      1.0748490000
C                  6.7798620000     -5.0787980000      0.0140960000
C                  6.5479010000     -4.0847070000     -0.9699890000
C                  4.7670600000     -4.3726900000      1.2180960000
C                  4.5314360000     -3.3627320000      0.2183730000
C                  5.4466000000     -3.2559890000     -0.8552630000
C                  3.8908270000     -4.5768910000      2.3713630000
C                  2.8012840000     -3.6698700000      2.3795930000
C                  2.5683650000     -2.6714420000      1.3913090000
C                  3.3934510000     -2.4447620000      0.2609490000
O                  4.1171830000     -5.4819800000      3.2538610000
O                  3.1996530000     -1.5492900000     -0.6389400000
H                  6.0458390000     -5.9547970000      1.8476070000
H                  7.6437510000     -5.7374300000     -0.0652870000
H                  5.2359020000     -2.4834620000     -1.5885990000
Cl                 1.6668330000     -3.8363560000      3.7549920000
H                  7.2325010000     -3.9749170000     -1.8100330000
Cl                 1.1441790000     -1.5958860000      1.5373240000
$end
$rem
MAX_SCF_CYCLES=200
BASIS  =  6-311++G(d,p)
GUI  =  2
JOB_TYPE  =  SP
METHOD  =  B3LYP
SOLVENT_METHOD = COSMO
$end
$solvent
dielectric 37.219
opticaldielectric 1.43
$end

--------------------------------------------------------------

             Standard Nuclear Orientation (Angstroms)
    I     Atom           X                Y                Z
 ----------------------------------------------------------------
    1      C       2.5024916483    -1.3905050086     0.0001036222
    2      C       3.7059370459    -0.7089506750     0.0005160057
    3      C       3.7059430220     0.7089513330     0.0004487602
    4      C       1.2565599440    -0.7202325510    -0.0004488128
    5      C       1.2565645631     0.7202465039    -0.0004590134
    6      C       2.5025006224     1.3905125477     0.0000331826
    7      C       0.0321668550    -1.5204627248    -0.0010185886
    8      C      -1.1324228878    -0.7120141352    -0.0003980582
    9      C      -1.1324185800     0.7119995573    -0.0003862762
   10      C       0.0321661785     1.5204588798    -0.0009550992
   11      O       0.0512159751    -2.8045427674     0.0001780238
   12      O       0.0511920395     2.8045401845     0.0001401770
   13      H       2.4621476680    -2.4755616719     0.0001050832
   14      H       4.6472629495    -1.2569537646     0.0008814006
   15      H       2.4621288356     2.4755671176     0.0000045522
   16      Cl     -2.6886784382    -1.5977269817     0.0002976688
   17      H       4.6472724883     1.2569510133     0.0007840409
   18      Cl     -2.6886748868     1.5977267232     0.0003532126
 ----------------------------------------------------------------

   10   -1454.5021964770      7.54e-06  Convergence criterion met
 Total energy in the final basis set =    -1454.5021964770
    6   -1454.7806451118      2.98e-06  Convergence criterion met
 Total energy in the final basis set =    -1454.7806451118

                    Orbital Energies (a.u.)
 --------------------------------------------------------------

 Alpha MOs
 -- Occupied --
********-101.5323 -19.0346 -19.0346 -10.1967 -10.1962 -10.1946 -10.1946
-10.1584 -10.1579 -10.1553 -10.1550 -10.1543 -10.1543  -9.4467  -9.4467
 -7.2107  -7.2107  -7.2021  -7.2021  -7.2013  -7.2013  -0.9570  -0.9530
 -0.8579  -0.8357  -0.8184  -0.7648  -0.7333  -0.6990  -0.6560  -0.5901
 -0.5841  -0.5400  -0.4961  -0.4777  -0.4473  -0.4361  -0.4082  -0.3999
 -0.3985  -0.3953  -0.3819  -0.3703  -0.3512  -0.3483  -0.3389  -0.3202
 -0.3106  -0.3083  -0.3076  -0.2843  -0.2397  -0.2388  -0.2197  -0.2190
 -0.2140  -0.1322

          Ground-State Mulliken Net Atomic Charges

     Atom                 Charge (a.u.)
  ----------------------------------------
      1 C                    -0.159748
      2 C                    -0.466199
      3 C                    -0.467240
      4 C                     0.327333
      5 C                     0.329077
      6 C                    -0.159509
      7 C                    -1.709847
      8 C                     1.027961
      9 C                     1.029801
     10 C                    -1.709422
     11 O                    -0.653988
     12 O                    -0.654059
     13 H                     0.161604
     14 H                     0.192989
     15 H                     0.161637
     16 Cl                    0.278251
     17 H                     0.192996
     18 Cl                    0.278362
  ----------------------------------------
  Sum of atomic charges =    -2.000000

                    Cartesian Multipole Moments
 -----------------------------------------------------------------
    Charge (ESU x 10^10)
                -9.6064
    Dipole Moment (Debye)
         X       3.7962      Y       0.0011      Z      -0.0011
       Tot       3.7962
    Quadrupole Moments (Debye-Ang)
        XX    -118.4186     XY       0.0016     YY    -162.0763
        XZ       0.0003     YZ       0.0018     ZZ    -104.0912

 Total job time:  60.84s(wall), 278.79s(cpu)
        *  Thank you very much for using Q-Chem.  Have a nice day.  *
