 Gaussian 16, Revision A.03,
 Gaussian 16:  ES64L-G16RevA.03 25-Dec-2016

 ----------------------------------------------------------------
 #P UB3LYP/6-311++G(d,p) SCRF=(PCM,Solvent=n,n-DiMethylFormamide)
 ----------------------------------------------------------------

 -------
 Reduced
 -------
 Symbolic Z-matrix:
 Charge = -2 Multiplicity = 1

                         Standard orientation:
 ---------------------------------------------------------------------
 Center     Atomic      Atomic             Coordinates (Angstroms)
 Number     Number       Type             X           Y           Z
 ---------------------------------------------------------------------
      1          8           0        0.000084    2.799423   -0.000083
      2          6           0       -0.000030    1.517622   -0.000230
      3          6           0       -1.220768    0.735264   -0.000052
      4          6           0       -2.455711    1.398463    0.000377
      5          6           0       -3.681933    0.729357    0.000290
      6          6           0       -4.941718    1.402579    0.000410
      7          6           0       -6.131874    0.717945    0.000259
      8          6           0       -6.131858   -0.717609    0.000119
      9          6           0       -4.941978   -1.402498   -0.000162
     10          6           0       -3.681883   -0.729467   -0.000239
     11          6           0       -2.455830   -1.398583   -0.000463
     12          6           0       -1.220636   -0.735418   -0.000230
     13          6           0       -0.000044   -1.517578   -0.000263
     14          8           0        0.000101   -2.799638   -0.000047
     15          6           0        1.220635   -0.735274   -0.000103
     16          6           0        2.455776   -1.398529    0.000323
     17          6           0        3.681859   -0.729378    0.000268
     18          6           0        4.941937   -1.402523    0.000380
     19          6           0        6.131807   -0.717646    0.000282
     20          6           0        6.131834    0.717937    0.000193
     21          6           0        4.941706    1.402598   -0.000172
     22          6           0        3.681948    0.729279   -0.000254
     23          6           0        2.455680    1.398460   -0.000520
     24          6           0        1.220850    0.735169   -0.000252
     25          1           0       -2.424252    2.484559    0.000561
     26          1           0       -4.938274    2.490626    0.000673
     27          1           0       -7.075807    1.257034    0.000684
     28          1           0       -7.075881   -1.256626   -0.000227
     29          1           0       -4.938724   -2.490543   -0.000415
     30          1           0       -2.424247   -2.484676   -0.000597
     31          1           0        2.424213   -2.484605    0.000489
     32          1           0        4.938638   -2.490552    0.000616
     33          1           0        7.075890   -1.256551    0.000745
     34          1           0        7.075866    1.256875   -0.000061
     35          1           0        4.938279    2.490630   -0.000451
     36          1           0        2.424206    2.484537   -0.000745
 ---------------------------------------------------------------------

 SCF Done:  E(UB3LYP) =  -996.535084157     A.U. after   16 cycles

 The electronic state is 1-A.
 Alpha  occ. eigenvalues --  -19.02517 -19.02500 -10.17815 -10.17798 -10.16473
 Alpha  occ. eigenvalues --  -10.16472 -10.16472 -10.16471 -10.16312 -10.16310
 Alpha  occ. eigenvalues --  -10.16296 -10.16294 -10.16271 -10.16270 -10.16261
 Alpha  occ. eigenvalues --  -10.16260 -10.14921 -10.14920 -10.14914 -10.14914
 Alpha  occ. eigenvalues --  -10.14274 -10.14272 -10.14241 -10.14240  -0.94544
 Alpha  occ. eigenvalues --   -0.94219  -0.85419  -0.85354  -0.80809  -0.79645
 Alpha  occ. eigenvalues --   -0.75814  -0.75779  -0.74542  -0.71287  -0.70806
 Alpha  occ. eigenvalues --   -0.70391  -0.64019  -0.63592  -0.60043  -0.59767
 Alpha  occ. eigenvalues --   -0.57820  -0.56915  -0.54782  -0.52274  -0.50331
 Alpha  occ. eigenvalues --   -0.49793  -0.49467  -0.45812  -0.44777  -0.44388
 Alpha  occ. eigenvalues --   -0.43101  -0.42903  -0.41672  -0.41479  -0.40085
 Alpha  occ. eigenvalues --   -0.39753  -0.39118  -0.38868  -0.38279  -0.37586
 Alpha  occ. eigenvalues --   -0.37165  -0.36869  -0.35645  -0.35415  -0.34448
 Alpha  occ. eigenvalues --   -0.33538  -0.33186  -0.31887  -0.31039  -0.30751
 Alpha  occ. eigenvalues --   -0.29913  -0.28249  -0.27713  -0.27115  -0.22652
 Alpha  occ. eigenvalues --   -0.21941  -0.20667  -0.20571  -0.20265  -0.19998
 Alpha  occ. eigenvalues --   -0.10082
 Alpha virt. eigenvalues --   -0.06101  -0.02636  -0.00954  -0.00069   0.00286
 Alpha virt. eigenvalues --    0.01154   0.01343   0.01415   0.01790   0.02805
 Alpha virt. eigenvalues --    0.02998   0.03259   0.03375   0.04404   0.04648

  Beta  occ. eigenvalues --  -19.02517 -19.02500 -10.17815 -10.17798 -10.16473
  Beta  occ. eigenvalues --  -10.16472 -10.16472 -10.16471 -10.16312 -10.16310
  Beta  occ. eigenvalues --  -10.16296 -10.16294 -10.16271 -10.16270 -10.16261
  Beta  occ. eigenvalues --  -10.16260 -10.14921 -10.14920 -10.14914 -10.14914
  Beta  occ. eigenvalues --  -10.14274 -10.14272 -10.14241 -10.14240  -0.94544
  Beta  occ. eigenvalues --   -0.94219  -0.85419  -0.85354  -0.80809  -0.79645
  Beta  occ. eigenvalues --   -0.75814  -0.75779  -0.74542  -0.71287  -0.70806
  Beta  occ. eigenvalues --   -0.70391  -0.64019  -0.63592  -0.60043  -0.59767
  Beta  occ. eigenvalues --   -0.57820  -0.56915  -0.54782  -0.52274  -0.50331
  Beta  occ. eigenvalues --   -0.49793  -0.49467  -0.45812  -0.44777  -0.44388
  Beta  occ. eigenvalues --   -0.43101  -0.42903  -0.41672  -0.41479  -0.40085
  Beta  occ. eigenvalues --   -0.39753  -0.39118  -0.38868  -0.38279  -0.37586
  Beta  occ. eigenvalues --   -0.37165  -0.36869  -0.35645  -0.35415  -0.34448
  Beta  occ. eigenvalues --   -0.33538  -0.33186  -0.31887  -0.31039  -0.30751
  Beta  occ. eigenvalues --   -0.29913  -0.28249  -0.27713  -0.27115  -0.22652
  Beta  occ. eigenvalues --   -0.21941  -0.20667  -0.20571  -0.20265  -0.19998
  Beta  occ. eigenvalues --   -0.10082
  Beta virt. eigenvalues --   -0.06101  -0.02636  -0.00954  -0.00069   0.00286
  Beta virt. eigenvalues --    0.01154   0.01343   0.01415   0.01790   0.02805
  Beta virt. eigenvalues --    0.02998   0.03259   0.03375   0.04404   0.04648

 Mulliken charges and spin densities:
               1          2
     1  O   -0.617297  -0.000000
     2  C   -0.656775   0.000000
     3  C    0.279779  -0.000000
     4  C   -0.007503   0.000000
     5  C    0.064705  -0.000000
     6  C   -0.262487  -0.000000
     7  C   -0.381417   0.000000
     8  C   -0.380986  -0.000000
     9  C   -0.263547   0.000000
    10  C    0.065923   0.000000
    11  C   -0.007448   0.000000
    12  C    0.278605  -0.000000
    13  C   -0.654965   0.000000
    14  O   -0.618261  -0.000000
    15  C    0.278994  -0.000000
    16  C   -0.007472   0.000000
    17  C    0.066065   0.000000
    18  C   -0.263584   0.000000
    19  C   -0.380981   0.000000
    20  C   -0.381436   0.000000
    21  C   -0.262518  -0.000000
    22  C    0.064698   0.000000
    23  C   -0.007576  -0.000000
    24  C    0.280116  -0.000000
    25  H    0.125568  -0.000000
    26  H    0.143858  -0.000000
    27  H    0.174384  -0.000000
    28  H    0.174392   0.000000
    29  H    0.143830   0.000000
    30  H    0.125591  -0.000000
    31  H    0.125621   0.000000
    32  H    0.143843   0.000000
    33  H    0.174406  -0.000000
    34  H    0.174400   0.000000
    35  H    0.143873   0.000000
    36  H    0.125602   0.000000
 Sum of Mulliken charges =  -2.00000  -0.00000

 Dipole moment (field-independent basis, Debye):
    X=              0.0054    Y=              0.0170    Z=              0.0005  Tot=              0.0178
 Quadrupole moment (field-independent basis, Debye-Ang):
   XX=           -188.4022   YY=           -193.3802   ZZ=           -154.8906
   XY=              0.0003   XZ=              0.0005   YZ=              0.0002

 Normal termination of Gaussian 16 at Sun Jan 14 01:30:58 2024.
