 Gaussian 16, Revision A.03,
 Gaussian 16:  ES64L-G16RevA.03 25-Dec-2016

 ----------------------------------------------------------------
 #P UB3LYP/6-311++G(d,p) SCRF=(PCM,Solvent=n,n-DiMethylFormamide)
 ----------------------------------------------------------------

 -------
 Reduced
 -------
 Symbolic Z-matrix:
 Charge = -2 Multiplicity = 1

                         Standard orientation:
 ---------------------------------------------------------------------
 Center     Atomic      Atomic             Coordinates (Angstroms)
 Number     Number       Type             X           Y           Z
 ---------------------------------------------------------------------
      1          6           0       -3.929967    0.419122    0.507244
      2          6           0       -4.680569   -0.736726    0.592962
      3          6           0       -4.079729   -1.994148    0.326085
      4          6           0       -2.554557    0.390681    0.155600
      5          6           0       -1.940851   -0.891216   -0.116147
      6          6           0       -2.737379   -2.047751   -0.018462
      7          6           0       -1.789389    1.595405    0.068541
      8          6           0       -0.419144    1.434428   -0.295242
      9          6           0        0.210559    0.221253   -0.569958
     10          6           0       -0.527276   -1.011326   -0.487583
     11          8           0       -2.226852    2.805826    0.281918
     12          8           0        0.010827   -2.145942   -0.730953
     13          1           0       -4.369643    1.391572    0.706743
     14          1           0       -5.733331   -0.683995    0.865610
     15          1           0       -4.667400   -2.907159    0.393937
     16          1           0       -2.246995   -2.993618   -0.227908
     17          6           0        1.664751    0.169930   -0.968051
     18          8           0        0.257098    2.633627   -0.367276
     19          1           0        1.948432    1.111168   -1.453671
     20          1           0        1.788142   -0.644994   -1.691101
     21          1           0       -0.480131    3.250149   -0.129079
     22          6           0        2.627587   -0.090008    0.208902
     23          6           0        4.101143   -0.170236   -0.217135
     24          6           0        5.077977   -0.422615    0.938353
     25          6           0        6.548337   -0.500450    0.508882
     26          1           0        2.331358   -1.027550    0.691883
     27          1           0        2.505743    0.707774    0.952274
     28          1           0        4.382925    0.763032   -0.725641
     29          1           0        4.215480   -0.968728   -0.963307
     30          1           0        4.798446   -1.355350    1.444830
     31          1           0        4.961571    0.372596    1.686415
     32          1           0        6.711260   -1.309219   -0.213143
     33          1           0        7.220720   -0.683494    1.355294
     34          1           0        6.875865    0.431669    0.033396
 ---------------------------------------------------------------------

 SCF Done:  E(UB3LYP) =  -807.390477474     A.U. after   18 cycles

 The electronic state is 1-A.
 Alpha  occ. eigenvalues --  -19.10783 -19.02242 -19.01440 -10.17263 -10.16928
 Alpha  occ. eigenvalues --  -10.15725 -10.15673 -10.15217 -10.15118 -10.14608
 Alpha  occ. eigenvalues --  -10.14516 -10.14200 -10.14169 -10.14120 -10.13897
 Alpha  occ. eigenvalues --  -10.13272 -10.12858 -10.12036  -1.02139  -0.93548
 Alpha  occ. eigenvalues --   -0.92552  -0.82037  -0.79236  -0.76682  -0.73764
 Alpha  occ. eigenvalues --   -0.71836  -0.70094  -0.65909  -0.62702  -0.59691
 Alpha  occ. eigenvalues --   -0.57788  -0.56610  -0.55101  -0.53063  -0.49909
 Alpha  occ. eigenvalues --   -0.46803  -0.46419  -0.44371  -0.42883  -0.42430
 Alpha  occ. eigenvalues --   -0.41513  -0.40708  -0.40030  -0.39695  -0.38094
 Alpha  occ. eigenvalues --   -0.37570  -0.36689  -0.35986  -0.35147  -0.34608
 Alpha  occ. eigenvalues --   -0.34473  -0.34010  -0.32652  -0.31956  -0.31846
 Alpha  occ. eigenvalues --   -0.31036  -0.30749  -0.30143  -0.29321  -0.29233
 Alpha  occ. eigenvalues --   -0.22639  -0.22055  -0.21105  -0.19258  -0.18808
 Alpha  occ. eigenvalues --   -0.10434
 Alpha virt. eigenvalues --   -0.00253  -0.00053   0.00396   0.01150   0.01599
 Alpha virt. eigenvalues --    0.01741   0.02274   0.02424   0.03121   0.03784
 Alpha virt. eigenvalues --    0.03990   0.04655   0.05037   0.05566   0.05766

  Beta  occ. eigenvalues --  -19.10783 -19.02242 -19.01440 -10.17263 -10.16928
  Beta  occ. eigenvalues --  -10.15725 -10.15673 -10.15217 -10.15118 -10.14608
  Beta  occ. eigenvalues --  -10.14516 -10.14200 -10.14169 -10.14120 -10.13897
  Beta  occ. eigenvalues --  -10.13272 -10.12858 -10.12036  -1.02139  -0.93548
  Beta  occ. eigenvalues --   -0.92552  -0.82037  -0.79236  -0.76682  -0.73764
  Beta  occ. eigenvalues --   -0.71836  -0.70094  -0.65909  -0.62702  -0.59691
  Beta  occ. eigenvalues --   -0.57788  -0.56610  -0.55101  -0.53063  -0.49909
  Beta  occ. eigenvalues --   -0.46803  -0.46419  -0.44371  -0.42883  -0.42430
  Beta  occ. eigenvalues --   -0.41513  -0.40708  -0.40030  -0.39695  -0.38094
  Beta  occ. eigenvalues --   -0.37570  -0.36689  -0.35986  -0.35147  -0.34608
  Beta  occ. eigenvalues --   -0.34473  -0.34010  -0.32652  -0.31956  -0.31846
  Beta  occ. eigenvalues --   -0.31036  -0.30749  -0.30143  -0.29321  -0.29233
  Beta  occ. eigenvalues --   -0.22639  -0.22055  -0.21105  -0.19258  -0.18808
  Beta  occ. eigenvalues --   -0.10434
  Beta virt. eigenvalues --   -0.00253  -0.00053   0.00396   0.01150   0.01599
  Beta virt. eigenvalues --    0.01741   0.02274   0.02424   0.03121   0.03784
  Beta virt. eigenvalues --    0.03990   0.04655   0.05037   0.05566   0.05766

 Mulliken charges and spin densities:
               1          2
     1  C    0.002222  -0.000000
     2  C   -0.409423  -0.000000
     3  C   -0.478464   0.000000
     4  C    0.323334  -0.000000
     5  C    0.066983   0.000000
     6  C    0.036475   0.000000
     7  C   -0.965862   0.000000
     8  C   -0.608615  -0.000000
     9  C    2.018569  -0.000000
    10  C   -0.814981  -0.000000
    11  O   -0.734583  -0.000000
    12  O   -0.644769   0.000000
    13  H    0.141734  -0.000000
    14  H    0.153146  -0.000000
    15  H    0.148268   0.000000
    16  H    0.140732  -0.000000
    17  C   -0.374763  -0.000000
    18  O   -0.342246   0.000000
    19  H    0.193259   0.000000
    20  H    0.168706   0.000000
    21  H    0.276575  -0.000000
    22  C   -0.449955   0.000000
    23  C   -0.190433  -0.000000
    24  C   -0.169942   0.000000
    25  C   -0.672250  -0.000000
    26  H    0.163930   0.000000
    27  H    0.139971  -0.000000
    28  H    0.101878   0.000000
    29  H    0.103975   0.000000
    30  H    0.126487  -0.000000
    31  H    0.127136  -0.000000
    32  H    0.140197   0.000000
    33  H    0.142874  -0.000000
    34  H    0.139834   0.000000
 Sum of Mulliken charges =  -2.00000   0.00000

 Dipole moment (field-independent basis, Debye):
    X=             11.7565    Y=             -2.4062    Z=              1.8584  Tot=             12.1432
 Quadrupole moment (field-independent basis, Debye-Ang):
   XX=           -158.9820   YY=           -164.5993   ZZ=           -123.3972
   XY=             13.8618   XZ=              3.9134   YZ=             -6.1787

 Normal termination of Gaussian 16 at Sun Jan 21 09:09:04 2024.
