 Gaussian 16, Revision A.03,
 Gaussian 16:  ES64L-G16RevA.03 25-Dec-2016

 ----------------------------------------------------------------------
 #P UB3LYP/6-311++G(d,p) nosym opt freq SCRF=(PCM,Solvent=n,n-DiMethylF
 ormamide)
 ----------------------------------------------------------------------

 --------
 Oxidized
 --------
 Symbolic Z-matrix:
 Charge =  0 Multiplicity = 1

 SCF Done:  E(UB3LYP) =  -726.041139526     A.U. after   16 cycles
 SCF Done:  E(UB3LYP) =  -726.041140006     A.U. after   11 cycles
 SCF Done:  E(UB3LYP) =  -726.041139815     A.U. after   11 cycles
 SCF Done:  E(UB3LYP) =  -726.041140355     A.U. after    9 cycles
 SCF Done:  E(UB3LYP) =  -726.041140549     A.U. after   10 cycles
 SCF Done:  E(UB3LYP) =  -726.041140800     A.U. after   11 cycles
 SCF Done:  E(UB3LYP) =  -726.041140930     A.U. after   11 cycles
 SCF Done:  E(UB3LYP) =  -726.041141081     A.U. after   10 cycles
 SCF Done:  E(UB3LYP) =  -726.041141303     A.U. after   10 cycles
 SCF Done:  E(UB3LYP) =  -726.041141376     A.U. after   10 cycles
 SCF Done:  E(UB3LYP) =  -726.041141396     A.U. after    9 cycles
 Optimization completed.
    -- Stationary point found.
 Normal termination of Gaussian 16 at Sun Feb 11 03:17:37 2024.

 ----------------------------------------------------------------------
 #P Geom=AllCheck Guess=TCheck SCRF=Check GenChk UB3LYP/6-311++G(d,p) F
 req
 ----------------------------------------------------------------------

 Structure from the checkpoint file:  "076.chk"
 --------
 Oxidized
 --------
 Charge =  0 Multiplicity = 1

                          Input orientation:
 ---------------------------------------------------------------------
 Center     Atomic      Atomic             Coordinates (Angstroms)
 Number     Number       Type             X           Y           Z
 ---------------------------------------------------------------------
      1          6           0       -0.183737    1.893833   -2.449498
      2          6           0       -1.620984    1.760211   -2.116218
      3          6           0       -2.109937    0.652531   -1.544539
      4          6           0       -1.226608   -0.490202   -1.219368
      5          6           0        0.212766   -0.368286   -1.555883
      6          6           0        0.710009    0.732343   -2.141114
      7          8           0        0.257552    2.921541   -2.939562
      8          8           0       -1.662641   -1.502265   -0.687777
      9          6           0        3.237410    0.966885   -1.619034
     10          6           0        4.568010    0.916696   -2.068142
     11          6           0        2.976562    1.177586   -0.256740
     12          6           0        4.029663    1.335299    0.640727
     13          6           0        5.614828    1.067879   -1.169479
     14          6           0        5.346587    1.278199    0.186789
     15          1           0       -2.244456    2.613673   -2.356827
     16          1           0       -3.158225    0.543103   -1.291829
     17          1           0        0.831345   -1.224561   -1.309423
     18          1           0        4.761273    0.756537   -3.121480
     19          1           0        1.957098    1.225114    0.104435
     20          1           0        3.822558    1.501710    1.691079
     21          1           0        6.639530    1.023773   -1.519126
     22          1           0        6.165342    1.397839    0.887066
     23          6           0        2.146660    0.818241   -2.611739
     24          8           0        2.346512    0.750422   -3.813759
 ---------------------------------------------------------------------

 SCF Done:  E(UB3LYP) =  -726.041141396     A.U. after    1 cycles

 Alpha  occ. eigenvalues --  -19.15389 -19.15183 -19.14116 -10.30145 -10.29678
 Alpha  occ. eigenvalues --  -10.29421 -10.23338 -10.22465 -10.22080 -10.21982
 Alpha  occ. eigenvalues --  -10.20604 -10.20139 -10.19823 -10.19757 -10.19326
 Alpha  occ. eigenvalues --  -10.19313  -1.08575  -1.07932  -1.07205  -0.88404
 Alpha  occ. eigenvalues --   -0.87633  -0.81645  -0.78193  -0.76981  -0.72612
 Alpha  occ. eigenvalues --   -0.68173  -0.64803  -0.63094  -0.61885  -0.57465
 Alpha  occ. eigenvalues --   -0.54473  -0.53574  -0.51761  -0.50158  -0.48585
 Alpha  occ. eigenvalues --   -0.48138  -0.46490  -0.46350  -0.45476  -0.45109
 Alpha  occ. eigenvalues --   -0.44493  -0.44233  -0.42980  -0.42795  -0.41454
 Alpha  occ. eigenvalues --   -0.38175  -0.37928  -0.36458  -0.32345  -0.31590
 Alpha  occ. eigenvalues --   -0.30270  -0.30216  -0.28100  -0.27770  -0.27692
 Alpha virt. eigenvalues --   -0.14697  -0.09058  -0.04434  -0.03096  -0.01486
 Alpha virt. eigenvalues --   -0.00677   0.00288   0.01215   0.01339   0.01397
 Alpha virt. eigenvalues --    0.01934   0.03054   0.03651   0.03774   0.04491

  Beta  occ. eigenvalues --  -19.15389 -19.15183 -19.14116 -10.30145 -10.29678
  Beta  occ. eigenvalues --  -10.29421 -10.23338 -10.22465 -10.22080 -10.21982
  Beta  occ. eigenvalues --  -10.20604 -10.20139 -10.19823 -10.19757 -10.19326
  Beta  occ. eigenvalues --  -10.19313  -1.08575  -1.07932  -1.07205  -0.88404
  Beta  occ. eigenvalues --   -0.87633  -0.81645  -0.78193  -0.76981  -0.72612
  Beta  occ. eigenvalues --   -0.68173  -0.64803  -0.63094  -0.61885  -0.57465
  Beta  occ. eigenvalues --   -0.54473  -0.53574  -0.51761  -0.50158  -0.48585
  Beta  occ. eigenvalues --   -0.48138  -0.46490  -0.46350  -0.45476  -0.45109
  Beta  occ. eigenvalues --   -0.44493  -0.44233  -0.42980  -0.42795  -0.41454
  Beta  occ. eigenvalues --   -0.38175  -0.37928  -0.36458  -0.32345  -0.31590
  Beta  occ. eigenvalues --   -0.30270  -0.30216  -0.28100  -0.27770  -0.27692
  Beta virt. eigenvalues --   -0.14697  -0.09058  -0.04434  -0.03096  -0.01486
  Beta virt. eigenvalues --   -0.00677   0.00288   0.01215   0.01339   0.01397
  Beta virt. eigenvalues --    0.01934   0.03054   0.03651   0.03774   0.04491

 Mulliken charges and spin densities:
               1          2
     1  C   -0.450132  -0.000000
     2  C   -0.053648   0.000000
     3  C    0.292486  -0.000000
     4  C   -0.717419   0.000000
     5  C    0.014910  -0.000000
     6  C    0.878780   0.000000
     7  O   -0.255300  -0.000000
     8  O   -0.279831   0.000000
     9  C    0.599991  -0.000000
    10  C    0.439656   0.000000
    11  C   -0.774207   0.000000
    12  C   -0.263183   0.000000
    13  C   -0.407672  -0.000000
    14  C   -0.229534   0.000000
    15  H    0.253487  -0.000000
    16  H    0.252986   0.000000
    17  H    0.266705  -0.000000
    18  H    0.215085   0.000000
    19  H    0.175206   0.000000
    20  H    0.220504  -0.000000
    21  H    0.205770  -0.000000
    22  H    0.191640   0.000000
    23  C   -0.311735   0.000000
    24  O   -0.264545  -0.000000
 Sum of Mulliken charges =  -0.00000   0.00000

 Dipole moment (field-independent basis, Debye):
    X=              0.9772    Y=              0.4660    Z=              4.4257  Tot=              4.5561
 Quadrupole moment (field-independent basis, Debye-Ang):
   XX=            -67.8716   YY=           -104.8172   ZZ=           -111.1596
   XY=             -7.2523   XZ=             14.3234   YZ=             11.4938

  Exact polarizability: 251.878  32.281 196.134  -2.611 -29.667 209.650
 Approx polarizability: 271.940  50.291 258.736 -15.587 -50.918 268.840

                      1                      2                      3
                      A                      A                      A
 Frequencies --     15.0799                41.3626                59.7009
 Red. masses --      7.1197                 4.1335                 5.5035
 Frc consts  --      0.0010                 0.0042                 0.0116
 IR Inten    --      2.5438                 0.1224                 2.9419

                      4                      5                      6
                      A                      A                      A
 Frequencies --     85.1888               135.2219               172.4252
 Red. masses --      9.7668                 7.4916                 6.2163
 Frc consts  --      0.0418                 0.0807                 0.1089
 IR Inten    --     15.9273                 3.0340                 1.9756

                      7                      8                      9
                      A                      A                      A
 Frequencies --    181.3956               250.1511               252.4535
 Red. masses --      6.0786                 5.4262                 6.6929
 Frc consts  --      0.1178                 0.2001                 0.2513
 IR Inten    --      6.0410                 8.2250                 0.8874

                     10                     11                     12
                      A                      A                      A
 Frequencies --    316.5183               411.5913               413.2677
 Red. masses --      5.2742                 2.8566                 6.4683
 Frc consts  --      0.3113                 0.2851                 0.6509
 IR Inten    --      6.8370                 0.3148                 8.5310

                     13                     14                     15
                      A                      A                      A
 Frequencies --    425.0662               436.1017               467.5188
 Red. masses --      8.3945                 3.9443                10.0981
 Frc consts  --      0.8936                 0.4420                 1.3004
 IR Inten    --     36.9780                 1.4264                 4.0010

                     16                     17                     18
                      A                      A                      A
 Frequencies --    506.8531               513.9485               599.8854
 Red. masses --      3.6842                 5.2460                 5.2088
 Frc consts  --      0.5576                 0.8164                 1.1044
 IR Inten    --      1.3448                25.9612                23.1860

                     19                     20                     21
                      A                      A                      A
 Frequencies --    628.6212               658.3787               694.8159
 Red. masses --      6.4332                 3.8912                 5.2820
 Frc consts  --      1.4978                 0.9938                 1.5024
 IR Inten    --      0.7983                 9.9047                10.2371

                     22                     23                     24
                      A                      A                      A
 Frequencies --    696.2262               704.9202               773.9611
 Red. masses --      3.3111                 2.0666                 2.4242
 Frc consts  --      0.9456                 0.6050                 0.8556
 IR Inten    --     20.4240                84.4775                36.6816

                     25                     26                     27
                      A                      A                      A
 Frequencies --    795.7199               807.9878               847.6174
 Red. masses --      2.7597                 4.8073                 3.9727
 Frc consts  --      1.0295                 1.8491                 1.6817
 IR Inten    --      4.4015                20.4454                16.5911

                     28                     29                     30
                      A                      A                      A
 Frequencies --    857.2172               862.1965               921.5029
 Red. masses --      3.0695                 1.2614                 3.3039
 Frc consts  --      1.3289                 0.5525                 1.6530
 IR Inten    --     28.4904                 0.5188               160.4835

                     31                     32                     33
                      A                      A                      A
 Frequencies --    951.0828               965.3340              1006.8479
 Red. masses --      1.7438                 1.4755                 1.3823
 Frc consts  --      0.9293                 0.8101                 0.8256
 IR Inten    --     42.7534                 4.0623                 0.3887

                     34                     35                     36
                      A                      A                      A
 Frequencies --   1013.5789              1018.3788              1024.9892
 Red. masses --      6.1559                 1.2680                 1.3218
 Frc consts  --      3.7261                 0.7748                 0.8182
 IR Inten    --      5.9910                 0.0807                 0.0994

                     37                     38                     39
                      A                      A                      A
 Frequencies --   1042.6439              1086.3068              1106.3083
 Red. masses --      2.2917                 2.9674                 1.5762
 Frc consts  --      1.4678                 2.0632                 1.1366
 IR Inten    --      7.5167                19.3591                21.6583

                     40                     41                     42
                      A                      A                      A
 Frequencies --   1127.9652              1181.4453              1195.3559
 Red. masses --      1.6762                 1.1107                 1.1707
 Frc consts  --      1.2565                 0.9134                 0.9856
 IR Inten    --     61.5987                 4.8015                57.6183

                     43                     44                     45
                      A                      A                      A
 Frequencies --   1222.3076              1266.7849              1294.4337
 Red. masses --      1.8892                 3.0247                 3.1167
 Frc consts  --      1.6629                 2.8599                 3.0769
 IR Inten    --     10.2199               474.0032                42.1289

                     46                     47                     48
                      A                      A                      A
 Frequencies --   1337.3677              1349.1571              1353.7577
 Red. masses --      2.6745                 2.4885                 1.9174
 Frc consts  --      2.8184                 2.6687                 2.0703
 IR Inten    --     14.6370               109.8377                43.1277

                     49                     50                     51
                      A                      A                      A
 Frequencies --   1392.0744              1476.1197              1517.6246
 Red. masses --      1.9350                 2.2073                 2.1515
 Frc consts  --      2.2094                 2.8337                 2.9196
 IR Inten    --      4.4815                35.6915                 6.4539

                     52                     53                     54
                      A                      A                      A
 Frequencies --   1612.5768              1629.2424              1645.1583
 Red. masses --      5.3688                 5.5648                 8.1883
 Frc consts  --      8.2256                 8.7031                13.0575
 IR Inten    --     38.7808               140.9459                21.8725

                     55                     56                     57
                      A                      A                      A
 Frequencies --   1672.0406              1687.2495              1704.0587
 Red. masses --     10.4167                11.7406                 9.8801
 Frc consts  --     17.1583                19.6924                16.9037
 IR Inten    --     18.6151               538.1777               906.8865

                     58                     59                     60
                      A                      A                      A
 Frequencies --   1718.2108              3174.0855              3181.5874
 Red. masses --      9.9154                 1.0867                 1.0930
 Frc consts  --     17.2469                 6.4507                 6.5189
 IR Inten    --    186.8406                 0.3258                 1.2262

                     61                     62                     63
                      A                      A                      A
 Frequencies --   3183.7862              3184.9889              3191.5088
 Red. masses --      1.0892                 1.0878                 1.0927
 Frc consts  --      6.5052                 6.5018                 6.5577
 IR Inten    --      8.0858                 2.2099                16.9560

                     64                     65                     66
                      A                      A                      A
 Frequencies --   3200.7298              3200.7731              3203.1363
 Red. masses --      1.0983                 1.0946                 1.0965
 Frc consts  --      6.6292                 6.6072                 6.6283
 IR Inten    --      7.6687                 8.7816                 7.7732

 - Thermochemistry -
 -------------------
 Temperature   298.150 Kelvin.  Pressure   1.00000 Atm.
 Atom     1 has atomic number  6 and mass  12.00000

 Molecular mass:   212.04734 amu.
 Principal axes and moments of inertia in atomic units:
                           1         2         3
     Eigenvalues --  1759.429335553.399266208.70124
           X            0.98317  -0.04251  -0.17767
           Y            0.11902  -0.58878   0.79948
           Z            0.13860   0.80717   0.57381
 This molecule is an asymmetric top.
 Rotational symmetry number  1.
 Warning -- assumption of classical behavior for rotation
           may cause significant error
 Rotational temperatures (Kelvin)      0.04923     0.01560     0.01395
 Rotational constants (GHZ):           1.02575     0.32498     0.29068
 Zero-point vibrational energy     458480.1 (Joules/Mol)
                                  109.57938 (Kcal/Mol)
 Warning -- explicit consideration of  18 degrees of freedom as
           vibrations may cause significant error
 Vibrational temperatures:     21.70    59.51    85.90   122.57   194.55
          (Kelvin)            248.08   260.99   359.91   363.22   455.40
                              592.19   594.60   611.58   627.45   672.66
                              729.25   739.46   863.10   904.45   947.26
                              999.69  1001.71  1014.22  1113.56  1144.86
                             1162.51  1219.53  1233.34  1240.51  1325.84
                             1368.40  1388.90  1448.63  1458.31  1465.22
                             1474.73  1500.13  1562.95  1591.73  1622.89
                             1699.84  1719.85  1758.63  1822.62  1862.40
                             1924.17  1941.14  1947.76  2002.88  2123.81
                             2183.52  2320.14  2344.12  2367.02  2405.69
                             2427.58  2451.76  2472.12  4566.80  4577.59
                             4580.76  4582.49  4591.87  4605.14  4605.20
                             4608.60

 Zero-point correction=                           0.174626 (Hartree/Particle)
 Thermal correction to Energy=                    0.187598
 Thermal correction to Enthalpy=                  0.188542
 Thermal correction to Gibbs Free Energy=         0.132690
 Sum of electronic and zero-point Energies=           -725.866516
 Sum of electronic and thermal Energies=              -725.853543
 Sum of electronic and thermal Enthalpies=            -725.852599
 Sum of electronic and thermal Free Energies=         -725.908451

                     E (Thermal)             CV                S
                      KCal/Mol        Cal/Mol-Kelvin    Cal/Mol-Kelvin
 Total                  117.720             49.028            117.550
 Electronic               0.000              0.000              0.000
 Translational            0.889              2.981             41.958
 Rotational               0.889              2.981             32.473
 Vibrational            115.942             43.067             43.119
 Vibration     1          0.593              1.986              7.195
 Vibration     2          0.594              1.981              5.193
 Vibration     3          0.597              1.974              4.467
 Vibration     4          0.601              1.959              3.768
 Vibration     5          0.613              1.918              2.870
 Vibration     6          0.626              1.876              2.409
 Vibration     7          0.630              1.865              2.314
 Vibration     8          0.663              1.763              1.730
 Vibration     9          0.664              1.759              1.713
 Vibration    10          0.703              1.642              1.328
 Vibration    11          0.776              1.445              0.921
 Vibration    12          0.777              1.441              0.915
 Vibration    13          0.787              1.416              0.875
 Vibration    14          0.797              1.392              0.839
 Vibration    15          0.825              1.322              0.745
 Vibration    16          0.862              1.235              0.641
 Vibration    17          0.869              1.219              0.624
 Vibration    18          0.958              1.032              0.450

 Optimization completed.
    -- Stationary point found.
 Normal termination of Gaussian 16 at Sun Feb 11 03:39:48 2024.
