 Q-Chem 5.4, Q-Chem, Inc., Pleasanton, CA (2021)
 Q-Chem 5.4.0 for Intel X86 EM64T Linux

User input:
--------------------------------------------------------------
$molecule
-1 2
C                  5.7353010000     -5.3557230000      1.3223510000
C                  6.6989460000     -5.1908220000      0.3394520000
C                  6.6085500000     -4.1739070000     -0.6159450000
C                  4.6260050000     -4.4566880000      1.3489400000
C                  4.5329070000     -3.4079090000      0.3638860000
C                  5.5506730000     -3.2780230000     -0.6295000000
C                  3.5756920000     -4.6030790000      2.3858740000
C                  2.4943150000     -3.6607920000      2.3444990000
C                  2.4060200000     -2.6647680000      1.4092460000
C                  3.3863070000     -2.4672260000      0.3801670000
O                  3.6076030000     -5.5032700000      3.2721220000
O                  3.2554620000     -1.5308320000     -0.4581970000
C                  5.9326770000     -6.4895860000      2.3059380000
H                  7.5462570000     -5.8710470000      0.3125350000
H                  1.5731080000     -1.9672090000      1.4062740000
C                  5.5527040000     -2.2164700000     -1.7089060000
H                  7.3871350000     -4.0816560000     -1.3687090000
H                  6.8594160000     -7.0218830000      2.0621360000
H                  5.0989190000     -7.1934850000      2.2880470000
H                  5.9847250000     -6.1308240000      3.3352590000
H                  1.7340510000     -3.7826870000      3.1109740000
H                  5.5478000000     -1.2092060000     -1.2889770000
H                  4.6609030000     -2.2716540000     -2.3354620000
H                  6.4427740000     -2.3413230000     -2.3364630000
$end
$rem
MAX_SCF_CYCLES=200
BASIS  =  6-311++G(d,p)
GUI  =  2
JOB_TYPE  =  SP
METHOD  =  B3LYP
SOLVENT_METHOD = COSMO
$end
$solvent
dielectric 37.219
opticaldielectric 1.43
$end

--------------------------------------------------------------

             Standard Nuclear Orientation (Angstroms)
    I     Atom           X                Y                Z
 ----------------------------------------------------------------
    1      C       1.4283462579     1.2220509319     0.0001200611
    2      C       0.6991112670     2.4010805285     0.0000284904
    3      C      -0.6991272522     2.4010762323    -0.0001294693
    4      C       0.7209492750    -0.0185529646     0.0000719574
    5      C      -0.7209023145    -0.0185603850     0.0001443099
    6      C      -1.4283383723     1.2220313791    -0.0000741129
    7      C       1.4680408968    -1.2998311936    -0.0001549815
    8      C       0.6845534878    -2.5019710652    -0.0004809365
    9      C      -0.6845914681    -2.5019785517    -0.0001991490
   10      C      -1.4680440913    -1.2998176858     0.0003226085
   11      O       2.7303586338    -1.3577241662    -0.0001342371
   12      O      -2.7303689583    -1.3576449885     0.0008393268
   13      C       2.9378167817     1.3384325029     0.0003255596
   14      H       1.2302109490     3.3493946293     0.0000465552
   15      H      -1.2477897686    -3.4310358465    -0.0002892625
   16      C      -2.9377999028     1.3384009636    -0.0005405189
   17      H      -1.2302404755     3.3493785025    -0.0003228062
   18      H       3.2182710849     2.3981352928     0.0005835696
   19      H       3.3837229675     0.8491789788    -0.8672831975
   20      H       3.3834844804     0.8487699370     0.8678114452
   21      H       1.2477792728    -3.4310137316    -0.0008056179
   22      H      -3.3838477070     0.8493811089     0.8671265360
   23      H      -3.3833379126     0.8484899863    -0.8679561256
   24      H      -3.2182576854     2.3981102254    -0.0011547267
 ----------------------------------------------------------------

    9    -613.9739906183      8.88e-06  Convergence criterion met
 Total energy in the final basis set =     -613.9739906183
    5    -614.0561436629      4.81e-06  Convergence criterion met
 Total energy in the final basis set =     -614.0561436629

                    Orbital Energies (a.u.)
 --------------------------------------------------------------

 Alpha MOs
 -- Occupied --
-19.0730 -19.0730 -10.2208 -10.2208 -10.1789 -10.1788 -10.1763 -10.1759
-10.1634 -10.1629 -10.1584 -10.1577 -10.1505 -10.1505  -0.9996  -0.9972
 -0.8570  -0.8021  -0.7808  -0.7357  -0.7061  -0.6811  -0.6396  -0.6117
 -0.5992  -0.5278  -0.4996  -0.4885  -0.4705  -0.4536  -0.4265  -0.4216
 -0.4184  -0.4053  -0.3927  -0.3882  -0.3869  -0.3867  -0.3766  -0.3689
 -0.3560  -0.3433  -0.3365  -0.3353  -0.2758  -0.2492  -0.2401  -0.2378
 -0.2333  -0.1504

 Beta MOs
 -- Occupied --
-19.0667 -19.0667 -10.2193 -10.2193 -10.1787 -10.1787 -10.1759 -10.1755
-10.1630 -10.1624 -10.1568 -10.1562 -10.1505 -10.1505  -0.9885  -0.9859
 -0.8552  -0.7964  -0.7797  -0.7337  -0.7058  -0.6728  -0.6370  -0.6085
 -0.5968  -0.5249  -0.4969  -0.4873  -0.4678  -0.4520  -0.4198  -0.4175
 -0.4161  -0.4023  -0.3888  -0.3864  -0.3850  -0.3760  -0.3756  -0.3546
 -0.3442  -0.3416  -0.3345  -0.3304  -0.2473  -0.2433  -0.2331  -0.2320
 -0.2277

          Ground-State Mulliken Net Atomic Charges

     Atom                 Charge (a.u.)    Spin (a.u.)
  --------------------------------------------------------
      1 C                     1.008655       0.038196
      2 C                    -0.617521       0.024157
      3 C                    -0.618239       0.024167
      4 C                     0.215062       0.029201
      5 C                     0.215248       0.029199
      6 C                     1.009110       0.038162
      7 C                    -0.821104       0.082219
      8 C                    -0.272220       0.108038
      9 C                    -0.271622       0.108056
     10 C                    -0.821367       0.082215
     11 O                    -0.491495       0.223321
     12 O                    -0.491469       0.223310
     13 C                    -0.350220       0.007435
     14 H                     0.157550      -0.002874
     15 H                     0.193408      -0.010242
     16 C                    -0.350426       0.007437
     17 H                     0.157498      -0.002875
     18 H                     0.145655      -0.000419
     19 H                     0.166135       0.000489
     20 H                     0.165835       0.000488
     21 H                     0.193915      -0.010238
     22 H                     0.166173       0.000488
     23 H                     0.165846       0.000487
     24 H                     0.145593      -0.000419
  --------------------------------------------------------
  Sum of atomic charges =    -1.000000

                    Cartesian Multipole Moments
 -----------------------------------------------------------------
    Charge (ESU x 10^10)
                -4.8032
    Dipole Moment (Debye)
         X      -0.0002      Y       6.6393      Z      -0.0028
       Tot       6.6393
    Quadrupole Moments (Debye-Ang)
        XX    -122.1496     XY      -0.0009     YY     -90.4628
        XZ       0.0017     YZ       0.0007     ZZ     -88.1303

 Total job time:  55.53s(wall), 411.38s(cpu)
        *  Thank you very much for using Q-Chem.  Have a nice day.  *
