 Q-Chem 5.4, Q-Chem, Inc., Pleasanton, CA (2021)
 Q-Chem 5.4.0 for Intel X86 EM64T Linux

User input:
--------------------------------------------------------------
$molecule
0 1
Cl                 3.0522620000      0.3947360000     -0.0148870000
C                  1.3493170000      0.1025690000     -0.0097610000
C                  0.8743190000     -1.1668860000     -0.0606680000
Cl                 1.8962320000     -2.5540610000     -0.1325930000
C                 -0.5830750000     -1.4306850000     -0.0568520000
O                 -1.0581500000     -2.5355160000     -0.1004830000
C                 -1.5335880000     -0.1950780000      0.0076700000
O                 -2.7242760000     -0.3696640000      0.0126090000
C                 -0.9036300000      1.1443120000      0.0599630000
C                  0.4461990000      1.2764850000      0.0514880000
Cl                 1.1664680000      2.8457330000      0.1129480000
Cl                -1.9820790000      2.4880550000      0.1305650000
$end

$rem
BASIS  =  6-311++G(d,p)
GUI  =  2
JOB_TYPE  =  SP
METHOD  =  B3LYP
SCF_CONVERGENCE  = 8
SOLVENT_METHOD = sm12
$end

$smx
solvent dimethylformamide
charges CM5
$end

--------------------------------------------------------------

             Standard Nuclear Orientation (Angstroms)
    I     Atom           X                Y                Z
 ----------------------------------------------------------------
    1      Cl      3.0522620000     0.3947360000    -0.0148870000
    2      C       1.3493170000     0.1025690000    -0.0097610000
    3      C       0.8743190000    -1.1668860000    -0.0606680000
    4      Cl      1.8962320000    -2.5540610000    -0.1325930000
    5      C      -0.5830750000    -1.4306850000    -0.0568520000
    6      O      -1.0581500000    -2.5355160000    -0.1004830000
    7      C      -1.5335880000    -0.1950780000     0.0076700000
    8      O      -2.7242760000    -0.3696640000     0.0126090000
    9      C      -0.9036300000     1.1443120000     0.0599630000
   10      C       0.4461990000     1.2764850000     0.0514880000
   11      Cl      1.1664680000     2.8457330000     0.1129480000
   12      Cl     -1.9820790000     2.4880550000     0.1305650000
 ----------------------------------------------------------------

   14   -2220.0144813748      6.65e-09  Convergence criterion met
 Total energy in the final basis set =    -2220.0283087097

                    Orbital Energies (a.u.)
 --------------------------------------------------------------

 Alpha MOs
 -- Occupied --
********-101.6022-101.5916-101.5915 -19.1719 -19.1719 -10.3174 -10.3172
-10.3154 -10.3151 -10.2907 -10.2907  -9.5167  -9.5166  -9.5060  -9.5059
 -7.2817  -7.2816  -7.2718  -7.2718  -7.2711  -7.2710  -7.2705  -7.2703
 -7.2611  -7.2610  -7.2597  -7.2596  -1.1195  -1.0930  -0.9770  -0.9355
 -0.9044  -0.8871  -0.8441  -0.7657  -0.7352  -0.6401  -0.6393  -0.5863
 -0.5375  -0.5092  -0.5022  -0.4928  -0.4862  -0.4735  -0.4628  -0.4486
 -0.4450  -0.3994  -0.3788  -0.3778  -0.3692  -0.3656  -0.3509  -0.3494
 -0.3268  -0.3253  -0.2972  -0.2753

          Ground-State Mulliken Net Atomic Charges

     Atom                 Charge (a.u.)
  ----------------------------------------
      1 Cl                    0.726932
      2 C                    -0.231922
      3 C                     0.257886
      4 Cl                    0.364715
      5 C                    -0.893533
      6 O                    -0.223494
      7 C                    -0.895287
      8 O                    -0.222836
      9 C                     0.261536
     10 C                    -0.237040
     11 Cl                    0.727290
     12 Cl                    0.365755
  ----------------------------------------
  Sum of atomic charges =     0.000000

                    Cartesian Multipole Moments
 -----------------------------------------------------------------
    Charge (ESU x 10^10)
                -0.0000
    Dipole Moment (Debye)
         X       3.6406      Y       2.7991      Z       0.0848
       Tot       4.5930
    Quadrupole Moments (Debye-Ang)
        XX    -100.5485     XY      -3.6810     YY     -98.5695
        XZ      -0.0733     YZ      -0.2385     ZZ     -92.3051

 Total job time:  105.23s(wall), 690.24s(cpu)
        *  Thank you very much for using Q-Chem.  Have a nice day.  *
