 Gaussian 16, Revision A.03,
 Gaussian 16:  ES64L-G16RevA.03 25-Dec-2016

 --------------------------------------
 #P UB3LYP/6-311++G(d,p) nosym opt freq
 --------------------------------------

 --------
 Oxidized
 --------
 Symbolic Z-matrix:
 Charge =  0 Multiplicity = 1

 SCF Done:  E(UB3LYP) =  -2220.01507927     A.U. after   16 cycles
 Optimization completed.
    -- Stationary point found.
 Normal termination of Gaussian 16 at Tue Jan  9 20:28:15 2024.

 ----------------------------------------------------------------------
 #P Geom=AllCheck Guess=TCheck SCRF=Check GenChk UB3LYP/6-311++G(d,p) F
 req
 ----------------------------------------------------------------------

 Structure from the checkpoint file:  "317.chk"
 --------
 Oxidized
 --------
 Charge =  0 Multiplicity = 1

                          Input orientation:
 ---------------------------------------------------------------------
 Center     Atomic      Atomic             Coordinates (Angstroms)
 Number     Number       Type             X           Y           Z
 ---------------------------------------------------------------------
      1         17           0        3.052262    0.394736   -0.014887
      2          6           0        1.349317    0.102569   -0.009761
      3          6           0        0.874319   -1.166886   -0.060668
      4         17           0        1.896232   -2.554061   -0.132593
      5          6           0       -0.583075   -1.430685   -0.056852
      6          8           0       -1.058150   -2.535516   -0.100483
      7          6           0       -1.533588   -0.195078    0.007670
      8          8           0       -2.724276   -0.369664    0.012609
      9          6           0       -0.903630    1.144312    0.059963
     10          6           0        0.446199    1.276485    0.051488
     11         17           0        1.166468    2.845733    0.112948
     12         17           0       -1.982079    2.488055    0.130565
 ---------------------------------------------------------------------

 SCF Done:  E(UB3LYP) =  -2220.01507927     A.U. after    2 cycles

 Alpha  occ. eigenvalues -- -101.60753-101.60752-101.59505-101.59505 -19.17215
 Alpha  occ. eigenvalues --  -19.17213 -10.31893 -10.31864 -10.31725 -10.31707
 Alpha  occ. eigenvalues --  -10.29424 -10.29422  -9.52216  -9.52215  -9.50942
 Alpha  occ. eigenvalues --   -9.50942  -7.28717  -7.28717  -7.27719  -7.27719
 Alpha  occ. eigenvalues --   -7.27587  -7.27587  -7.27449  -7.27449  -7.26440
 Alpha  occ. eigenvalues --   -7.26440  -7.26322  -7.26321  -1.11927  -1.09262
 Alpha  occ. eigenvalues --   -0.98077  -0.93958  -0.90856  -0.89175  -0.84771
 Alpha  occ. eigenvalues --   -0.76923  -0.73734  -0.64286  -0.64194  -0.58828
 Alpha  occ. eigenvalues --   -0.54113  -0.51091  -0.50378  -0.49642  -0.48623
 Alpha  occ. eigenvalues --   -0.47529  -0.46604  -0.45126  -0.44643  -0.40159
 Alpha  occ. eigenvalues --   -0.38349  -0.38252  -0.37344  -0.36997  -0.35265
 Alpha  occ. eigenvalues --   -0.35105  -0.32996  -0.32993  -0.29634  -0.27893
 Alpha virt. eigenvalues --   -0.17024  -0.06679  -0.05142  -0.05053  -0.01700
 Alpha virt. eigenvalues --   -0.01051   0.00585   0.01034   0.02357   0.03128
 Alpha virt. eigenvalues --    0.03406   0.04906   0.05775   0.06227   0.06509

  Beta  occ. eigenvalues -- -101.60753-101.60752-101.59505-101.59505 -19.17215
  Beta  occ. eigenvalues --  -19.17213 -10.31893 -10.31864 -10.31725 -10.31707
  Beta  occ. eigenvalues --  -10.29424 -10.29422  -9.52216  -9.52215  -9.50942
  Beta  occ. eigenvalues --   -9.50942  -7.28717  -7.28717  -7.27719  -7.27719
  Beta  occ. eigenvalues --   -7.27587  -7.27587  -7.27449  -7.27449  -7.26440
  Beta  occ. eigenvalues --   -7.26440  -7.26322  -7.26321  -1.11927  -1.09262
  Beta  occ. eigenvalues --   -0.98077  -0.93958  -0.90856  -0.89175  -0.84771
  Beta  occ. eigenvalues --   -0.76923  -0.73734  -0.64286  -0.64194  -0.58828
  Beta  occ. eigenvalues --   -0.54113  -0.51091  -0.50378  -0.49642  -0.48623
  Beta  occ. eigenvalues --   -0.47529  -0.46604  -0.45126  -0.44643  -0.40159
  Beta  occ. eigenvalues --   -0.38349  -0.38252  -0.37344  -0.36997  -0.35265
  Beta  occ. eigenvalues --   -0.35105  -0.32996  -0.32993  -0.29634  -0.27893
  Beta virt. eigenvalues --   -0.17024  -0.06679  -0.05142  -0.05053  -0.01700
  Beta virt. eigenvalues --   -0.01051   0.00585   0.01034   0.02357   0.03128
  Beta virt. eigenvalues --    0.03406   0.04906   0.05775   0.06227   0.06509

 Mulliken charges and spin densities:
               1          2
     1  Cl   0.680333  -0.000000
     2  C   -0.658805   0.000000
     3  C    0.286690  -0.000000
     4  Cl   0.411509   0.000000
     5  C   -0.576586   0.000000
     6  O   -0.142703  -0.000000
     7  C   -0.576229   0.000000
     8  O   -0.142742  -0.000000
     9  C    0.286787  -0.000000
    10  C   -0.660297   0.000000
    11  Cl   0.680559   0.000000
    12  Cl   0.411485   0.000000
 Sum of Mulliken charges =  -0.00000   0.00000

 Dipole moment (field-independent basis, Debye):
    X=              3.1031    Y=              2.3834    Z=              0.0721  Tot=              3.9135
 Quadrupole moment (field-independent basis, Debye-Ang):
   XX=           -100.4066   YY=            -98.3857   ZZ=            -92.3632
   XY=             -3.7699   XZ=             -0.0806   YZ=             -0.2258

  Exact polarizability: 163.340  -2.957 164.766  -1.194   4.520  63.058
 Approx polarizability: 277.691  15.611 269.132  -1.214   7.365  98.520

                      1                      2                      3
                      A                      A                      A
 Frequencies --     38.1619                63.9682                71.6608
 Red. masses --     19.8112                25.3670                24.5458
 Frc consts  --      0.0170                 0.0612                 0.0743
 IR Inten    --      0.0000                 0.6777                 0.0000

                      4                      5                      6
                      A                      A                      A
 Frequencies --    178.5109               205.5972               212.7009
 Red. masses --     13.9268                27.4583                31.8904
 Frc consts  --      0.2615                 0.6838                 0.8501
 IR Inten    --      3.9403                 0.1672                 0.0730

                      7                      8                      9
                      A                      A                      A
 Frequencies --    239.5213               293.8316               294.6509
 Red. masses --     34.3389                19.1927                12.6897
 Frc consts  --      1.1607                 0.9763                 0.6491
 IR Inten    --      0.0216                 0.3240                 0.0000

                     10                     11                     12
                      A                      A                      A
 Frequencies --    305.7664               317.4494               379.3988
 Red. masses --     25.3766                23.6258                16.2530
 Frc consts  --      1.3979                 1.4028                 1.3784
 IR Inten    --      0.7814                 6.5852                 3.1056

                     13                     14                     15
                      A                      A                      A
 Frequencies --    415.1911               425.1314               492.7382
 Red. masses --     19.7607                12.5440                17.5582
 Frc consts  --      2.0070                 1.3358                 2.5117
 IR Inten    --      9.5892                 7.0650                 3.4083

                     16                     17                     18
                      A                      A                      A
 Frequencies --    584.5496               597.5663               686.9606
 Red. masses --     12.1916                12.1029                13.5009
 Frc consts  --      2.4544                 2.5463                 3.7539
 IR Inten    --      6.3827                 0.0000                23.5076

                     19                     20                     21
                      A                      A                      A
 Frequencies --    776.3234               806.4263               807.8766
 Red. masses --     13.5991                13.6963                12.1632
 Frc consts  --      4.8289                 5.2479                 4.6772
 IR Inten    --    135.4190                43.1501                 0.0000

                     22                     23                     24
                      A                      A                      A
 Frequencies --    896.9109               989.6872              1139.0133
 Red. masses --     12.9985                12.7030                12.2209
 Frc consts  --      6.1609                 7.3308                 9.3414
 IR Inten    --      0.9750                 1.0277                20.2470

                     25                     26                     27
                      A                      A                      A
 Frequencies --   1169.8426              1241.7615              1545.3814
 Red. masses --     12.1595                12.0223                12.0175
 Frc consts  --      9.8044                10.9223                16.9097
 IR Inten    --     40.9204               341.3721                56.6619

                     28                     29                     30
                      A                      A                      A
 Frequencies --   1593.1631              1761.9506              1779.3053
 Red. masses --     12.0168                13.3373                13.2224
 Frc consts  --     17.9705                24.3952                24.6639
 IR Inten    --     55.4985               303.9436                61.4833

 - Thermochemistry -
 -------------------
 Temperature   298.150 Kelvin.  Pressure   1.00000 Atm.
 Atom     1 has atomic number 17 and mass  34.96885

 Molecular mass:   243.86524 amu.
 Principal axes and moments of inertia in atomic units:
                           1         2         3
     Eigenvalues --  2532.270433624.336646156.60707
           X           -0.60910   0.79303   0.01058
           Y            0.79202   0.60891  -0.04400
           Z            0.04133   0.01842   0.99898
 This molecule is an asymmetric top.
 Rotational symmetry number  1.
 Warning -- assumption of classical behavior for rotation
           may cause significant error
 Rotational temperatures (Kelvin)      0.03420     0.02390     0.01407
 Rotational constants (GHZ):           0.71270     0.49795     0.29314
 Zero-point vibrational energy     121486.7 (Joules/Mol)
                                   29.03603 (Kcal/Mol)
 Warning -- explicit consideration of  17 degrees of freedom as
           vibrations may cause significant error
 Vibrational temperatures:     54.91    92.04   103.10   256.84   295.81
          (Kelvin)            306.03   344.62   422.76   423.94   439.93
                              456.74   545.87   597.37   611.67   708.94
                              841.04   859.76   988.38  1116.96  1160.27
                             1162.35  1290.45  1423.94  1638.79  1683.14
                             1786.62  2223.46  2292.21  2535.05  2560.02

 Zero-point correction=                           0.046272 (Hartree/Particle)
 Thermal correction to Energy=                    0.057401
 Thermal correction to Enthalpy=                  0.058345
 Thermal correction to Gibbs Free Energy=         0.006931
 Sum of electronic and zero-point Energies=          -2219.968807
 Sum of electronic and thermal Energies=             -2219.957678
 Sum of electronic and thermal Enthalpies=           -2219.956734
 Sum of electronic and thermal Free Energies=        -2220.008149

                     E (Thermal)             CV                S
                      KCal/Mol        Cal/Mol-Kelvin    Cal/Mol-Kelvin
 Total                   36.020             38.134            108.211
 Electronic               0.000              0.000              0.000
 Translational            0.889              2.981             42.375
 Rotational               0.889              2.981             32.402
 Vibrational             34.242             32.173             33.434
 Vibration     1          0.594              1.982              5.352
 Vibration     2          0.597              1.971              4.331
 Vibration     3          0.598              1.968              4.107
 Vibration     4          0.629              1.869              2.344
 Vibration     5          0.640              1.832              2.082
 Vibration     6          0.644              1.822              2.020
 Vibration     7          0.657              1.780              1.806
 Vibration     8          0.689              1.685              1.452
 Vibration     9          0.689              1.684              1.447
 Vibration    10          0.696              1.663              1.385
 Vibration    11          0.704              1.640              1.323
 Vibration    12          0.749              1.514              1.042
 Vibration    13          0.779              1.437              0.908
 Vibration    14          0.787              1.416              0.875
 Vibration    15          0.848              1.266              0.677
 Vibration    16          0.941              1.065              0.477
 Vibration    17          0.955              1.037              0.454

 Optimization completed.
    -- Stationary point found.
 Normal termination of Gaussian 16 at Tue Jan  9 20:32:04 2024.
