 Gaussian 16, Revision A.03,
 Gaussian 16:  ES64L-G16RevA.03 25-Dec-2016

 ----------------------------------------------------------------
 #P UB3LYP/6-311++G(d,p) SCRF=(PCM,Solvent=n,n-DiMethylFormamide)
 ----------------------------------------------------------------

 -------
 Reduced
 -------
 Symbolic Z-matrix:
 Charge = -2 Multiplicity = 1

                         Standard orientation:
 ---------------------------------------------------------------------
 Center     Atomic      Atomic             Coordinates (Angstroms)
 Number     Number       Type             X           Y           Z
 ---------------------------------------------------------------------
      1          8           0       -1.281386   -2.293522   -0.255141
      2          6           0       -0.697742   -1.152678   -0.177561
      3          6           0        0.727617   -1.023283   -0.259835
      4          6           0        1.430389    0.178552   -0.258620
      5          7           0        2.846675    0.240064   -0.403150
      6          6           0        3.575357   -0.833711   -1.065350
      7          6           0        4.517916   -1.586565   -0.114004
      8          6           0        5.583995   -0.626791    0.467249
      9          6           0        5.069337    0.830415    0.483218
     10          6           0        3.558421    0.893016    0.704765
     11          6           0        0.710532    1.439841   -0.115312
     12          8           0        1.288770    2.585067   -0.113375
     13          6           0       -0.710330    1.307063    0.036374
     14          6           0       -1.414676    0.106972   -0.006831
     15          7           0       -2.836879    0.067274    0.052149
     16          6           0       -3.602690    1.277602   -0.158509
     17          6           0       -4.976418    0.931830   -0.788906
     18          6           0       -5.417982   -0.500570   -0.433192
     19          6           0       -4.958269   -0.839516    0.985908
     20          6           0       -3.415105   -0.788926    1.091563
     21          1           0        1.252492   -1.968532   -0.366216
     22          1           0        4.183486   -0.421789   -1.894031
     23          1           0        2.863541   -1.517625   -1.525306
     24          1           0        4.998747   -2.425411   -0.635372
     25          1           0        3.917814   -2.015825    0.695097
     26          1           0        5.852138   -0.941576    1.483490
     27          1           0        6.509745   -0.688200   -0.118556
     28          1           0        5.584969    1.409152    1.259777
     29          1           0        5.299718    1.317922   -0.471469
     30          1           0        3.192189    1.920865    0.764674
     31          1           0        3.317579    0.401539    1.669051
     32          1           0       -1.231722    2.247176    0.186095
     33          1           0       -3.754865    1.841411    0.787840
     34          1           0       -3.044973    1.937294   -0.822482
     35          1           0       -5.728389    1.653217   -0.437460
     36          1           0       -4.922852    1.038870   -1.878583
     37          1           0       -4.960455   -1.207638   -1.130627
     38          1           0       -6.507588   -0.601011   -0.533516
     39          1           0       -5.315052   -1.830655    1.288688
     40          1           0       -5.415554   -0.123672    1.682304
     41          1           0       -3.130939   -0.413539    2.096996
     42          1           0       -2.969792   -1.775204    0.959004
 ---------------------------------------------------------------------

 SCF Done:  E(UB3LYP) =  -883.327197749     A.U. after   18 cycles

 The electronic state is 1-A.
 Alpha  occ. eigenvalues --  -19.00121 -19.00050 -14.28032 -14.27428 -10.17344
 Alpha  occ. eigenvalues --  -10.17267 -10.16307 -10.16261 -10.15428 -10.15291
 Alpha  occ. eigenvalues --  -10.15213 -10.15191 -10.15178 -10.15173 -10.15143
 Alpha  occ. eigenvalues --  -10.15108 -10.14131 -10.13894 -10.10365 -10.10319
 Alpha  occ. eigenvalues --   -0.92806  -0.92299  -0.89891  -0.89334  -0.78435
 Alpha  occ. eigenvalues --   -0.77849  -0.74337  -0.73233  -0.73088  -0.68322
 Alpha  occ. eigenvalues --   -0.63990  -0.63295  -0.61519  -0.60894  -0.59352
 Alpha  occ. eigenvalues --   -0.55075  -0.52776  -0.51517  -0.50580  -0.47933
 Alpha  occ. eigenvalues --   -0.47504  -0.47098  -0.45284  -0.44206  -0.42306
 Alpha  occ. eigenvalues --   -0.41432  -0.40512  -0.40337  -0.39115  -0.38704
 Alpha  occ. eigenvalues --   -0.38591  -0.37539  -0.37430  -0.36531  -0.35433
 Alpha  occ. eigenvalues --   -0.34904  -0.34626  -0.34283  -0.33891  -0.33479
 Alpha  occ. eigenvalues --   -0.32066  -0.31992  -0.30772  -0.30672  -0.30255
 Alpha  occ. eigenvalues --   -0.29989  -0.29855  -0.29352  -0.23628  -0.22136
 Alpha  occ. eigenvalues --   -0.18332  -0.18201  -0.18021  -0.15373  -0.09324
 Alpha virt. eigenvalues --   -0.00185   0.00172   0.01253   0.01285   0.01741
 Alpha virt. eigenvalues --    0.01872   0.02039   0.03075   0.03514   0.03793
 Alpha virt. eigenvalues --    0.03866   0.04055   0.04528   0.04943   0.05053

  Beta  occ. eigenvalues --  -19.00121 -19.00050 -14.28032 -14.27428 -10.17344
  Beta  occ. eigenvalues --  -10.17267 -10.16307 -10.16261 -10.15428 -10.15291
  Beta  occ. eigenvalues --  -10.15213 -10.15191 -10.15178 -10.15173 -10.15143
  Beta  occ. eigenvalues --  -10.15108 -10.14131 -10.13894 -10.10365 -10.10319
  Beta  occ. eigenvalues --   -0.92806  -0.92299  -0.89891  -0.89334  -0.78435
  Beta  occ. eigenvalues --   -0.77849  -0.74337  -0.73233  -0.73088  -0.68322
  Beta  occ. eigenvalues --   -0.63990  -0.63295  -0.61519  -0.60894  -0.59352
  Beta  occ. eigenvalues --   -0.55075  -0.52776  -0.51517  -0.50580  -0.47933
  Beta  occ. eigenvalues --   -0.47504  -0.47098  -0.45284  -0.44206  -0.42306
  Beta  occ. eigenvalues --   -0.41432  -0.40512  -0.40337  -0.39115  -0.38704
  Beta  occ. eigenvalues --   -0.38591  -0.37539  -0.37430  -0.36531  -0.35433
  Beta  occ. eigenvalues --   -0.34904  -0.34626  -0.34283  -0.33891  -0.33479
  Beta  occ. eigenvalues --   -0.32066  -0.31992  -0.30772  -0.30672  -0.30255
  Beta  occ. eigenvalues --   -0.29989  -0.29855  -0.29352  -0.23628  -0.22136
  Beta  occ. eigenvalues --   -0.18332  -0.18201  -0.18021  -0.15373  -0.09324
  Beta virt. eigenvalues --   -0.00185   0.00172   0.01253   0.01285   0.01741
  Beta virt. eigenvalues --    0.01872   0.02039   0.03075   0.03514   0.03793
  Beta virt. eigenvalues --    0.03866   0.04055   0.04528   0.04943   0.05053

 Mulliken charges and spin densities:
               1          2
     1  O   -0.714300  -0.000000
     2  C   -0.296537   0.000000
     3  C   -0.120288  -0.000000
     4  C   -0.439131   0.000000
     5  N    0.264303   0.000000
     6  C   -0.223653  -0.000000
     7  C   -0.132342  -0.000000
     8  C   -0.506068  -0.000000
     9  C   -0.294344   0.000000
    10  C   -0.226510  -0.000000
    11  C   -0.329745   0.000000
    12  O   -0.725008   0.000000
    13  C    0.093328  -0.000000
    14  C   -0.402759  -0.000000
    15  N    0.324616   0.000000
    16  C   -0.167061  -0.000000
    17  C   -0.401460   0.000000
    18  C   -0.256605  -0.000000
    19  C   -0.377914  -0.000000
    20  C   -0.201927   0.000000
    21  H    0.125232  -0.000000
    22  H    0.144284   0.000000
    23  H    0.152174   0.000000
    24  H    0.150293   0.000000
    25  H    0.140084   0.000000
    26  H    0.149987  -0.000000
    27  H    0.131278   0.000000
    28  H    0.161218   0.000000
    29  H    0.153262  -0.000000
    30  H    0.202899   0.000000
    31  H    0.086962  -0.000000
    32  H    0.142937   0.000000
    33  H    0.112367   0.000000
    34  H    0.141809  -0.000000
    35  H    0.122745   0.000000
    36  H    0.144811   0.000000
    37  H    0.126406  -0.000000
    38  H    0.168003   0.000000
    39  H    0.150812   0.000000
    40  H    0.138990   0.000000
    41  H    0.083046  -0.000000
    42  H    0.203804   0.000000
 Sum of Mulliken charges =  -2.00000   0.00000

 Dipole moment (field-independent basis, Debye):
    X=              0.1299    Y=             -1.7755    Z=              2.1219  Tot=              2.7698
 Quadrupole moment (field-independent basis, Debye-Ang):
   XX=           -150.8994   YY=           -180.2107   ZZ=           -135.3182
   XY=            -25.0946   XZ=             -0.3240   YZ=             -0.7905

 Normal termination of Gaussian 16 at Wed Jan 24 23:00:07 2024.
