 Q-Chem 5.4, Q-Chem, Inc., Pleasanton, CA (2021)
 Q-Chem 5.4.0 for Intel X86 EM64T Linux

User input:
--------------------------------------------------------------
$molecule
-1 2
C                 -3.5871940000      0.2012120000      0.8473840000
C                 -3.6160990000     -0.1759780000     -0.5063370000
C                 -2.4281910000     -0.3666060000     -1.2000850000
C                 -1.1685500000     -0.1900360000     -0.5761290000
N                 -0.0295620000     -0.3860500000     -1.2886960000
C                  1.1391700000     -0.1979310000     -0.6226150000
C                  2.3704590000     -0.3834040000     -1.2981420000
C                  3.5872560000     -0.2012950000     -0.6539060000
C                  3.6159830000      0.1759550000      0.7000250000
C                  2.4283400000      0.3665890000      1.3937850000
C                  1.1685020000      0.1900570000      0.7699710000
N                  0.0296740000      0.3861340000      1.4827610000
C                 -1.1393010000      0.1979840000      0.8165730000
C                 -2.3704240000      0.3834120000      1.4919430000
H                 -4.5164840000      0.3502990000      1.3897780000
H                 -4.5673680000     -0.3186390000     -1.0108280000
H                 -2.4270920000     -0.6579960000     -2.2458370000
H                  2.3235960000     -0.6745950000     -2.3428280000
H                  4.5166710000     -0.3502750000     -1.1959220000
H                  4.5674470000      0.3185750000      1.2043700000
H                  2.4271700000      0.6579900000      2.4395740000
H                 -2.3240050000      0.6745980000      2.5366130000
$end
$rem
MAX_SCF_CYCLES=200
BASIS  =  6-311++G(d,p)
GUI  =  2
JOB_TYPE  =  SP
METHOD  =  B3LYP
SOLVENT_METHOD = COSMO
$end
$solvent
dielectric 37.219
opticaldielectric 1.43
$end

--------------------------------------------------------------

             Standard Nuclear Orientation (Angstroms)
    I     Atom           X                Y                Z
 ----------------------------------------------------------------
    1      C       3.6024665828    -0.7028127264    -0.0000063052
    2      C       3.6023846355     0.7027719683     0.0000072946
    3      C       2.3998893735     1.3975783316    -0.0000198842
    4      C       1.1538863555     0.7232861229    -0.0000101151
    5      N      -0.0001027990     1.4386712731    -0.0000023783
    6      C      -1.1543151922     0.7225840605    -0.0000054741
    7      C      -2.3997917795     1.3975637886    -0.0000172177
    8      C      -3.6025262372     0.7031370650     0.0000085053
    9      C      -3.6022618272    -0.7026623111    -0.0000069147
   10      C      -2.4000312420    -1.3974873066     0.0000182641
   11      C      -1.1538282319    -0.7233379928     0.0000095794
   12      N       0.0000057340    -1.4389581201     0.0000013350
   13      C       1.1544587802    -0.7227545257     0.0000050663
   14      C       2.3997660377    -1.3975743946     0.0000183778
   15      H       4.5431614137    -1.2460358144    -0.0000324831
   16      H       4.5426416321     1.2465484110     0.0000428357
   17      H       2.3764029023     2.4829146695     0.0000497566
   18      H      -2.3753040798     2.4828091648     0.0000454917
   19      H      -4.5433379430     1.2459648097     0.0000333108
   20      H      -4.5427169086    -1.2462911600    -0.0000417279
   21      H      -2.3764729915    -2.4828607668    -0.0000521939
   22      H       2.3757218981    -2.4827938629    -0.0000447464
 ----------------------------------------------------------------

    9    -571.7945191803      3.57e-06  Convergence criterion met
 Total energy in the final basis set =     -571.7945191803
    4    -571.8751120695      5.46e-06  Convergence criterion met
 Total energy in the final basis set =     -571.8751120695

                    Orbital Energies (a.u.)
 --------------------------------------------------------------

 Alpha MOs
 -- Occupied --
-14.2844 -14.2844 -10.1937 -10.1937 -10.1933 -10.1933 -10.1619 -10.1619
-10.1614 -10.1614 -10.1568 -10.1568 -10.1567 -10.1567  -0.9489  -0.8818
 -0.8439  -0.8148  -0.7443  -0.7368  -0.7151  -0.6664  -0.6190  -0.5922
 -0.5796  -0.5440  -0.5293  -0.4785  -0.4680  -0.4583  -0.4455  -0.4219
 -0.4192  -0.4119  -0.4086  -0.3716  -0.3613  -0.3589  -0.3401  -0.3380
 -0.3366  -0.3144  -0.2911  -0.2538  -0.2446  -0.2343  -0.2141  -0.1292

 Beta MOs
 -- Occupied --
-14.2785 -14.2785 -10.1939 -10.1939 -10.1935 -10.1935 -10.1612 -10.1612
-10.1607 -10.1607 -10.1556 -10.1556 -10.1556 -10.1556  -0.9421  -0.8717
 -0.8412  -0.8111  -0.7416  -0.7344  -0.7116  -0.6604  -0.6179  -0.5890
 -0.5772  -0.5412  -0.5274  -0.4767  -0.4657  -0.4571  -0.4444  -0.4180
 -0.4108  -0.4101  -0.4070  -0.3706  -0.3571  -0.3540  -0.3392  -0.3363
 -0.3151  -0.3023  -0.2839  -0.2460  -0.2362  -0.2287  -0.1965

          Ground-State Mulliken Net Atomic Charges

     Atom                 Charge (a.u.)    Spin (a.u.)
  --------------------------------------------------------
      1 C                    -0.345354       0.059157
      2 C                    -0.343143       0.058449
      3 C                    -0.246146       0.046838
      4 C                     0.071596       0.017467
      5 N                    -0.214031       0.276377
      6 C                     0.072917       0.018344
      7 C                    -0.245454       0.046090
      8 C                    -0.345172       0.059179
      9 C                    -0.343123       0.058573
     10 C                    -0.246235       0.046616
     11 C                     0.071651       0.017584
     12 N                    -0.214234       0.276443
     13 C                     0.073412       0.018253
     14 C                    -0.245463       0.046118
     15 H                     0.190300      -0.003971
     16 H                     0.190364      -0.003911
     17 H                     0.184359      -0.007450
     18 H                     0.184336      -0.007413
     19 H                     0.190304      -0.003973
     20 H                     0.190366      -0.003917
     21 H                     0.184344      -0.007440
     22 H                     0.184407      -0.007413
  --------------------------------------------------------
  Sum of atomic charges =    -1.000000

                    Cartesian Multipole Moments
 -----------------------------------------------------------------
    Charge (ESU x 10^10)
                -4.8032
    Dipole Moment (Debye)
         X      -0.0002      Y       0.0013      Z      -0.0012
       Tot       0.0018
    Quadrupole Moments (Debye-Ang)
        XX     -89.6709     XY      -0.0053     YY     -94.8726
        XZ       0.0007     YZ       0.0006     ZZ     -91.1225

 Total job time:  43.20s(wall), 324.92s(cpu)
        *  Thank you very much for using Q-Chem.  Have a nice day.  *
