 Q-Chem 5.4, Q-Chem, Inc., Pleasanton, CA (2021)
 Q-Chem 5.4.0 for Intel X86 EM64T Linux

User input:
--------------------------------------------------------------
$molecule
-4 1
C                  5.5864650000     -4.7969380000      0.7983030000
C                  6.6360030000     -4.6621270000     -0.0873510000
C                  6.5969000000     -3.6266750000     -1.0392760000
C                  4.4788530000     -3.9277770000      0.7620770000
C                  4.4031090000     -2.9044300000     -0.2395030000
C                  5.5184560000     -2.7572800000     -1.1358940000
C                  3.4353900000     -4.1722820000      1.8031930000
C                  2.2744820000     -3.2691580000      1.8339260000
C                  2.1619820000     -2.2973070000      0.7856280000
C                  3.1794010000     -2.0892530000     -0.2886690000
C                  1.2380380000     -3.3058170000      2.8307040000
C                  0.1513520000     -2.4479920000      2.7238360000
C                  0.0241610000     -1.5359950000      1.6599080000
C                  1.0255630000     -1.4685530000      0.7129270000
O                  3.5672360000     -5.1219220000      2.5927700000
O                  2.9634520000     -1.2573270000     -1.1852720000
S                  1.1451480000     -4.3890090000      4.3675710000
O                 -0.0698530000     -3.8669810000      5.0882280000
O                  2.3805400000     -4.1452490000      5.1584100000
O                  0.9317960000     -5.7909090000      3.9159510000
S                  5.7607930000     -1.4651060000     -2.4833370000
O                  7.1642690000     -1.7232460000     -2.9647250000
O                  4.7714170000     -1.7476480000     -3.5585390000
O                  5.6542270000     -0.1280730000     -1.8414380000
H                  5.5777570000     -5.5660140000      1.5605980000
H                  7.4891230000     -5.3451190000     -0.0537580000
H                  7.4210960000     -3.4828660000     -1.7245240000
H                 -0.6057160000     -2.4977220000      3.4945180000
H                 -0.8563560000     -0.8914360000      1.5915180000
H                  0.9832140000     -0.7708590000     -0.1141600000
$end
$rem
MAX_SCF_CYCLES=200
BASIS  =  6-311++G(d,p)
GUI  =  2
JOB_TYPE  =  SP
METHOD  =  B3LYP
SOLVENT_METHOD = COSMO
$end
$solvent
dielectric 37.219
opticaldielectric 1.43
$end

--------------------------------------------------------------

             Standard Nuclear Orientation (Angstroms)
    I     Atom           X                Y                Z
 ----------------------------------------------------------------
    1      C      -0.8973430820    -2.6769168722     0.1693428942
    2      C      -2.2313809073    -3.0257970148     0.1172587929
    3      C      -3.1994525947    -2.0090363758     0.0229926506
    4      C      -0.4890494054    -1.3293561512     0.1387833377
    5      C      -1.4696667607    -0.2839135620     0.0990576839
    6      C      -2.8544255764    -0.6640050880     0.0145453656
    7      C       0.9877702441    -1.1041908842     0.1674988078
    8      C       1.4698152841     0.2840934832     0.0997938925
    9      C       0.4892257079     1.3295639490     0.1387156260
   10      C      -0.9876432877     1.1044659761     0.1657490316
   11      C       2.8546034517     0.6640602424     0.0154527897
   12      C       3.1998137505     2.0090206752     0.0245217644
   13      C       2.2317888621     3.0258294766     0.1187902350
   14      C       0.8976593672     2.6770749909     0.1697431823
   15      O       1.7549636296    -2.0766738090     0.2587271290
   16      O      -1.7549008161     2.0771298093     0.2544774502
   17      S       4.3572878393    -0.4584829883    -0.1449528314
   18      O       5.4938813579     0.5085294776    -0.3477562798
   19      O       4.1538888483    -1.3036670900    -1.3513239765
   20      O       4.5085635510    -1.1918578321     1.1411577034
   21      S      -4.3575192285     0.4582859145    -0.1442497382
   22      O      -5.4944294616    -0.5089120493    -0.3444465650
   23      O      -4.5066184934     1.1924957894     1.1416194078
   24      O      -4.1563273625     1.3026537045    -1.3515660803
   25      H      -0.1138630816    -3.4224385215     0.2241511910
   26      H      -2.5380187903    -4.0748686398     0.1462800004
   27      H      -4.2491991719    -2.2588677787    -0.0488494683
   28      H       4.2495865272     2.2587929432    -0.0473580386
   29      H       2.5384795471     4.0748801430     0.1484079145
   30      H       0.1142568502     3.4227139597     0.2240228805
 ----------------------------------------------------------------

   22   -1935.2468475555      5.22e-06  Convergence criterion met
 Total energy in the final basis set =    -1935.2468475555
    6   -1936.0889403695      5.82e-06  Convergence criterion met
 Total energy in the final basis set =    -1936.0889403695

                    Orbital Energies (a.u.)
 --------------------------------------------------------------

 Alpha MOs
 -- Occupied --
-89.0291 -89.0291 -19.0748 -19.0748 -19.0747 -19.0747 -19.0717 -19.0717
-19.0126 -19.0126 -10.1761 -10.1760 -10.1749 -10.1749 -10.1468 -10.1468
-10.1442 -10.1442 -10.1434 -10.1434 -10.1428 -10.1427 -10.1341 -10.1341
 -8.0875  -8.0875  -6.0503  -6.0503  -6.0502  -6.0502  -6.0490  -6.0489
 -1.0888  -1.0888  -0.9580  -0.9579  -0.9565  -0.9542  -0.9485  -0.9483
 -0.8288  -0.8241  -0.7467  -0.7288  -0.7282  -0.7075  -0.6277  -0.6219
 -0.6006  -0.5848  -0.5765  -0.5340  -0.5118  -0.5048  -0.4929  -0.4584
 -0.4516  -0.4440  -0.4379  -0.4376  -0.4369  -0.4341  -0.4283  -0.4194
 -0.4174  -0.3816  -0.3769  -0.3735  -0.3685  -0.3465  -0.3441  -0.3431
 -0.3328  -0.3294  -0.3230  -0.3207  -0.3154  -0.3150  -0.3120  -0.3080
 -0.2891  -0.2847  -0.2767  -0.2740  -0.2695  -0.2668  -0.2418  -0.2403
 -0.2316  -0.2255  -0.2224  -0.2187  -0.1937  -0.1872  -0.0910

          Ground-State Mulliken Net Atomic Charges

     Atom                 Charge (a.u.)
  ----------------------------------------
      1 C                    -0.296634
      2 C                    -0.465563
      3 C                     0.680534
      4 C                     0.711876
      5 C                     0.125039
      6 C                    -0.950162
      7 C                    -1.139502
      8 C                     0.127044
      9 C                     0.713050
     10 C                    -1.132982
     11 C                    -0.949378
     12 C                     0.686976
     13 C                    -0.465916
     14 C                    -0.296621
     15 O                    -0.539037
     16 O                    -0.539083
     17 S                     0.702577
     18 O                    -0.484265
     19 O                    -0.461956
     20 O                    -0.453505
     21 S                     0.702480
     22 O                    -0.484043
     23 O                    -0.453523
     24 O                    -0.461824
     25 H                     0.145921
     26 H                     0.190910
     27 H                     0.225398
     28 H                     0.225408
     29 H                     0.190861
     30 H                     0.145920
  ----------------------------------------
  Sum of atomic charges =    -4.000000

                    Cartesian Multipole Moments
 -----------------------------------------------------------------
    Charge (ESU x 10^10)
               -19.2128
    Dipole Moment (Debye)
         X       0.0024      Y       0.0023      Z       0.5626
       Tot       0.5626
    Quadrupole Moments (Debye-Ang)
        XX    -464.9328     XY      51.6303     YY    -211.6104
        XZ       0.0021     YZ       0.0268     ZZ    -186.8234

 Total job time:  195.31s(wall), 1502.32s(cpu)
        *  Thank you very much for using Q-Chem.  Have a nice day.  *
