 Gaussian 16, Revision A.03,
 Gaussian 16:  ES64L-G16RevA.03 25-Dec-2016

 ----------------------------------------------------------------------
 #P UB3LYP/6-311++G(d,p) nosym opt freq SCRF=(PCM,Solvent=n,n-DiMethylF
 ormamide)
 ----------------------------------------------------------------------

 -------
 Radical
 -------
 Symbolic Z-matrix:
 Charge = -1 Multiplicity = 2

 SCF Done:  E(UB3LYP) =  -1314.16696985     A.U. after   23 cycles
 SCF Done:  E(UB3LYP) =  -1314.16751266     A.U. after   21 cycles
 SCF Done:  E(UB3LYP) =  -1314.16692248     A.U. after   20 cycles
 SCF Done:  E(UB3LYP) =  -1314.16804892     A.U. after   18 cycles
 SCF Done:  E(UB3LYP) =  -1314.16810607     A.U. after   20 cycles
 SCF Done:  E(UB3LYP) =  -1314.16806178     A.U. after   20 cycles
 SCF Done:  E(UB3LYP) =  -1314.16819137     A.U. after   18 cycles
 SCF Done:  E(UB3LYP) =  -1314.16821398     A.U. after   15 cycles
 SCF Done:  E(UB3LYP) =  -1314.16823241     A.U. after   18 cycles
 SCF Done:  E(UB3LYP) =  -1314.16818639     A.U. after   21 cycles
 SCF Done:  E(UB3LYP) =  -1314.16824184     A.U. after   15 cycles
 SCF Done:  E(UB3LYP) =  -1314.16823099     A.U. after   20 cycles
 SCF Done:  E(UB3LYP) =  -1314.16824938     A.U. after   18 cycles
 SCF Done:  E(UB3LYP) =  -1314.16825598     A.U. after   16 cycles
 SCF Done:  E(UB3LYP) =  -1314.16825440     A.U. after   15 cycles
 SCF Done:  E(UB3LYP) =  -1314.16825649     A.U. after   16 cycles
 SCF Done:  E(UB3LYP) =  -1314.16825627     A.U. after   15 cycles
 SCF Done:  E(UB3LYP) =  -1314.16825699     A.U. after   15 cycles
 SCF Done:  E(UB3LYP) =  -1314.16825699     A.U. after   12 cycles
 Optimization completed.
    -- Stationary point found.
 Normal termination of Gaussian 16 at Sat Feb 10 13:03:27 2024.

 ----------------------------------------------------------------------
 #P Geom=AllCheck Guess=TCheck SCRF=Check GenChk UB3LYP/6-311++G(d,p) F
 req
 ----------------------------------------------------------------------

 Structure from the checkpoint file:  "067-rad.chk"
 -------
 Radical
 -------
 Charge = -1 Multiplicity = 2

                          Input orientation:
 ---------------------------------------------------------------------
 Center     Atomic      Atomic             Coordinates (Angstroms)
 Number     Number       Type             X           Y           Z
 ---------------------------------------------------------------------
      1          6           0       -0.379166   -1.098626    2.503496
      2          6           0       -0.203234   -1.901440    1.309535
      3          6           0        0.342769   -1.401479    0.169338
      4          6           0        0.803053   -0.034045    0.066795
      5          6           0        0.646290    0.801623    1.251708
      6          6           0        0.056739    0.286150    2.390607
      7          8           0       -0.861768   -1.575121    3.562009
      8          8           0        1.316731    0.424369   -0.993777
      9         16           0       -0.256178    1.340410    3.816676
     10          6           0        0.689566    0.652869    5.188545
     11          6           0        0.018839    0.097710    6.273806
     12          6           0        2.081264    0.729334    5.144196
     13          6           0        2.815443    0.229894    6.217404
     14          6           0        0.764882   -0.388807    7.346196
     15          6           0        2.158177   -0.325950    7.316504
     16          8           0        0.328096    2.663795    3.503905
     17          8           0       -1.687008    1.308895    4.172189
     18          1           0       -0.531389   -2.933941    1.370632
     19          1           0        0.461583   -2.022342   -0.712859
     20          1           0       -1.061575    0.047911    6.273056
     21          1           0        2.583577    1.171427    4.292195
     22          1           0        3.897602    0.279929    6.196680
     23          1           0        0.256933   -0.820052    8.200738
     24          1           0        2.733677   -0.710497    8.150606
     25          6           0        1.221565    2.198898    1.080601
     26          6           0        0.322586    3.238854    0.467600
     27          8           0        2.399486    2.393824    1.311236
     28          1           0       -0.637018    3.279590    0.984557
     29          1           0        0.131195    2.947771   -0.570515
     30          1           0        0.805877    4.215971    0.487167
 ---------------------------------------------------------------------

 SCF Done:  E(UB3LYP) =  -1314.16825699     A.U. after    2 cycles

 Alpha  occ. eigenvalues --  -89.05720 -19.12321 -19.12168 -19.12071 -19.09568
 Alpha  occ. eigenvalues --  -19.09406 -10.27934 -10.24636 -10.24196 -10.21831
 Alpha  occ. eigenvalues --  -10.21417 -10.20649 -10.19934 -10.19719 -10.19260
 Alpha  occ. eigenvalues --  -10.19141 -10.19082 -10.18188 -10.18068 -10.16943
 Alpha  occ. eigenvalues --   -8.12106  -6.08389  -6.08275  -6.08202  -1.11410
 Alpha  occ. eigenvalues --   -1.05734  -1.02075  -1.01671  -1.00746  -0.88185
 Alpha  occ. eigenvalues --   -0.85271  -0.79322  -0.78093  -0.76865  -0.75108
 Alpha  occ. eigenvalues --   -0.71579  -0.68137  -0.63843  -0.62763  -0.61667
 Alpha  occ. eigenvalues --   -0.58238  -0.54683  -0.54383  -0.50647  -0.50400
 Alpha  occ. eigenvalues --   -0.48789  -0.48301  -0.48061  -0.46196  -0.46100
 Alpha  occ. eigenvalues --   -0.45608  -0.45357  -0.44267  -0.43386  -0.42698
 Alpha  occ. eigenvalues --   -0.42340  -0.40425  -0.40029  -0.39660  -0.38745
 Alpha  occ. eigenvalues --   -0.38693  -0.38265  -0.36805  -0.36552  -0.34452
 Alpha  occ. eigenvalues --   -0.33304  -0.31634  -0.30754  -0.30324  -0.28719
 Alpha  occ. eigenvalues --   -0.27884  -0.27462  -0.27018  -0.26120  -0.24770
 Alpha  occ. eigenvalues --   -0.18343
 Alpha virt. eigenvalues --   -0.05553  -0.03641  -0.02868  -0.02804  -0.00428
 Alpha virt. eigenvalues --    0.00238   0.00604   0.01113   0.01571   0.02306
 Alpha virt. eigenvalues --    0.02999   0.03103   0.03426   0.03883   0.04795

  Beta  occ. eigenvalues --  -89.05722 -19.12300 -19.12159 -19.12073 -19.08793
  Beta  occ. eigenvalues --  -19.08758 -10.27948 -10.24553 -10.24086 -10.21831
  Beta  occ. eigenvalues --  -10.21306 -10.20395 -10.19932 -10.19717 -10.19258
  Beta  occ. eigenvalues --  -10.19141 -10.19082 -10.18138 -10.17977 -10.16941
  Beta  occ. eigenvalues --   -8.12108  -6.08391  -6.08277  -6.08206  -1.11393
  Beta  occ. eigenvalues --   -1.05666  -1.01079  -1.00626  -1.00331  -0.88178
  Beta  occ. eigenvalues --   -0.84630  -0.79191  -0.77920  -0.76861  -0.74963
  Beta  occ. eigenvalues --   -0.70978  -0.67704  -0.63577  -0.62751  -0.61467
  Beta  occ. eigenvalues --   -0.58071  -0.54464  -0.54279  -0.50483  -0.50189
  Beta  occ. eigenvalues --   -0.48722  -0.48148  -0.48019  -0.46054  -0.46008
  Beta  occ. eigenvalues --   -0.45589  -0.45056  -0.44262  -0.43261  -0.42050
  Beta  occ. eigenvalues --   -0.40905  -0.40134  -0.39716  -0.39026  -0.38498
  Beta  occ. eigenvalues --   -0.38342  -0.36991  -0.36604  -0.36092  -0.34314
  Beta  occ. eigenvalues --   -0.33217  -0.31532  -0.30638  -0.28615  -0.27794
  Beta  occ. eigenvalues --   -0.27362  -0.26636  -0.26507  -0.25451  -0.24295
  Beta virt. eigenvalues --   -0.11057  -0.05141  -0.03096  -0.02854  -0.02168
  Beta virt. eigenvalues --   -0.00413   0.00473   0.01108   0.01412   0.02294
  Beta virt. eigenvalues --    0.02423   0.03073   0.03179   0.03565   0.03906

 Mulliken charges and spin densities:
               1          2
     1  C   -0.488811   0.032729
     2  C   -0.016399   0.067253
     3  C   -0.040451   0.039819
     4  C   -0.438885   0.082450
     5  C    0.830787   0.181181
     6  C   -0.043775   0.110190
     7  O   -0.378574   0.238623
     8  O   -0.421188   0.282250
     9  S    0.346866  -0.035719
    10  C    0.700235   0.002997
    11  C   -0.066339   0.017866
    12  C   -0.356682  -0.002540
    13  C   -0.497840   0.000112
    14  C   -0.394717  -0.001322
    15  C   -0.367588   0.001721
    16  O   -0.192312  -0.002120
    17  O   -0.195174   0.007967
    18  H    0.212770  -0.006256
    19  H    0.210594  -0.004395
    20  H    0.247453   0.000830
    21  H    0.229086   0.000712
    22  H    0.223403   0.000048
    23  H    0.215819   0.000009
    24  H    0.192778  -0.000075
    25  C   -0.174206  -0.024698
    26  C   -0.620693   0.006501
    27  O   -0.287439   0.003141
    28  H    0.194222   0.000416
    29  H    0.205168  -0.000589
    30  H    0.171894   0.000898
 Sum of Mulliken charges =  -1.00000   1.00000

 Dipole moment (field-independent basis, Debye):
    X=             -0.7924    Y=             -4.8199    Z=             -7.7428  Tot=              9.1548
 Quadrupole moment (field-independent basis, Debye-Ang):
   XX=           -140.3980   YY=           -143.9497   ZZ=           -144.9717
   XY=            -10.6003   XZ=             24.6057   YZ=            -13.1642

  Exact polarizability: 259.903  28.734 266.486 -31.420 -40.071 378.046
 Approx polarizability: 318.809  39.712 293.465 -52.351 -59.379 408.919

                      1                      2                      3
                      A                      A                      A
 Frequencies --     14.4112                38.3075                44.3196
 Red. masses --      6.9756                 4.2599                 5.9468
 Frc consts  --      0.0009                 0.0037                 0.0069
 IR Inten    --      5.5042                 1.3574                 2.7927

                      4                      5                      6
                      A                      A                      A
 Frequencies --     77.3178                99.2545               115.1050
 Red. masses --      6.9127                 3.8095                 1.5518
 Frc consts  --      0.0243                 0.0221                 0.0121
 IR Inten    --      1.8496                 8.6394                 3.8311

                      7                      8                      9
                      A                      A                      A
 Frequencies --    124.7930               153.6875               162.8358
 Red. masses --      2.6278                 5.0582                 7.9645
 Frc consts  --      0.0241                 0.0704                 0.1244
 IR Inten    --     10.8643                 3.2354                14.5838

                     10                     11                     12
                      A                      A                      A
 Frequencies --    171.7941               182.9378               224.6439
 Red. masses --      7.5113                 6.7467                 6.0824
 Frc consts  --      0.1306                 0.1330                 0.1808
 IR Inten    --      2.7974                 1.3481                 4.5754

                     13                     14                     15
                      A                      A                      A
 Frequencies --    248.5611               261.7803               298.0111
 Red. masses --      8.5183                12.2896                 7.9722
 Frc consts  --      0.3101                 0.4962                 0.4172
 IR Inten    --      0.9402                 6.6390                 5.7608

                     16                     17                     18
                      A                      A                      A
 Frequencies --    308.7885               316.2976               359.0567
 Red. masses --      7.8373                 6.2269                 5.8191
 Frc consts  --      0.4403                 0.3670                 0.4420
 IR Inten    --      8.0299                 0.8035                 3.5309

                     19                     20                     21
                      A                      A                      A
 Frequencies --    401.4771               411.7532               437.2192
 Red. masses --      7.0566                 2.9046                 7.6226
 Frc consts  --      0.6701                 0.2901                 0.8585
 IR Inten    --     21.2485                 0.0890                25.1623

                     22                     23                     24
                      A                      A                      A
 Frequencies --    466.5447               481.0857               499.7991
 Red. masses --      5.7028                 7.2490                 6.4774
 Frc consts  --      0.7314                 0.9885                 0.9533
 IR Inten    --     21.0296                 5.5880                59.5048

                     25                     26                     27
                      A                      A                      A
 Frequencies --    520.2929               552.1455               567.9597
 Red. masses --      4.1250                 5.6439                 6.2266
 Frc consts  --      0.6579                 1.0138                 1.1834
 IR Inten    --      4.5710               205.4767                56.4488

                     28                     29                     30
                      A                      A                      A
 Frequencies --    605.5805               625.5864               627.9611
 Red. masses --      5.4164                 6.3153                 3.2365
 Frc consts  --      1.1703                 1.4562                 0.7520
 IR Inten    --    180.9966                 0.3426                 6.7603

                     31                     32                     33
                      A                      A                      A
 Frequencies --    656.3895               702.6598               710.0071
 Red. masses --      3.3601                 2.0775                 6.8440
 Frc consts  --      0.8530                 0.6043                 2.0328
 IR Inten    --      9.7846                71.3151                11.7369

                     34                     35                     36
                      A                      A                      A
 Frequencies --    729.5469               762.8159               770.6394
 Red. masses --      7.1431                 1.6447                 7.7406
 Frc consts  --      2.2400                 0.5639                 2.7085
 IR Inten    --    152.3760                38.7344                 8.1881

                     37                     38                     39
                      A                      A                      A
 Frequencies --    840.1754               854.8601               876.7793
 Red. masses --      1.9165                 1.2439                 6.3385
 Frc consts  --      0.7971                 0.5356                 2.8709
 IR Inten    --     78.3296                 0.1002                26.8678

                     40                     41                     42
                      A                      A                      A
 Frequencies --    913.2586               944.3039               980.5745
 Red. masses --      6.9244                 1.3381                 1.3315
 Frc consts  --      3.4027                 0.7030                 0.7543
 IR Inten    --     32.0804                 1.4259                 2.3163

                     43                     44                     45
                      A                      A                      A
 Frequencies --    986.9893               997.4422              1001.8031
 Red. masses --      2.0477                 1.4005                 2.4540
 Frc consts  --      1.1753                 0.8209                 1.4511
 IR Inten    --     18.9819                 1.6647                29.3219

                     46                     47                     48
                      A                      A                      A
 Frequencies --   1012.8822              1017.8539              1036.0642
 Red. masses --      4.8693                 1.3332                 3.7632
 Frc consts  --      2.9433                 0.8138                 2.3800
 IR Inten    --      7.7769                 0.0936                72.7792

                     49                     50                     51
                      A                      A                      A
 Frequencies --   1054.1081              1084.7836              1096.4651
 Red. masses --      3.3957                 2.8078                 1.5959
 Frc consts  --      2.2231                 1.9467                 1.1304
 IR Inten    --    185.6396                70.9578                28.2581

                     52                     53                     54
                      A                      A                      A
 Frequencies --   1102.5259              1117.1584              1179.5451
 Red. masses --      3.7576                 1.6611                 1.1132
 Frc consts  --      2.6912                 1.2214                 0.9126
 IR Inten    --    207.0358                18.4604                 0.1122

                     55                     56                     57
                      A                      A                      A
 Frequencies --   1192.9035              1204.3795              1207.9831
 Red. masses --      1.1567                 6.5703                 3.1405
 Frc consts  --      0.9698                 5.6152                 2.7000
 IR Inten    --      2.9420               217.5772               263.4572

                     58                     59                     60
                      A                      A                      A
 Frequencies --   1224.9639              1320.9591              1329.0836
 Red. masses --      3.8706                 2.5149                 2.8602
 Frc consts  --      3.4220                 2.5856                 2.9769
 IR Inten    --     42.7807                 9.9958                 0.3320

                     61                     62                     63
                      A                      A                      A
 Frequencies --   1342.0876              1372.3127              1406.9786
 Red. masses --      1.8502                 1.3042                 3.5312
 Frc consts  --      1.9635                 1.4471                 4.1186
 IR Inten    --      6.4957                80.1536               165.7117

                     64                     65                     66
                      A                      A                      A
 Frequencies --   1448.0959              1458.3284              1462.2389
 Red. masses --      1.1420                 3.1086                 1.2760
 Frc consts  --      1.4110                 3.8952                 1.6075
 IR Inten    --     56.5052               187.4670               129.4276

                     67                     68                     69
                      A                      A                      A
 Frequencies --   1473.9052              1504.8163              1507.6487
 Red. masses --      2.1213                 2.0610                 7.2847
 Frc consts  --      2.7151                 2.7498                 9.7557
 IR Inten    --     24.4054                10.7574               124.0703

                     70                     71                     72
                      A                      A                      A
 Frequencies --   1531.6886              1617.7743              1622.6888
 Red. masses --      7.8305                 5.4031                 5.8792
 Frc consts  --     10.8238                 8.3315                 9.1209
 IR Inten    --    800.0764                 1.1967                 0.5326

                     73                     74                     75
                      A                      A                      A
 Frequencies --   1633.0708              1734.3386              3035.8617
 Red. masses --      7.3394                10.9038                 1.0372
 Frc consts  --     11.5324                19.3239                 5.6322
 IR Inten    --     25.3705               414.9534                 2.2218

                     76                     77                     78
                      A                      A                      A
 Frequencies --   3105.6695              3137.1196              3160.7365
 Red. masses --      1.0954                 1.1053                 1.0865
 Frc consts  --      6.2248                 6.4088                 6.3954
 IR Inten    --      6.9073                21.8504                16.4266

                     79                     80                     81
                      A                      A                      A
 Frequencies --   3173.9144              3178.4149              3183.0960
 Red. masses --      1.0866                 1.0962                 1.0892
 Frc consts  --      6.4493                 6.5246                 6.5022
 IR Inten    --      0.5101                21.0782                11.3460

                     82                     83                     84
                      A                      A                      A
 Frequencies --   3190.4498              3198.0256              3214.0297
 Red. masses --      1.0933                 1.0972                 1.0934
 Frc consts  --      6.5567                 6.6116                 6.6547
 IR Inten    --     10.7167                16.4624                 5.1829

 - Thermochemistry -
 -------------------
 Temperature   298.150 Kelvin.  Pressure   1.00000 Atm.
 Atom     1 has atomic number  6 and mass  12.00000

 Molecular mass:   290.02490 amu.
 Principal axes and moments of inertia in atomic units:
                           1         2         3
     Eigenvalues --  3341.866177287.571618178.61985
           X            0.04102   0.34928   0.93612
           Y           -0.11008   0.93278  -0.34321
           Z            0.99308   0.08897  -0.07671
 This molecule is an asymmetric top.
 Rotational symmetry number  1.
 Warning -- assumption of classical behavior for rotation
           may cause significant error
 Rotational temperatures (Kelvin)      0.02592     0.01189     0.01059
 Rotational constants (GHZ):           0.54004     0.24765     0.22067
 Zero-point vibrational energy     550297.2 (Joules/Mol)
                                  131.52418 (Kcal/Mol)
 Warning -- explicit consideration of  28 degrees of freedom as
           vibrations may cause significant error
 Vibrational temperatures:     20.73    55.12    63.77   111.24   142.81
          (Kelvin)            165.61   179.55   221.12   234.28   247.17
                              263.21   323.21   357.62   376.64   428.77
                              444.28   455.08   516.60   577.64   592.42
                              629.06   671.25   692.18   719.10   748.59
                              794.41   817.17   871.30   900.08   903.50
                              944.40  1010.97  1021.54  1049.66  1097.52
                             1108.78  1208.82  1229.95  1261.49  1313.98
                             1358.64  1410.83  1420.06  1435.10  1441.37
                             1457.31  1464.46  1490.67  1516.63  1560.76
                             1577.57  1586.29  1607.34  1697.10  1716.32
                             1732.83  1738.02  1762.45  1900.57  1912.25
                             1930.96  1974.45  2024.33  2083.49  2098.21
                             2103.84  2120.62  2165.09  2169.17  2203.76
                             2327.62  2334.69  2349.62  2495.33  4367.93
                             4468.37  4513.62  4547.59  4566.55  4573.03
                             4579.77  4590.35  4601.25  4624.27

 Zero-point correction=                           0.209597 (Hartree/Particle)
 Thermal correction to Energy=                    0.227571
 Thermal correction to Enthalpy=                  0.228515
 Thermal correction to Gibbs Free Energy=         0.161404
 Sum of electronic and zero-point Energies=          -1313.958660
 Sum of electronic and thermal Energies=             -1313.940686
 Sum of electronic and thermal Enthalpies=           -1313.939742
 Sum of electronic and thermal Free Energies=        -1314.006853

                     E (Thermal)             CV                S
                      KCal/Mol        Cal/Mol-Kelvin    Cal/Mol-Kelvin
 Total                  142.803             67.408            141.247
 Electronic               0.000              0.000              1.377
 Translational            0.889              2.981             42.892
 Rotational               0.889              2.981             33.654
 Vibrational            141.025             61.446             63.323
 Vibration     1          0.593              1.986              7.285
 Vibration     2          0.594              1.982              5.345
 Vibration     3          0.595              1.980              5.056
 Vibration     4          0.599              1.964              3.958
 Vibration     5          0.604              1.950              3.469
 Vibration     6          0.608              1.937              3.181
 Vibration     7          0.610              1.928              3.025
 Vibration     8          0.619              1.899              2.626
 Vibration     9          0.623              1.888              2.517
 Vibration    10          0.626              1.877              2.416
 Vibration    11          0.630              1.863              2.298
 Vibration    12          0.649              1.804              1.921
 Vibration    13          0.662              1.765              1.741
 Vibration    14          0.669              1.743              1.650
 Vibration    15          0.691              1.677              1.428
 Vibration    16          0.698              1.657              1.369
 Vibration    17          0.703              1.642              1.329
 Vibration    18          0.734              1.557              1.126
 Vibration    19          0.767              1.467              0.957
 Vibration    20          0.776              1.445              0.920
 Vibration    21          0.798              1.389              0.835
 Vibration    22          0.824              1.324              0.747
 Vibration    23          0.837              1.292              0.707
 Vibration    24          0.855              1.250              0.659
 Vibration    25          0.875              1.205              0.609
 Vibration    26          0.907              1.135              0.540
 Vibration    27          0.924              1.101              0.508
 Vibration    28          0.964              1.020              0.440

                           ! Non-Optimized Parameters !
 Normal termination of Gaussian 16 at Sat Feb 10 14:03:28 2024.
