 Q-Chem 5.4, Q-Chem, Inc., Pleasanton, CA (2021)
 Q-Chem 5.4.0 for Intel X86 EM64T Linux

User input:
--------------------------------------------------------------
$molecule
-2 1
C                 -3.0648920000      3.5806660000      1.0167040000
C                 -3.9836360000      2.9774600000      1.8495420000
C                 -3.8333110000      1.6043910000      2.1882780000
C                 -1.9562000000      2.8769560000      0.4775570000
C                 -1.8036100000      1.4852210000      0.8248010000
C                 -2.7665950000      0.8927240000      1.6808030000
C                 -1.0401120000      3.5875350000     -0.3956160000
C                  0.0699140000      2.8007010000     -0.8805130000
C                  0.2126520000      1.3799650000     -0.5425810000
C                 -0.7120050000      0.6785890000      0.3209550000
C                  1.0914630000      3.3250920000     -1.7326550000
C                  2.1213490000      2.5757180000     -2.2510430000
C                  2.2215470000      1.1941080000     -1.9309320000
C                  1.2872610000      0.6358250000     -1.0901890000
O                 -1.2414210000      4.8239860000     -0.6955110000
O                 -0.5827000000     -0.5636230000      0.6151660000
H                 -2.6200860000     -0.1567230000      1.9165750000
H                  1.3272570000     -0.4114860000     -0.8090600000
H                 -3.1515510000      4.6259840000      0.7389900000
O                  1.0730740000      4.6723780000     -2.1518800000
H                  3.0331420000      0.5989080000     -2.3423160000
H                 -4.5554190000      1.1212020000      2.8440370000
C                  1.5453220000      5.6363710000     -1.3298950000
C                  1.3621250000      6.9737080000     -1.7493650000
C                  2.2521340000      5.3889470000     -0.1499670000
C                  2.7939880000      6.4433120000      0.5859400000
C                  1.9248400000      8.0125170000     -1.0149770000
C                  2.6491350000      7.7589370000      0.1531550000
O                  0.6960820000      7.2698050000     -2.9149390000
C                 -0.7046170000      6.9061500000     -2.9329150000
H                 -4.8200630000      3.5489160000      2.2479070000
H                  2.8431650000      3.0651180000     -2.8971270000
H                  2.3668440000      4.3641450000      0.1786380000
H                  3.3343050000      6.2265510000      1.5027820000
H                  1.7749890000      9.0255090000     -1.3754820000
H                  3.0781470000      8.5809790000      0.7189370000
H                 -0.9477070000      6.6561670000     -3.9688260000
H                 -1.2960500000      7.7780800000     -2.6214750000
H                 -0.9187710000      6.0597810000     -2.2698520000
$end
$rem
MAX_SCF_CYCLES=200
BASIS  =  6-311++G(d,p)
GUI  =  2
JOB_TYPE  =  SP
METHOD  =  B3LYP
SOLVENT_METHOD = COSMO
$end
$solvent
dielectric 37.219
opticaldielectric 1.43
$end

--------------------------------------------------------------

             Standard Nuclear Orientation (Angstroms)
    I     Atom           X                Y                Z
 ----------------------------------------------------------------
    1      C      -2.2491684290    -2.5712212955     0.0884862320
    2      C      -3.4798907026    -3.1368013870    -0.1703747264
    3      C      -4.5989144848    -2.2998025129    -0.4347169701
    4      C      -2.0496848973    -1.1658111889     0.0991612117
    5      C      -3.1851358327    -0.3185571629    -0.1723166008
    6      C      -4.4380564700    -0.9301311498    -0.4317378113
    7      C      -0.7220646797    -0.6545872677     0.3866424931
    8      C      -0.6058042418     0.7848175799     0.3552138425
    9      C      -1.7659826978     1.6457889744     0.0987432538
   10      C      -3.0874825392     1.1259357799    -0.1769451749
   11      C       0.6222915053     1.4789300351     0.5890578165
   12      C       0.7382431829     2.8487626647     0.6217144951
   13      C      -0.4069358238     3.6610443095     0.3978385119
   14      C      -1.6129716755     3.0541970734     0.1358595312
   15      O       0.2499685830    -1.4574356580     0.6509514000
   16      O      -4.0991344931     1.8823738905    -0.4021833992
   17      H      -5.2692095091    -0.2600618611    -0.6281661765
   18      H      -2.5126413643     3.6314236586    -0.0509490494
   19      H      -1.3762200946    -3.1819222665     0.2942290294
   20      O       1.8162436129     0.7790786268     0.8646547915
   21      H      -0.3182526629     4.7443275325     0.4264573023
   22      H      -5.5737803393    -2.7391587481    -0.6385161448
   23      C       2.5381784542     0.2588656440    -0.1532590336
   24      C       3.6396519758    -0.5533885572     0.2002740868
   25      C       2.3051268329     0.5310328688    -1.5040528254
   26      C       3.1632958398     0.0338871022    -2.4855019914
   27      C       4.4968157552    -1.0255082298    -0.7883974028
   28      C       4.2719209662    -0.7331197517    -2.1364959692
   29      O       3.9270971623    -0.8307238491     1.5156865169
   30      C       2.9268021549    -1.6100327786     2.2132632330
   31      H      -3.5956021191    -4.2191430935    -0.1741241165
   32      H       1.7145555143     3.2809290361     0.8166547212
   33      H       1.4454290634     1.1326380505    -1.7692880415
   34      H       2.9583401109     0.2539616807    -3.5290954820
   35      H       5.3400077486    -1.6346863436    -0.4777508881
   36      H       4.9470798554    -1.1133885740    -2.8977250507
   37      H       2.9576313050    -1.2915455408     3.2584002054
   38      H       3.2031931395    -2.6714046878     2.1488622556
   39      H       1.9246652739    -1.4641174243     1.7933997517
 ----------------------------------------------------------------

   17   -1109.8322316808      9.59e-06  Convergence criterion met
 Total energy in the final basis set =    -1109.8322316808
    6   -1110.0880185592      2.94e-06  Convergence criterion met
 Total energy in the final basis set =    -1110.0880185592

                    Orbital Energies (a.u.)
 --------------------------------------------------------------

 Alpha MOs
 -- Occupied --
-19.1479 -19.1344 -19.0279 -19.0212 -10.2306 -10.2205 -10.2160 -10.1913
-10.1826 -10.1795 -10.1677 -10.1674 -10.1651 -10.1645 -10.1528 -10.1523
-10.1515 -10.1514 -10.1504 -10.1489 -10.1484 -10.1475 -10.1431 -10.1413
-10.1408  -1.0727  -1.0409  -0.9482  -0.9411  -0.8487  -0.8321  -0.8251
 -0.7589  -0.7514  -0.7458  -0.7264  -0.7163  -0.7120  -0.6731  -0.6453
 -0.6285  -0.6069  -0.5962  -0.5896  -0.5610  -0.5424  -0.5197  -0.5106
 -0.5038  -0.4859  -0.4789  -0.4565  -0.4542  -0.4468  -0.4455  -0.4316
 -0.4304  -0.4284  -0.4190  -0.4020  -0.3994  -0.3922  -0.3837  -0.3794
 -0.3784  -0.3738  -0.3634  -0.3586  -0.3533  -0.3419  -0.3398  -0.3313
 -0.3300  -0.3225  -0.3179  -0.3072  -0.3046  -0.2794  -0.2427  -0.2369
 -0.2308  -0.2284  -0.2222  -0.2145  -0.2087  -0.1970  -0.1119

          Ground-State Mulliken Net Atomic Charges

     Atom                 Charge (a.u.)
  ----------------------------------------
      1 C                    -0.176971
      2 C                    -0.488936
      3 C                    -0.563068
      4 C                     0.248169
      5 C                     0.195996
      6 C                    -0.103022
      7 C                    -0.323821
      8 C                     0.306926
      9 C                     0.602438
     10 C                    -0.569012
     11 C                    -0.315385
     12 C                     0.138175
     13 C                    -0.507793
     14 C                    -0.212436
     15 O                    -0.604496
     16 O                    -0.697691
     17 H                     0.167621
     18 H                     0.169552
     19 H                     0.133369
     20 O                    -0.056890
     21 H                     0.194162
     22 H                     0.178514
     23 C                     0.777045
     24 C                    -0.737632
     25 C                    -0.119745
     26 C                    -0.490700
     27 C                    -0.037416
     28 C                    -0.329432
     29 O                    -0.210818
     30 C                    -0.303624
     31 H                     0.185595
     32 H                     0.186814
     33 H                     0.200995
     34 H                     0.217861
     35 H                     0.217491
     36 H                     0.193848
     37 H                     0.150461
     38 H                     0.139456
     39 H                     0.244403
  ----------------------------------------
  Sum of atomic charges =    -2.000001

                    Cartesian Multipole Moments
 -----------------------------------------------------------------
    Charge (ESU x 10^10)
                -9.6064
    Dipole Moment (Debye)
         X      13.7485      Y      -2.8514      Z      -1.9865
       Tot      14.1809
    Quadrupole Moments (Debye-Ang)
        XX    -243.6909     XY      20.0547     YY    -178.3321
        XZ     -11.4195     YZ       2.0394     ZZ    -157.6609

 Total job time:  296.23s(wall), 1946.42s(cpu)
        *  Thank you very much for using Q-Chem.  Have a nice day.  *
