 Gaussian 16, Revision A.03,
 Gaussian 16:  ES64L-G16RevA.03 25-Dec-2016

 --------------------------------------
 #P UB3LYP/6-311++G(d,p) nosym opt freq
 --------------------------------------

 -------
 Radical
 -------
 Symbolic Z-matrix:
 Charge = -1 Multiplicity = 2

 SCF Done:  E(UB3LYP) =  -765.440258184     A.U. after   23 cycles
 SCF Done:  E(UB3LYP) =  -765.448923759     A.U. after   18 cycles
 SCF Done:  E(UB3LYP) =  -765.449447536     A.U. after   18 cycles
 SCF Done:  E(UB3LYP) =  -765.449482262     A.U. after   19 cycles
 SCF Done:  E(UB3LYP) =  -765.449839085     A.U. after   17 cycles
 SCF Done:  E(UB3LYP) =  -765.449933270     A.U. after   16 cycles
 SCF Done:  E(UB3LYP) =  -765.449935322     A.U. after   15 cycles
 SCF Done:  E(UB3LYP) =  -765.449940254     A.U. after   14 cycles
 SCF Done:  E(UB3LYP) =  -765.449941284     A.U. after   13 cycles
 SCF Done:  E(UB3LYP) =  -765.449941463     A.U. after   12 cycles
 SCF Done:  E(UB3LYP) =  -765.449941505     A.U. after   12 cycles
 SCF Done:  E(UB3LYP) =  -765.449941509     A.U. after   11 cycles
 Optimization completed.
    -- Stationary point found.
 Normal termination of Gaussian 16 at Wed Dec 20 02:48:30 2023.

 ----------------------------------------------------------------------
 #P Geom=AllCheck Guess=TCheck SCRF=Check GenChk UB3LYP/6-311++G(d,p) F
 req
 ----------------------------------------------------------------------

 Structure from the checkpoint file:  "080-rad.chk"
 -------
 Radical
 -------
 Charge = -1 Multiplicity = 2

                          Input orientation:
 ---------------------------------------------------------------------
 Center     Atomic      Atomic             Coordinates (Angstroms)
 Number     Number       Type             X           Y           Z
 ---------------------------------------------------------------------
      1          6           0        1.369245    1.134929   -2.683409
      2          6           0       -0.035221    1.474539   -2.870503
      3          6           0       -1.053607    0.967526   -2.118607
      4          6           0       -0.769862    0.016327   -1.037853
      5          6           0        0.610664   -0.331216   -0.847816
      6          8           0        2.261557    1.699930   -3.362955
      7          8           0       -1.698001   -0.465218   -0.327836
      8          1           0       -0.233492    2.196432   -3.659312
      9          6           0        1.644524    0.150565   -1.636707
     10          6           0        3.018903   -0.308165   -1.325829
     11          6           0        4.027153   -0.530060   -2.427539
     12          6           0        5.388073   -0.467106   -2.108580
     13          6           0        3.653729   -0.903423   -3.722516
     14          6           0        6.357561   -0.748133   -3.067506
     15          6           0        5.975783   -1.126652   -4.354990
     16          6           0        4.620622   -1.211172   -4.675897
     17          8           0        3.358419   -0.590857   -0.177221
     18          1           0        5.666877   -0.197936   -1.096788
     19          1           0        2.603732   -0.951768   -3.980386
     20          1           0        7.409958   -0.678357   -2.810747
     21          1           0        6.728629   -1.353606   -5.103348
     22          1           0        4.316479   -1.506057   -5.674920
     23          6           0       -2.489893    1.352037   -2.342916
     24          1           0        0.834953   -1.027855   -0.047319
     25          1           0       -2.585094    2.060679   -3.169998
     26          1           0       -2.917671    1.797579   -1.438933
     27          1           0       -3.098372    0.467309   -2.557079
 ---------------------------------------------------------------------

 SCF Done:  E(UB3LYP) =  -765.449941509     A.U. after    1 cycles

 Alpha  occ. eigenvalues --  -18.98510 -18.95137 -18.95105 -10.13834 -10.10324
 Alpha  occ. eigenvalues --  -10.09324 -10.08538 -10.08192 -10.08033 -10.07831
 Alpha  occ. eigenvalues --  -10.07665 -10.07602 -10.05869 -10.05333 -10.04778
 Alpha  occ. eigenvalues --  -10.04437 -10.04262  -0.91643  -0.87701  -0.87122
 Alpha  occ. eigenvalues --   -0.76141  -0.70754  -0.66645  -0.65305  -0.65005
 Alpha  occ. eigenvalues --   -0.58508  -0.56605  -0.52458  -0.51054  -0.47862
 Alpha  occ. eigenvalues --   -0.46111  -0.43781  -0.39948  -0.36815  -0.36340
 Alpha  occ. eigenvalues --   -0.35445  -0.33763  -0.32862  -0.32733  -0.31423
 Alpha  occ. eigenvalues --   -0.31037  -0.30083  -0.28959  -0.27684  -0.27615
 Alpha  occ. eigenvalues --   -0.27207  -0.26323  -0.25254  -0.25054  -0.24604
 Alpha  occ. eigenvalues --   -0.23988  -0.23460  -0.16246  -0.16099  -0.15396
 Alpha  occ. eigenvalues --   -0.14168  -0.13051  -0.11446  -0.10725  -0.03966
 Alpha virt. eigenvalues --    0.04817   0.06886   0.08408   0.08593   0.08809
 Alpha virt. eigenvalues --    0.09596   0.10065   0.11241   0.11957   0.12138
 Alpha virt. eigenvalues --    0.12783   0.13369   0.13954   0.14176   0.14771

  Beta  occ. eigenvalues --  -18.98434 -18.94527 -18.94309 -10.13816 -10.10266
  Beta  occ. eigenvalues --  -10.09240 -10.08534 -10.08194 -10.08032 -10.07834
  Beta  occ. eigenvalues --  -10.07661 -10.07598 -10.05825 -10.05338 -10.04685
  Beta  occ. eigenvalues --  -10.04174 -10.04173  -0.91503  -0.86660  -0.85745
  Beta  occ. eigenvalues --   -0.76132  -0.70215  -0.66542  -0.65260  -0.64838
  Beta  occ. eigenvalues --   -0.58297  -0.55792  -0.52246  -0.51024  -0.47595
  Beta  occ. eigenvalues --   -0.45802  -0.43668  -0.39803  -0.36648  -0.36227
  Beta  occ. eigenvalues --   -0.35362  -0.33512  -0.32841  -0.32521  -0.31185
  Beta  occ. eigenvalues --   -0.30666  -0.29948  -0.28770  -0.27568  -0.26944
  Beta  occ. eigenvalues --   -0.26425  -0.26089  -0.25005  -0.24674  -0.23788
  Beta  occ. eigenvalues --   -0.23193  -0.21601  -0.16055  -0.15976  -0.14013
  Beta  occ. eigenvalues --   -0.12475  -0.12006  -0.10771  -0.10145
  Beta virt. eigenvalues --    0.02966   0.05455   0.06886   0.08443   0.08595
  Beta virt. eigenvalues --    0.08808   0.09962   0.10579   0.11251   0.11990
  Beta virt. eigenvalues --    0.12172   0.12866   0.13411   0.14117   0.14780

 Mulliken charges and spin densities:
               1          2
     1  C   -1.342245   0.021659
     2  C   -0.379576   0.076022
     3  C    1.052944   0.035978
     4  C   -0.960775   0.074358
     5  C    0.428018   0.161228
     6  O   -0.318414   0.221184
     7  O   -0.377069   0.291105
     8  H    0.138903  -0.006559
     9  C    1.588728   0.063797
    10  C   -1.452318   0.031167
    11  C    1.469487  -0.004437
    12  C    0.307447  -0.003439
    13  C   -0.878874   0.012450
    14  C   -0.390503   0.000682
    15  C   -0.260772   0.004325
    16  C   -0.376673  -0.003081
    17  O   -0.233807   0.026436
    18  H    0.193214  -0.000568
    19  H    0.162057   0.002246
    20  H    0.140596   0.000145
    21  H    0.124373  -0.000200
    22  H    0.149108  -0.000138
    23  C   -0.433663   0.007032
    24  H    0.210656  -0.014451
    25  H    0.120097  -0.000501
    26  H    0.159464   0.001462
    27  H    0.159596   0.002100
 Sum of Mulliken charges =  -1.00000   1.00000

 Dipole moment (field-independent basis, Debye):
    X=             -5.6897    Y=             -1.0367    Z=              6.4272  Tot=              8.6462
 Quadrupole moment (field-independent basis, Debye-Ang):
   XX=           -138.2730   YY=           -112.3886   ZZ=           -123.8406
   XY=             -4.8679   XZ=             17.7637   YZ=             12.0367

  Exact polarizability: 300.400 -23.829 135.754 -34.478 -15.689 185.335
 Approx polarizability: 416.276   3.421 216.253 -47.622 -41.772 326.553

                      1                      2                      3
                      A                      A                      A
 Frequencies --     29.5954                44.4329                60.9805
 Red. masses --      7.2504                 4.4337                 4.6594
 Frc consts  --      0.0037                 0.0052                 0.0102
 IR Inten    --      1.6646                 0.5725                 2.7846

                      4                      5                      6
                      A                      A                      A
 Frequencies --    103.1830               127.6788               143.3707
 Red. masses --      6.1131                 1.1241                 6.5447
 Frc consts  --      0.0383                 0.0108                 0.0793
 IR Inten    --      0.5484                 0.2626                12.9866

                      7                      8                      9
                      A                      A                      A
 Frequencies --    181.6602               192.7257               215.6971
 Red. masses --      4.4220                 6.3030                 4.4855
 Frc consts  --      0.0860                 0.1379                 0.1230
 IR Inten    --      3.7707                 2.7547                 1.9323

                     10                     11                     12
                      A                      A                      A
 Frequencies --    251.3536               286.9036               334.8448
 Red. masses --      5.9845                 3.2820                 9.0354
 Frc consts  --      0.2228                 0.1592                 0.5969
 IR Inten    --      2.8260                 1.5997                 1.4270

                     13                     14                     15
                      A                      A                      A
 Frequencies --    374.9231               393.7603               413.0765
 Red. masses --      6.8517                 7.5883                 3.1713
 Frc consts  --      0.5675                 0.6932                 0.3188
 IR Inten    --      1.3029                10.3969                 0.4337

                     16                     17                     18
                      A                      A                      A
 Frequencies --    416.7143               426.4459               487.2029
 Red. masses --      3.8332                 3.6237                 9.7914
 Frc consts  --      0.3922                 0.3883                 1.3693
 IR Inten    --      0.9572                 2.0951                 5.1810

                     19                     20                     21
                      A                      A                      A
 Frequencies --    525.1364               598.1342               622.4667
 Red. masses --      4.9453                 6.7920                 4.2604
 Frc consts  --      0.8035                 1.4317                 0.9726
 IR Inten    --      7.4803                15.7479                 2.9481

                     22                     23                     24
                      A                      A                      A
 Frequencies --    632.7243               665.9274               693.7201
 Red. masses --      6.2809                 4.1978                 4.9991
 Frc consts  --      1.4815                 1.0968                 1.4175
 IR Inten    --      0.7158                 2.3295                21.4299

                     25                     26                     27
                      A                      A                      A
 Frequencies --    701.2746               715.0016               727.2382
 Red. masses --      1.7649                 5.3860                 3.5249
 Frc consts  --      0.5114                 1.6223                 1.0984
 IR Inten    --     41.5178                 9.0330                35.8240

                     28                     29                     30
                      A                      A                      A
 Frequencies --    754.8089               794.1925               828.1507
 Red. masses --      3.0324                 3.2800                 3.6507
 Frc consts  --      1.0179                 1.2189                 1.4752
 IR Inten    --     11.4828                 3.8203                48.7633

                     31                     32                     33
                      A                      A                      A
 Frequencies --    847.4660               871.7820               900.6432
 Red. masses --      1.2499                 1.6260                 1.5997
 Frc consts  --      0.5289                 0.7281                 0.7645
 IR Inten    --      1.2836                 5.2518                29.5080

                     34                     35                     36
                      A                      A                      A
 Frequencies --    931.2848               938.7504               979.4373
 Red. masses --      1.7961                 2.6430                 1.3715
 Frc consts  --      0.9178                 1.3723                 0.7751
 IR Inten    --      7.3464                35.0087                 1.5612

                     37                     38                     39
                      A                      A                      A
 Frequencies --    983.8762              1015.7115              1016.6972
 Red. masses --      1.2810                 1.5937                 5.8229
 Frc consts  --      0.7306                 0.9687                 3.5463
 IR Inten    --      0.8108                32.8412                 1.7133

                     40                     41                     42
                      A                      A                      A
 Frequencies --   1045.9749              1052.3188              1087.4870
 Red. masses --      2.3419                 1.5142                 2.5076
 Frc consts  --      1.5096                 0.9879                 1.7473
 IR Inten    --     17.5003                 1.4125                71.8663

                     43                     44                     45
                      A                      A                      A
 Frequencies --   1104.4884              1153.3270              1173.8722
 Red. masses --      2.2008                 2.6536                 1.1095
 Frc consts  --      1.5818                 2.0796                 0.9008
 IR Inten    --     22.1804                13.9699                 1.4955

                     46                     47                     48
                      A                      A                      A
 Frequencies --   1190.0259              1197.2775              1238.3070
 Red. masses --      2.1095                 1.5971                 1.4386
 Frc consts  --      1.7601                 1.3489                 1.2997
 IR Inten    --     61.9885                 1.3259                26.5422

                     49                     50                     51
                      A                      A                      A
 Frequencies --   1272.7821              1318.5580              1333.4006
 Red. masses --      4.8208                 2.6071                 3.1689
 Frc consts  --      4.6013                 2.6706                 3.3195
 IR Inten    --    172.4499                24.0394                 6.9654

                     52                     53                     54
                      A                      A                      A
 Frequencies --   1346.7566              1396.3665              1420.8718
 Red. masses --      1.8225                 1.3694                 4.6752
 Frc consts  --      1.9476                 1.5731                 5.5611
 IR Inten    --      1.3850                 7.5081                48.6080

                     55                     56                     57
                      A                      A                      A
 Frequencies --   1459.8336              1464.7015              1471.7894
 Red. masses --      5.6386                 1.0469                 2.3009
 Frc consts  --      7.0799                 1.3233                 2.9366
 IR Inten    --    308.4783                 5.2671                34.4935

                     58                     59                     60
                      A                      A                      A
 Frequencies --   1481.1383              1516.4517              1525.4246
 Red. masses --      1.1556                 2.2066                 6.4563
 Frc consts  --      1.4936                 2.9897                 8.8515
 IR Inten    --      5.6303                 1.8595               322.4631

                     61                     62                     63
                      A                      A                      A
 Frequencies --   1552.6324              1612.5060              1632.8974
 Red. masses --      7.4953                 5.9791                 5.7774
 Frc consts  --     10.6458                 9.1598                 9.0761
 IR Inten    --    193.3410                38.3152                24.6434

                     64                     65                     66
                      A                      A                      A
 Frequencies --   1644.0489              1659.8169              3013.6335
 Red. masses --      6.8586                10.2370                 1.0342
 Frc consts  --     10.9223                16.6167                 5.5342
 IR Inten    --     32.5802               261.3357                75.4484

                     67                     68                     69
                      A                      A                      A
 Frequencies --   3059.5702              3085.5442              3134.9491
 Red. masses --      1.0986                 1.1029                 1.0893
 Frc consts  --      6.0591                 6.1868                 6.3075
 IR Inten    --     24.5096                23.9035                34.9629

                     70                     71                     72
                      A                      A                      A
 Frequencies --   3141.7849              3155.5820              3168.8928
 Red. masses --      1.0843                 1.0893                 1.0947
 Frc consts  --      6.3059                 6.3907                 6.4769
 IR Inten    --      1.5430                30.6171                55.4311

                     73                     74                     75
                      A                      A                      A
 Frequencies --   3175.4970              3189.2755              3199.6681
 Red. masses --      1.0889                 1.0924                 1.0927
 Frc consts  --      6.4694                 6.5465                 6.5913
 IR Inten    --      7.2420                14.4782                 5.4790

 - Thermochemistry -
 -------------------
 Temperature   298.150 Kelvin.  Pressure   1.00000 Atm.
 Atom     1 has atomic number  6 and mass  12.00000

 Molecular mass:   226.06299 amu.
 Principal axes and moments of inertia in atomic units:
                           1         2         3
     Eigenvalues --  1550.852226883.113547738.31605
           X            0.94636   0.15418   0.28397
           Y           -0.20538  -0.39144   0.89699
           Z           -0.24946   0.90720   0.33877
 This molecule is an asymmetric top.
 Rotational symmetry number  1.
 Warning -- assumption of classical behavior for rotation
           may cause significant error
 Rotational temperatures (Kelvin)      0.05585     0.01258     0.01119
 Rotational constants (GHZ):           1.16371     0.26220     0.23322
 Zero-point vibrational energy     525797.2 (Joules/Mol)
                                  125.66854 (Kcal/Mol)
 Warning -- explicit consideration of  20 degrees of freedom as
           vibrations may cause significant error
 Vibrational temperatures:     42.58    63.93    87.74   148.46   183.70
          (Kelvin)            206.28   261.37   277.29   310.34   361.64
                              412.79   481.77   539.43   566.53   594.32
                              599.56   613.56   700.98   755.55   860.58
                              895.59   910.35   958.12   998.11  1008.98
                             1028.73  1046.33  1086.00  1142.67  1191.52
                             1219.31  1254.30  1295.82  1339.91  1350.65
                             1409.19  1415.58  1461.38  1462.80  1504.92
                             1514.05  1564.65  1589.11  1659.38  1688.94
                             1712.18  1722.62  1781.65  1831.25  1897.11
                             1918.47  1937.68  2009.06  2044.32  2100.37
                             2107.38  2117.58  2131.03  2181.84  2194.75
                             2233.89  2320.04  2349.38  2365.42  2388.11
                             4335.95  4402.04  4439.41  4510.49  4520.33
                             4540.18  4559.33  4568.83  4588.66  4603.61

 Zero-point correction=                           0.200266 (Hartree/Particle)
 Thermal correction to Energy=                    0.214648
 Thermal correction to Enthalpy=                  0.215592
 Thermal correction to Gibbs Free Energy=         0.157140
 Sum of electronic and zero-point Energies=           -765.249676
 Sum of electronic and thermal Energies=              -765.235294
 Sum of electronic and thermal Enthalpies=            -765.234350
 Sum of electronic and thermal Free Energies=         -765.292802

                     E (Thermal)             CV                S
                      KCal/Mol        Cal/Mol-Kelvin    Cal/Mol-Kelvin
 Total                  134.693             54.968            123.022
 Electronic               0.000              0.000              1.377
 Translational            0.889              2.981             42.149
 Rotational               0.889              2.981             32.779
 Vibrational            132.916             49.006             46.716
 Vibration     1          0.593              1.984              5.856
 Vibration     2          0.595              1.980              5.051
 Vibration     3          0.597              1.973              4.425
 Vibration     4          0.605              1.947              3.393
 Vibration     5          0.611              1.926              2.981
 Vibration     6          0.616              1.910              2.758
 Vibration     7          0.630              1.865              2.311
 Vibration     8          0.635              1.850              2.201
 Vibration     9          0.645              1.817              1.995
 Vibration    10          0.663              1.760              1.721
 Vibration    11          0.684              1.698              1.492
 Vibration    12          0.716              1.606              1.237
 Vibration    13          0.746              1.524              1.060
 Vibration    14          0.761              1.484              0.986
 Vibration    15          0.777              1.442              0.916
 Vibration    16          0.780              1.434              0.903
 Vibration    17          0.788              1.413              0.870
 Vibration    18          0.843              1.278              0.691
 Vibration    19          0.880              1.194              0.598
 Vibration    20          0.956              1.036              0.453

                           ! Non-Optimized Parameters !
 Normal termination of Gaussian 16 at Wed Dec 20 03:27:39 2023.
