 Gaussian 16, Revision A.03,
 Gaussian 16:  ES64L-G16RevA.03 25-Dec-2016

 ----------------------------------------------------------------
 #P UB3LYP/6-311++G(d,p) SCRF=(PCM,Solvent=n,n-DiMethylFormamide)
 ----------------------------------------------------------------

 ------------------
 Quinone PCM in DMF
 ------------------
 Symbolic Z-matrix:
 Charge =  0 Multiplicity = 1

                         Standard orientation:
 ---------------------------------------------------------------------
 Center     Atomic      Atomic             Coordinates (Angstroms)
 Number     Number       Type             X           Y           Z
 ---------------------------------------------------------------------
      1          6           0       -2.522974   -1.652723    0.110365
      2          6           0       -3.849675   -1.235640    0.110073
      3          6           0       -4.156300    0.124690    0.027323
      4          6           0       -1.494439   -0.709664    0.027159
      5          6           0       -1.803319    0.657406   -0.055778
      6          6           0       -3.136629    1.068408   -0.055222
      7          6           0       -0.080509   -1.177199    0.028787
      8          6           0        0.993108   -0.115400   -0.071815
      9          6           0        0.672374    1.199875   -0.141909
     10          6           0       -0.711132    1.676416   -0.144850
     11          8           0        0.218086   -2.351090    0.106359
     12          8           0       -0.964287    2.872275   -0.216374
     13          1           0       -2.262927   -2.702179    0.173873
     14          1           0       -3.350822    2.128130   -0.119906
     15          8           0        2.212203   -0.650633   -0.085722
     16          1           0       -4.646134   -1.968198    0.174222
     17          1           0       -5.191417    0.447072    0.027412
     18          1           0        1.420253    1.979229   -0.200800
     19          6           0        3.399057    0.186446   -0.179410
     20          6           0        4.480322   -0.705741   -0.768718
     21          6           0        3.758341    0.735283    1.197499
     22          1           0        3.181922    1.003860   -0.874579
     23          1           0        5.407420   -0.139266   -0.886873
     24          1           0        4.177753   -1.085636   -1.746158
     25          1           0        4.673091   -1.556890   -0.111552
     26          1           0        4.646002    1.368938    1.123541
     27          1           0        3.976975   -0.086430    1.883832
     28          1           0        2.950524    1.334016    1.621872
 ---------------------------------------------------------------------

 SCF Done:  E(UB3LYP) =  -728.488914474     A.U. after   15 cycles

 The electronic state is 1-A.
 Alpha  occ. eigenvalues --  -19.18387 -19.14319 -19.12766 -10.29251 -10.28079
 Alpha  occ. eigenvalues --  -10.27712 -10.24777 -10.21073 -10.20907 -10.20057
 Alpha  occ. eigenvalues --  -10.20004 -10.19873 -10.19836 -10.19624 -10.17067
 Alpha  occ. eigenvalues --  -10.16899  -1.10729  -1.07224  -1.06071  -0.89224
 Alpha  occ. eigenvalues --   -0.84080  -0.80581  -0.78049  -0.77025  -0.70513
 Alpha  occ. eigenvalues --   -0.70220  -0.65662  -0.65187  -0.60316  -0.59486
 Alpha  occ. eigenvalues --   -0.55415  -0.54826  -0.52750  -0.49886  -0.48398
 Alpha  occ. eigenvalues --   -0.47376  -0.46857  -0.45836  -0.45351  -0.45227
 Alpha  occ. eigenvalues --   -0.43971  -0.43670  -0.42143  -0.40953  -0.40183
 Alpha  occ. eigenvalues --   -0.39679  -0.38734  -0.38050  -0.37619  -0.37091
 Alpha  occ. eigenvalues --   -0.35304  -0.34547  -0.29239  -0.28947  -0.28052
 Alpha  occ. eigenvalues --   -0.27920  -0.26505
 Alpha virt. eigenvalues --   -0.12316  -0.05705  -0.02792  -0.00770   0.00013
 Alpha virt. eigenvalues --    0.01002   0.01556   0.01805   0.02010   0.02411
 Alpha virt. eigenvalues --    0.03668   0.03752   0.04112   0.04578   0.04715

  Beta  occ. eigenvalues --  -19.18387 -19.14319 -19.12766 -10.29251 -10.28079
  Beta  occ. eigenvalues --  -10.27712 -10.24777 -10.21073 -10.20907 -10.20057
  Beta  occ. eigenvalues --  -10.20004 -10.19873 -10.19836 -10.19624 -10.17067
  Beta  occ. eigenvalues --  -10.16899  -1.10729  -1.07224  -1.06071  -0.89224
  Beta  occ. eigenvalues --   -0.84080  -0.80581  -0.78049  -0.77025  -0.70513
  Beta  occ. eigenvalues --   -0.70220  -0.65662  -0.65187  -0.60316  -0.59486
  Beta  occ. eigenvalues --   -0.55415  -0.54826  -0.52750  -0.49886  -0.48398
  Beta  occ. eigenvalues --   -0.47376  -0.46857  -0.45836  -0.45351  -0.45227
  Beta  occ. eigenvalues --   -0.43971  -0.43670  -0.42143  -0.40953  -0.40183
  Beta  occ. eigenvalues --   -0.39679  -0.38734  -0.38050  -0.37619  -0.37091
  Beta  occ. eigenvalues --   -0.35304  -0.34547  -0.29239  -0.28947  -0.28052
  Beta  occ. eigenvalues --   -0.27920  -0.26505
  Beta virt. eigenvalues --   -0.12316  -0.05705  -0.02792  -0.00770   0.00013
  Beta virt. eigenvalues --    0.01002   0.01556   0.01805   0.02010   0.02411
  Beta virt. eigenvalues --    0.03668   0.03752   0.04112   0.04578   0.04715

 Mulliken charges and spin densities:
               1          2
     1  C    0.293263  -0.000000
     2  C   -0.417416   0.000000
     3  C   -0.334272   0.000000
     4  C    0.090671   0.000000
     5  C    0.557532  -0.000000
     6  C    0.216943  -0.000000
     7  C   -0.391898  -0.000000
     8  C   -0.389217  -0.000000
     9  C   -0.019029  -0.000000
    10  C   -0.268150   0.000000
    11  O   -0.274900   0.000000
    12  O   -0.310035  -0.000000
    13  H    0.183427   0.000000
    14  H    0.178449   0.000000
    15  O    0.008274   0.000000
    16  H    0.208177   0.000000
    17  H    0.210694  -0.000000
    18  H    0.260324   0.000000
    19  C   -0.041605  -0.000000
    20  C   -0.493725   0.000000
    21  C   -0.400498  -0.000000
    22  H    0.158350   0.000000
    23  H    0.170717   0.000000
    24  H    0.162602  -0.000000
    25  H    0.156929  -0.000000
    26  H    0.164775  -0.000000
    27  H    0.176118   0.000000
    28  H    0.143498   0.000000
 Sum of Mulliken charges =  -0.00000  -0.00000

 Dipole moment (field-independent basis, Debye):
    X=              0.7835    Y=             -0.0860    Z=              0.0440  Tot=              0.7894
 Quadrupole moment (field-independent basis, Debye-Ang):
   XX=            -61.9566   YY=           -111.7811   ZZ=            -94.4573
   XY=             11.8761   XZ=             -1.3113   YZ=              1.0338

 Normal termination of Gaussian 16 at Sun Jan 21 08:05:07 2024.
