 Gaussian 16, Revision A.03,
 Gaussian 16:  ES64L-G16RevA.03 25-Dec-2016

 ----------------------------------------------
 #P UB3LYP/6-311++G(d,p) nosym opt freq SCF=YQC
 ----------------------------------------------

 -------
 Reduced
 -------
 Symbolic Z-matrix:
 Charge = -2 Multiplicity = 1

 SCF Done:  E(UB3LYP) =  -914.607323391     a.u. after    8 cycles
 SCF Done:  E(UB3LYP) =  -914.613781768     A.U. after   33 cycles
 SCF Done:  E(UB3LYP) =  -914.613997093     a.u. after    5 cycles
 SCF Done:  E(UB3LYP) =  -914.657734827     a.u. after   22 cycles
 SCF Done:  E(UB3LYP) =  -914.658127671     A.U. after   33 cycles
 SCF Done:  E(UB3LYP) =  -914.658127671     a.u. after    1 cycles
 SCF Done:  E(UB3LYP) =  -914.681057275     a.u. after   35 cycles
 SCF Done:  E(UB3LYP) =  -914.682944861     A.U. after   20 cycles
 SCF Done:  E(UB3LYP) =  -914.689671064     a.u. after   41 cycles
 SCF Done:  E(UB3LYP) =  -914.689743977     A.U. after   17 cycles
 SCF Done:  E(UB3LYP) =  -914.714868785     a.u. after    3 cycles
 SCF Done:  E(UB3LYP) =  -914.714907836     A.U. after   14 cycles
 SCF Done:  E(UB3LYP) =  -914.714859326     a.u. after    1 cycles
 SCF Done:  E(UB3LYP) =  -914.714910720     A.U. after   14 cycles
 SCF Done:  E(UB3LYP) =  -914.714867195     a.u. after    1 cycles
 SCF Done:  E(UB3LYP) =  -914.714912703     A.U. after   14 cycles
 SCF Done:  E(UB3LYP) =  -914.714867400     a.u. after    1 cycles
 SCF Done:  E(UB3LYP) =  -914.714913983     A.U. after   14 cycles
 Optimization completed.
    -- Stationary point found.
 Normal termination of Gaussian 16 at Fri Dec 22 08:45:29 2023.

 ----------------------------------------------------------------------
 #P Geom=AllCheck Guess=TCheck SCRF=Check GenChk UB3LYP/6-311++G(d,p) F
 req
 ----------------------------------------------------------------------

 Structure from the checkpoint file:  "199-an.chk"
 -------
 Reduced
 -------
 Charge = -2 Multiplicity = 1

                          Input orientation:
 ---------------------------------------------------------------------
 Center     Atomic      Atomic             Coordinates (Angstroms)
 Number     Number       Type             X           Y           Z
 ---------------------------------------------------------------------
      1          8           0       -4.354723    1.009328   -1.610884
      2          6           0       -3.184357    0.574791   -0.972054
      3          6           0       -1.935812    0.987147   -1.395618
      4          6           0       -0.757618    0.542297   -0.743052
      5          6           0        0.536951    1.005731   -1.227380
      6          8           0        0.639421    1.800675   -2.222401
      7          6           0        1.687618    0.503574   -0.504590
      8          6           0        2.987353    0.894739   -0.896982
      9          6           0        4.127164    0.453610   -0.251931
     10          6           0        3.996667   -0.434845    0.858533
     11          6           0        2.754806   -0.844685    1.278930
     12          6           0        1.553742   -0.404410    0.630349
     13          6           0        0.290236   -0.815037    1.050227
     14          8           0        0.170316   -1.678268    2.128736
     15          6           0       -0.869336   -0.351886    0.376298
     16          6           0       -2.184892   -0.773595    0.806683
     17          8           0       -2.395926   -1.590389    1.820108
     18          6           0       -3.311077   -0.296007    0.117618
     19          8           0       -4.535205   -0.744204    0.588378
     20          1           0       -4.056520    1.589373   -2.318526
     21          1           0       -1.814455    1.662718   -2.238627
     22          1           0        3.047500    1.570789   -1.745027
     23          1           0        5.112248    0.776276   -0.582249
     24          1           0        4.887306   -0.789834    1.375423
     25          1           0        2.652715   -1.519687    2.122383
     26          1           0       -0.813851   -1.815373    2.226377
     27          1           0       -4.230271   -1.312829    1.329275
 ---------------------------------------------------------------------

 SCF Done:  E(UB3LYP) =  -914.714913983     a.u. after    1 cycles
 SCF Done:  E(UB3LYP) =  -914.714913983     A.U. after    1 cycles

 Alpha  occ. eigenvalues --  -18.92388 -18.89396 -18.86401 -18.82038 -18.79059
 Alpha  occ. eigenvalues --   -9.98147  -9.96143  -9.95755  -9.95195  -9.95053
 Alpha  occ. eigenvalues --   -9.93729  -9.92997  -9.92900  -9.92668  -9.91657
 Alpha  occ. eigenvalues --   -9.91415  -9.90832  -9.90753  -9.90500  -0.82700
 Alpha  occ. eigenvalues --   -0.80221  -0.77423  -0.71669  -0.70963  -0.60555
 Alpha  occ. eigenvalues --   -0.58235  -0.53223  -0.50484  -0.48012  -0.46884
 Alpha  occ. eigenvalues --   -0.41876  -0.39424  -0.36745  -0.34878  -0.32041
 Alpha  occ. eigenvalues --   -0.29971  -0.27906  -0.27260  -0.25374  -0.24937
 Alpha  occ. eigenvalues --   -0.22509  -0.19987  -0.18993  -0.18431  -0.18098
 Alpha  occ. eigenvalues --   -0.17842  -0.16025  -0.15281  -0.15089  -0.13731
 Alpha  occ. eigenvalues --   -0.13355  -0.12870  -0.12358  -0.11037  -0.10558
 Alpha  occ. eigenvalues --   -0.09908  -0.09220  -0.07654  -0.07637  -0.03905
 Alpha  occ. eigenvalues --   -0.01598  -0.00482  -0.00329   0.02803   0.03539
 Alpha  occ. eigenvalues --    0.05829   0.11549
 Alpha virt. eigenvalues --    0.15760   0.16936   0.17449   0.19479   0.19916
 Alpha virt. eigenvalues --    0.20310   0.20886   0.22217   0.23480   0.23944
 Alpha virt. eigenvalues --    0.24899   0.25486   0.25682   0.26481   0.26995

  Beta  occ. eigenvalues --  -18.92388 -18.89396 -18.86401 -18.82038 -18.79059
  Beta  occ. eigenvalues --   -9.98147  -9.96143  -9.95755  -9.95195  -9.95053
  Beta  occ. eigenvalues --   -9.93729  -9.92997  -9.92900  -9.92668  -9.91657
  Beta  occ. eigenvalues --   -9.91415  -9.90832  -9.90753  -9.90500  -0.82700
  Beta  occ. eigenvalues --   -0.80221  -0.77423  -0.71669  -0.70963  -0.60555
  Beta  occ. eigenvalues --   -0.58235  -0.53223  -0.50484  -0.48012  -0.46884
  Beta  occ. eigenvalues --   -0.41876  -0.39424  -0.36745  -0.34878  -0.32041
  Beta  occ. eigenvalues --   -0.29971  -0.27906  -0.27260  -0.25374  -0.24937
  Beta  occ. eigenvalues --   -0.22509  -0.19987  -0.18993  -0.18431  -0.18098
  Beta  occ. eigenvalues --   -0.17842  -0.16025  -0.15281  -0.15089  -0.13731
  Beta  occ. eigenvalues --   -0.13355  -0.12870  -0.12358  -0.11037  -0.10558
  Beta  occ. eigenvalues --   -0.09908  -0.09220  -0.07654  -0.07637  -0.03905
  Beta  occ. eigenvalues --   -0.01598  -0.00482  -0.00329   0.02803   0.03539
  Beta  occ. eigenvalues --    0.05829   0.11549
  Beta virt. eigenvalues --    0.15760   0.16936   0.17449   0.19479   0.19916
  Beta virt. eigenvalues --    0.20310   0.20886   0.22217   0.23480   0.23944
  Beta virt. eigenvalues --    0.24899   0.25486   0.25682   0.26481   0.26995

 Mulliken charges and spin densities:
               1          2
     1  O   -0.310244   0.000000
     2  C   -0.250320   0.000000
     3  C   -0.129702   0.000000
     4  C    0.977277   0.000000
     5  C   -0.861654  -0.000000
     6  O   -0.482934   0.000000
     7  C    0.032833  -0.000000
     8  C   -0.032435   0.000000
     9  C   -0.485825  -0.000000
    10  C   -0.435733  -0.000000
    11  C   -0.150425   0.000000
    12  C    0.284941  -0.000000
    13  C   -0.000809   0.000000
    14  O   -0.459100   0.000000
    15  C    0.809507   0.000000
    16  C   -0.777075  -0.000000
    17  O   -0.601415   0.000000
    18  C   -0.128803  -0.000000
    19  O   -0.350705   0.000000
    20  H    0.236794  -0.000000
    21  H    0.088774   0.000000
    22  H    0.124637  -0.000000
    23  H    0.074729   0.000000
    24  H    0.074020   0.000000
    25  H    0.114690  -0.000000
    26  H    0.377817  -0.000000
    27  H    0.261159   0.000000
 Sum of Mulliken charges =  -2.00000   0.00000

 Dipole moment (field-independent basis, Debye):
    X=              3.7610    Y=              0.2128    Z=              0.0278  Tot=              3.7671
 Quadrupole moment (field-independent basis, Debye-Ang):
   XX=           -199.9333   YY=           -136.6885   ZZ=           -144.0911
   XY=             -9.7413   XZ=              6.2256   YZ=             18.1030

  Exact polarizability: 383.184   4.152 167.564  15.360 -62.606 197.820
 Approx polarizability: 622.448   7.551 290.972  24.856-140.884 358.462

                      1                      2                      3
                      A                      A                      A
 Frequencies --     53.0728                80.6530               128.6414
 Red. masses --      7.4055                 7.0857                 5.6269
 Frc consts  --      0.0123                 0.0272                 0.0549
 IR Inten    --      2.3787                 1.4600                 1.5526

                      4                      5                      6
                      A                      A                      A
 Frequencies --    140.4622               159.8648               171.3362
 Red. masses --      4.1824                 2.9230                 2.4008
 Frc consts  --      0.0486                 0.0440                 0.0415
 IR Inten    --      2.5281                11.8014                38.9864

                      7                      8                      9
                      A                      A                      A
 Frequencies --    189.1013               205.3982               280.3000
 Red. masses --      6.2089                 3.8424                 6.4527
 Frc consts  --      0.1308                 0.0955                 0.2987
 IR Inten    --      5.7961                15.3735                13.2143

                     10                     11                     12
                      A                      A                      A
 Frequencies --    288.3412               290.0060               331.0657
 Red. masses --      6.0948                 6.4583                 9.0804
 Frc consts  --      0.2986                 0.3200                 0.5864
 IR Inten    --      3.8548                 1.0623                14.9189

                     13                     14                     15
                      A                      A                      A
 Frequencies --    344.1630               356.3262               371.7307
 Red. masses --      6.0584                 8.4403                 7.9413
 Frc consts  --      0.4228                 0.6314                 0.6465
 IR Inten    --      0.8735                 7.7666                 3.1157

                     16                     17                     18
                      A                      A                      A
 Frequencies --    395.8410               398.9196               449.1057
 Red. masses --      7.4476                 8.1690                 3.2165
 Frc consts  --      0.6876                 0.7659                 0.3822
 IR Inten    --      0.0450                29.0234                 6.9890

                     19                     20                     21
                      A                      A                      A
 Frequencies --    486.8980               520.9640               526.8331
 Red. masses --     12.0806                 7.3507                 5.5173
 Frc consts  --      1.6874                 1.1754                 0.9022
 IR Inten    --      2.2799                 4.9147                 3.2370

                     22                     23                     24
                      A                      A                      A
 Frequencies --    539.1363               552.1186               607.7461
 Red. masses --     11.7375                 3.9452                 7.6107
 Frc consts  --      2.0101                 0.7086                 1.6562
 IR Inten    --      8.9648                 0.1339                 3.8187

                     25                     26                     27
                      A                      A                      A
 Frequencies --    614.2819               651.8303               658.3292
 Red. masses --      5.0049                 6.8165                 1.4898
 Frc consts  --      1.1127                 1.7064                 0.3804
 IR Inten    --      2.8160                20.1224                29.5931

                     28                     29                     30
                      A                      A                      A
 Frequencies --    685.1812               689.0535               697.8596
 Red. masses --      1.4507                 4.7282                 4.0054
 Frc consts  --      0.4013                 1.3227                 1.1493
 IR Inten    --    155.4538                 9.6339                 0.6734

                     31                     32                     33
                      A                      A                      A
 Frequencies --    719.6900               731.2716               755.2102
 Red. masses --      2.2612                 7.5713                 1.6903
 Frc consts  --      0.6901                 2.3855                 0.5680
 IR Inten    --      1.5493                 9.9712                 0.0007

                     34                     35                     36
                      A                      A                      A
 Frequencies --    780.1125               799.6446               805.4427
 Red. masses --      1.7873                 7.7217                 4.4030
 Frc consts  --      0.6409                 2.9091                 1.6829
 IR Inten    --     24.4098                88.2337                 0.0283

                     37                     38                     39
                      A                      A                      A
 Frequencies --    855.5331               883.2238               928.6923
 Red. masses --      1.0556                 6.8860                 1.2470
 Frc consts  --      0.4552                 3.1649                 0.6337
 IR Inten    --     60.1962                 6.6695                 0.6060

                     40                     41                     42
                      A                      A                      A
 Frequencies --    954.7279               985.7281              1011.0439
 Red. masses --      1.3163                 5.7133                 2.1685
 Frc consts  --      0.7069                 3.2708                 1.3060
 IR Inten    --      1.7354                74.4269               113.8745

                     43                     44                     45
                      A                      A                      A
 Frequencies --   1053.0803              1066.8957              1113.2198
 Red. masses --      7.1726                 5.2536                 2.0677
 Frc consts  --      4.6865                 3.5233                 1.5097
 IR Inten    --    196.6984                49.8006                27.2581

                     46                     47                     48
                      A                      A                      A
 Frequencies --   1127.3690              1140.3785              1176.4438
 Red. masses --      2.7475                 1.3887                 1.4924
 Frc consts  --      2.0574                 1.0640                 1.2169
 IR Inten    --    114.5785                37.3415                20.5265

                     49                     50                     51
                      A                      A                      A
 Frequencies --   1201.4910              1257.2993              1263.0922
 Red. masses --      2.0571                 2.0781                 2.2873
 Frc consts  --      1.7496                 1.9355                 2.1501
 IR Inten    --     28.7553               374.1018               109.9780

                     52                     53                     54
                      A                      A                      A
 Frequencies --   1276.3582              1328.9496              1350.4061
 Red. masses --      2.9026                 5.4800                 3.8010
 Frc consts  --      2.7860                 5.7023                 4.0840
 IR Inten    --    117.4796               123.3304               111.3410

                     55                     56                     57
                      A                      A                      A
 Frequencies --   1366.1492              1385.9078              1412.2892
 Red. masses --      4.8285                 5.4539                 2.7550
 Frc consts  --      5.3096                 6.1721                 3.2376
 IR Inten    --    104.6879               123.8257               269.7498

                     58                     59                     60
                      A                      A                      A
 Frequencies --   1432.9856              1449.6037              1488.2811
 Red. masses --      2.6464                 3.0226                 2.9313
 Frc consts  --      3.2017                 3.7422                 3.8254
 IR Inten    --    574.8821               433.8043               233.7294

                     61                     62                     63
                      A                      A                      A
 Frequencies --   1495.2553              1496.8879              1543.5770
 Red. masses --      3.9044                 4.3961                 4.8563
 Frc consts  --      5.1432                 5.8036                 6.8173
 IR Inten    --    114.5616               207.9373                 2.8022

                     64                     65                     66
                      A                      A                      A
 Frequencies --   1596.4039              1605.3768              1615.1529
 Red. masses --      5.1796                 5.6983                 3.6209
 Frc consts  --      7.7774                 8.6527                 5.5654
 IR Inten    --     65.1368                17.0609                47.3981

                     67                     68                     69
                      A                      A                      A
 Frequencies --   1638.5975              3091.7215              3113.7161
 Red. masses --      2.5355                 1.0830                 1.0732
 Frc consts  --      4.0110                 6.0993                 6.1302
 IR Inten    --     11.1972                48.1677               635.8727

                     70                     71                     72
                      A                      A                      A
 Frequencies --   3118.1241              3137.5093              3153.9646
 Red. masses --      1.0881                 1.0882                 1.0909
 Frc consts  --      6.2331                 6.3113                 6.3939
 IR Inten    --     11.1107                57.8171                37.9335

                     73                     74                     75
                      A                      A                      A
 Frequencies --   3163.0467              3485.4865              3828.4025
 Red. masses --      1.0912                 1.0636                 1.0654
 Frc consts  --      6.4323                 7.6133                 9.2000
 IR Inten    --     48.7521                59.2779                11.8977

 - Thermochemistry -
 -------------------
 Temperature   298.150 Kelvin.  Pressure   1.00000 Atm.
 Atom     1 has atomic number  8 and mass  15.99491

 Molecular mass:   256.03717 amu.
 Principal axes and moments of inertia in atomic units:
                           1         2         3
     Eigenvalues --  2351.548396570.532428922.08060
           X            0.99858  -0.02288  -0.04807
           Y            0.02343  -0.62194   0.78272
           Z            0.04780   0.78273   0.62052
 This molecule is an asymmetric top.
 Rotational symmetry number  1.
 Warning -- assumption of classical behavior for rotation
           may cause significant error
 Rotational temperatures (Kelvin)      0.03683     0.01318     0.00971
 Rotational constants (GHZ):           0.76747     0.27467     0.20228
 Zero-point vibrational energy     490757.8 (Joules/Mol)
                                  117.29394 (Kcal/Mol)
 Warning -- explicit consideration of  25 degrees of freedom as
           vibrations may cause significant error
 Vibrational temperatures:     76.36   116.04   185.09   202.09   230.01
          (Kelvin)            246.51   272.07   295.52   403.29   414.86
                              417.25   476.33   495.17   512.67   534.84
                              569.53   573.96   646.16   700.54   749.55
                              758.00   775.70   794.38   874.41   883.81
                              937.84   947.19   985.82   991.39  1004.06
                             1035.47  1052.14  1086.58  1122.41  1150.51
                             1158.85  1230.92  1270.76  1336.18  1373.64
                             1418.24  1454.67  1515.15  1535.02  1601.68
                             1622.03  1640.75  1692.64  1728.68  1808.97
                             1817.31  1836.39  1912.06  1942.93  1965.58
                             1994.01  2031.97  2061.75  2085.66  2141.30
                             2151.34  2153.69  2220.86  2296.87  2309.78
                             2323.84  2357.58  4448.30  4479.94  4486.29
                             4514.18  4537.85  4550.92  5014.84  5508.22

 Zero-point correction=                           0.186920 (Hartree/Particle)
 Thermal correction to Energy=                    0.201769
 Thermal correction to Enthalpy=                  0.202713
 Thermal correction to Gibbs Free Energy=         0.145813
 Sum of electronic and zero-point Energies=           -914.527994
 Sum of electronic and thermal Energies=              -914.513145
 Sum of electronic and thermal Enthalpies=            -914.512201
 Sum of electronic and thermal Free Energies=         -914.569101

                     E (Thermal)             CV                S
                      KCal/Mol        Cal/Mol-Kelvin    Cal/Mol-Kelvin
 Total                  126.612             59.866            119.756
 Electronic               0.000              0.000              0.000
 Translational            0.889              2.981             42.520
 Rotational               0.889              2.981             33.288
 Vibrational            124.834             53.905             43.947
 Vibration     1          0.596              1.976              4.699
 Vibration     2          0.600              1.962              3.875
 Vibration     3          0.611              1.925              2.966
 Vibration     4          0.615              1.913              2.798
 Vibration     5          0.622              1.892              2.551
 Vibration     6          0.626              1.878              2.421
 Vibration     7          0.633              1.855              2.237
 Vibration     8          0.640              1.832              2.084
 Vibration     9          0.680              1.710              1.532
 Vibration    10          0.685              1.695              1.484
 Vibration    11          0.686              1.692              1.474
 Vibration    12          0.713              1.613              1.255
 Vibration    13          0.723              1.587              1.193
 Vibration    14          0.732              1.562              1.138
 Vibration    15          0.743              1.530              1.073
 Vibration    16          0.763              1.479              0.978
 Vibration    17          0.765              1.472              0.967
 Vibration    18          0.808              1.363              0.798
 Vibration    19          0.843              1.279              0.692
 Vibration    20          0.876              1.204              0.608
 Vibration    21          0.882              1.191              0.594
 Vibration    22          0.894              1.164              0.567
 Vibration    23          0.907              1.135              0.540
 Vibration    24          0.967              1.015              0.437
 Vibration    25          0.974              1.002              0.426

 Optimization completed.
    -- Stationary point found.
 Normal termination of Gaussian 16 at Fri Dec 22 09:51:15 2023.
