 Q-Chem 5.4, Q-Chem, Inc., Pleasanton, CA (2021)
 Q-Chem 5.4.0 for Intel X86 EM64T Linux

User input:
--------------------------------------------------------------
$molecule
0 1
Br                -1.6035740000      2.5479510000      1.3449810000
C                 -0.7747680000      1.0562010000      0.5049100000
C                 -1.4771220000      0.0518120000     -0.0572180000
C                 -0.7262620000     -1.0400130000     -0.7750530000
O                 -1.3269220000     -1.9461160000     -1.3106010000
C                  0.7692750000     -0.9700100000     -0.8080620000
C                  1.4734110000      0.0063010000     -0.2005050000
C                  0.7218020000      1.1103830000      0.4975010000
O                  1.3225150000      2.0157900000      1.0341660000
C                  2.9547030000      0.0939180000     -0.1584770000
C                  3.6171320000      1.1924880000     -0.7190060000
C                  5.0058130000      1.2710280000     -0.6769350000
C                  5.7461660000      0.2687620000     -0.0523950000
C                  5.0916870000     -0.8175980000      0.5254680000
C                  3.7041550000     -0.9086350000      0.4677080000
Br                 1.5914560000     -2.3589840000     -1.8143010000
C                 -2.9558120000     -0.0769770000     -0.0331360000
C                 -3.6866730000     -0.0913820000     -1.2270810000
C                 -5.0725490000     -0.2137500000     -1.2002490000
C                 -5.7409900000     -0.3496650000      0.0152440000
C                 -5.0175150000     -0.3562780000      1.2064560000
C                 -3.6332300000     -0.2144160000      1.1838570000
H                  3.0472600000      1.9831010000     -1.1913940000
H                  5.5084180000      2.1207760000     -1.1243910000
H                  6.8273940000      0.3363740000     -0.0121450000
H                  5.6603760000     -1.5961990000      1.0208360000
H                  3.2000230000     -1.7561030000      0.9166920000
H                 -3.1723080000     -0.0028790000     -2.1760700000
H                 -5.6289000000     -0.2122890000     -2.1305000000
H                 -6.8198320000     -0.4545940000      0.0337240000
H                 -5.5298000000     -0.4706670000      2.1548710000
H                 -3.0753260000     -0.2183310000      2.1126530000
$end
$rem
MAX_SCF_CYCLES=200
BASIS  =  6-311++G(d,p)
GUI  =  2
JOB_TYPE  =  SP
METHOD  =  B3LYP
SOLVENT_METHOD = PCM
$end
$pcm
theory = CPCM
$end
$solvent
dielectric 37.219
opticaldielectric 1.43
$end

--------------------------------------------------------------

             Standard Nuclear Orientation (Angstroms)
    I     Atom           X                Y                Z
 ----------------------------------------------------------------
    1      Br     -1.6035740000     2.5479510000     1.3449810000
    2      C      -0.7747680000     1.0562010000     0.5049100000
    3      C      -1.4771220000     0.0518120000    -0.0572180000
    4      C      -0.7262620000    -1.0400130000    -0.7750530000
    5      O      -1.3269220000    -1.9461160000    -1.3106010000
    6      C       0.7692750000    -0.9700100000    -0.8080620000
    7      C       1.4734110000     0.0063010000    -0.2005050000
    8      C       0.7218020000     1.1103830000     0.4975010000
    9      O       1.3225150000     2.0157900000     1.0341660000
   10      C       2.9547030000     0.0939180000    -0.1584770000
   11      C       3.6171320000     1.1924880000    -0.7190060000
   12      C       5.0058130000     1.2710280000    -0.6769350000
   13      C       5.7461660000     0.2687620000    -0.0523950000
   14      C       5.0916870000    -0.8175980000     0.5254680000
   15      C       3.7041550000    -0.9086350000     0.4677080000
   16      Br      1.5914560000    -2.3589840000    -1.8143010000
   17      C      -2.9558120000    -0.0769770000    -0.0331360000
   18      C      -3.6866730000    -0.0913820000    -1.2270810000
   19      C      -5.0725490000    -0.2137500000    -1.2002490000
   20      C      -5.7409900000    -0.3496650000     0.0152440000
   21      C      -5.0175150000    -0.3562780000     1.2064560000
   22      C      -3.6332300000    -0.2144160000     1.1838570000
   23      H       3.0472600000     1.9831010000    -1.1913940000
   24      H       5.5084180000     2.1207760000    -1.1243910000
   25      H       6.8273940000     0.3363740000    -0.0121450000
   26      H       5.6603760000    -1.5961990000     1.0208360000
   27      H       3.2000230000    -1.7561030000     0.9166920000
   28      H      -3.1723080000    -0.0028790000    -2.1760700000
   29      H      -5.6289000000    -0.2122890000    -2.1305000000
   30      H      -6.8198320000    -0.4545940000     0.0337240000
   31      H      -5.5298000000    -0.4706670000     2.1548710000
   32      H      -3.0753260000    -0.2183310000     2.1126530000
 ----------------------------------------------------------------

    9   -5990.8669453578      2.36e-06  Convergence criterion met
 Total energy in the final basis set =    -5990.8669453578

                    Orbital Energies (a.u.)
 --------------------------------------------------------------

 Alpha MOs
 -- Occupied --
********-482.8505 -62.5033 -62.5033 -56.3239 -56.3239 -56.3200 -56.3200
-56.3196 -56.3195 -19.1554 -19.1554 -10.3084 -10.3084 -10.2697 -10.2697
-10.2399 -10.2399 -10.2055 -10.2055 -10.1886 -10.1885 -10.1883 -10.1883
-10.1850 -10.1849 -10.1837 -10.1837 -10.1836 -10.1835  -8.7121  -8.7121
 -6.5440  -6.5439  -6.5310  -6.5309  -6.5296  -6.5296  -2.6551  -2.6548
 -2.6514  -2.6512  -2.6502  -2.6501  -2.6400  -2.6400  -2.6399  -2.6399
 -1.0933  -1.0914  -0.9038  -0.8857  -0.8676  -0.8537  -0.8065  -0.7963
 -0.7697  -0.7605  -0.7604  -0.7367  -0.7053  -0.6618  -0.6244  -0.6209
 -0.6134  -0.6033  -0.5908  -0.5548  -0.5372  -0.5333  -0.5000  -0.4871
 -0.4825  -0.4755  -0.4691  -0.4661  -0.4551  -0.4425  -0.4411  -0.4407
 -0.4370  -0.4320  -0.4316  -0.4191  -0.3851  -0.3829  -0.3691  -0.3658
 -0.3634  -0.3597  -0.3550  -0.3504  -0.3142  -0.3134  -0.3093  -0.3011
 -0.2929  -0.2871  -0.2678  -0.2675  -0.2631  -0.2579

          Ground-State Mulliken Net Atomic Charges

     Atom                 Charge (a.u.)
  ----------------------------------------
      1 Br                   -0.061322
      2 C                    -0.314117
      3 C                     1.004692
      4 C                    -1.112577
      5 O                    -0.169510
      6 C                    -0.312134
      7 C                     1.003763
      8 C                    -1.118199
      9 O                    -0.169562
     10 C                     1.356739
     11 C                    -0.220020
     12 C                    -0.312263
     13 C                    -0.398615
     14 C                    -0.405672
     15 C                    -0.501489
     16 Br                   -0.062591
     17 C                     1.354713
     18 C                    -0.209000
     19 C                    -0.312872
     20 C                    -0.398086
     21 C                    -0.406094
     22 C                    -0.505401
     23 H                     0.251908
     24 H                     0.220556
     25 H                     0.204762
     26 H                     0.221491
     27 H                     0.235938
     28 H                     0.251930
     29 H                     0.220678
     30 H                     0.204791
     31 H                     0.221466
     32 H                     0.236062
  ----------------------------------------
  Sum of atomic charges =    -0.000033

                    Cartesian Multipole Moments
 -----------------------------------------------------------------
    Charge (ESU x 10^10)
                -0.0002
    Dipole Moment (Debye)
         X       0.0048      Y      -0.1112      Z       0.1741
       Tot       0.2067
    Quadrupole Moments (Debye-Ang)
        XX    -122.5668     XY      -5.3822     YY    -161.5876
        XZ      -4.0781     YZ     -12.2061     ZZ    -148.8949

 Total job time:  88.35s(wall), 650.16s(cpu)
        *  Thank you very much for using Q-Chem.  Have a nice day.  *
