 Gaussian 16, Revision A.03,
 Gaussian 16:  ES64L-G16RevA.03 25-Dec-2016

 ----------------------------------------------------------------------
 #P UB3LYP/6-311++G(d,p) nosym opt freq SCRF=(PCM,Solvent=n,n-DiMethylF
 ormamide)
 ----------------------------------------------------------------------

 -------
 Radical
 -------
 Symbolic Z-matrix:
 Charge = -1 Multiplicity = 2

 SCF Done:  E(UB3LYP) =  -8338.30108684     A.U. after   19 cycles
 SCF Done:  E(UB3LYP) =  -8338.30126686     A.U. after   15 cycles
 SCF Done:  E(UB3LYP) =  -8338.30128908     A.U. after   14 cycles
 SCF Done:  E(UB3LYP) =  -8338.30129878     A.U. after   13 cycles
 SCF Done:  E(UB3LYP) =  -8338.30130054     A.U. after   11 cycles
 SCF Done:  E(UB3LYP) =  -8338.30130090     A.U. after   10 cycles
 Optimization completed.
    -- Stationary point found.
 Normal termination of Gaussian 16 at Sat Feb 10 10:55:01 2024.

 ----------------------------------------------------------------------
 #P Geom=AllCheck Guess=TCheck SCRF=Check GenChk UB3LYP/6-311++G(d,p) F
 req
 ----------------------------------------------------------------------

 Structure from the checkpoint file:  "027-rad.chk"
 -------
 Radical
 -------
 Charge = -1 Multiplicity = 2

                          Input orientation:
 ---------------------------------------------------------------------
 Center     Atomic      Atomic             Coordinates (Angstroms)
 Number     Number       Type             X           Y           Z
 ---------------------------------------------------------------------
      1          6           0        0.626680   -1.707703   -0.967704
      2          6           0       -0.520098   -1.128386   -0.284564
      3          6           0       -0.427456    0.024456    0.452614
      4          6           0        0.824802    0.754904    0.608773
      5          6           0        1.951957    0.150552   -0.087055
      6          6           0        1.900652   -0.992568   -0.837260
      7          8           0        0.541979   -2.764901   -1.639878
      8          8           0        0.913542    1.806372    1.281637
      9         35           0       -2.166079   -2.086030   -0.483786
     10         35           0       -1.932470    0.791361    1.352515
     11         35           0        3.615612    1.112858    0.122806
     12          6           0        3.086787   -1.607474   -1.535178
     13          6           0        3.830864   -2.638289   -0.661874
     14          6           0        5.015741   -3.282754   -1.389197
     15          6           0        5.763144   -4.315755   -0.538423
     16          6           0        6.949306   -4.964703   -1.261032
     17          6           0        7.687599   -5.997981   -0.404577
     18          1           0        3.783240   -0.823522   -1.839597
     19          1           0        2.727570   -2.107484   -2.437269
     20          1           0        3.125435   -3.415935   -0.349655
     21          1           0        4.184980   -2.148548    0.252326
     22          1           0        5.716335   -2.499006   -1.705358
     23          1           0        4.657130   -3.762779   -2.308858
     24          1           0        5.062012   -5.099174   -0.222318
     25          1           0        6.121058   -3.836333    0.382096
     26          1           0        7.651327   -4.182591   -1.575087
     27          1           0        6.592295   -5.442320   -2.181660
     28          1           0        8.085639   -5.542199    0.507827
     29          1           0        8.526787   -6.441625   -0.948078
     30          1           0        7.018861   -6.810941   -0.103714
 ---------------------------------------------------------------------

 SCF Done:  E(UB3LYP) =  -8338.30130090     A.U. after    1 cycles

 Alpha  occ. eigenvalues -- -482.83322-482.83259-482.82731 -62.48595 -62.48532
 Alpha  occ. eigenvalues --  -62.48011 -56.30632 -56.30568 -56.30260 -56.30217
 Alpha  occ. eigenvalues --  -56.30198 -56.30155 -56.30036 -56.29676 -56.29641
 Alpha  occ. eigenvalues --  -19.09423 -19.09378 -10.25068 -10.24536 -10.23666
 Alpha  occ. eigenvalues --  -10.23516 -10.22796 -10.19497 -10.16744 -10.16265
 Alpha  occ. eigenvalues --  -10.16065 -10.15947 -10.15855 -10.15423  -8.69563
 Alpha  occ. eigenvalues --   -8.69500  -8.68978  -6.52705  -6.52637  -6.52080
 Alpha  occ. eigenvalues --   -6.51458  -6.51399  -6.51338  -6.51277  -6.50882
 Alpha  occ. eigenvalues --   -6.50784  -2.63800  -2.63734  -2.63464  -2.63399
 Alpha  occ. eigenvalues --   -2.63373  -2.63308  -2.63181  -2.62855  -2.62782
 Alpha  occ. eigenvalues --   -2.62379  -2.62377  -2.62320  -2.62319  -2.61827
 Alpha  occ. eigenvalues --   -2.61827  -1.02451  -1.02049  -0.87188  -0.83959
 Alpha  occ. eigenvalues --   -0.80476  -0.79743  -0.78018  -0.76829  -0.73385
 Alpha  occ. eigenvalues --   -0.69673  -0.68488  -0.64222  -0.59257  -0.57887
 Alpha  occ. eigenvalues --   -0.57453  -0.56668  -0.52130  -0.47669  -0.46808
 Alpha  occ. eigenvalues --   -0.44522  -0.44415  -0.43978  -0.42919  -0.42132
 Alpha  occ. eigenvalues --   -0.41364  -0.40729  -0.40052  -0.39632  -0.38725
 Alpha  occ. eigenvalues --   -0.38397  -0.37345  -0.35247  -0.34997  -0.34419
 Alpha  occ. eigenvalues --   -0.33146  -0.32611  -0.32325  -0.31959  -0.31332
 Alpha  occ. eigenvalues --   -0.30827  -0.30703  -0.28936  -0.28234  -0.27570
 Alpha  occ. eigenvalues --   -0.26414  -0.25181  -0.24525  -0.17751
 Alpha virt. eigenvalues --   -0.04111  -0.02793  -0.01348  -0.00160   0.00380
 Alpha virt. eigenvalues --    0.00975   0.01118   0.01259   0.01547   0.02052
 Alpha virt. eigenvalues --    0.02679   0.02960   0.03766   0.04222   0.04425

  Beta  occ. eigenvalues -- -482.83321-482.83257-482.82731 -62.48594 -62.48531
  Beta  occ. eigenvalues --  -62.48010 -56.30634 -56.30569 -56.30253 -56.30217
  Beta  occ. eigenvalues --  -56.30191 -56.30154 -56.30037 -56.29674 -56.29641
  Beta  occ. eigenvalues --  -19.08761 -19.08675 -10.24938 -10.24409 -10.23525
  Beta  occ. eigenvalues --  -10.23374 -10.22728 -10.19378 -10.16753 -10.16254
  Beta  occ. eigenvalues --  -10.16065 -10.15946 -10.15855 -10.15422  -8.69561
  Beta  occ. eigenvalues --   -8.69498  -8.68977  -6.52708  -6.52640  -6.52083
  Beta  occ. eigenvalues --   -6.51446  -6.51387  -6.51337  -6.51276  -6.50877
  Beta  occ. eigenvalues --   -6.50785  -2.63801  -2.63734  -2.63458  -2.63394
  Beta  occ. eigenvalues --   -2.63375  -2.63310  -2.63182  -2.62853  -2.62783
  Beta  occ. eigenvalues --   -2.62372  -2.62371  -2.62314  -2.62313  -2.61825
  Beta  occ. eigenvalues --   -2.61824  -1.01315  -1.00834  -0.86688  -0.83808
  Beta  occ. eigenvalues --   -0.80451  -0.79590  -0.77896  -0.76689  -0.73233
  Beta  occ. eigenvalues --   -0.69536  -0.67695  -0.64068  -0.59135  -0.57482
  Beta  occ. eigenvalues --   -0.57436  -0.56395  -0.51926  -0.47655  -0.46412
  Beta  occ. eigenvalues --   -0.44423  -0.43710  -0.43280  -0.42550  -0.41606
  Beta  occ. eigenvalues --   -0.41123  -0.40496  -0.39637  -0.38712  -0.38401
  Beta  occ. eigenvalues --   -0.37286  -0.37038  -0.35179  -0.34744  -0.33965
  Beta  occ. eigenvalues --   -0.32902  -0.32574  -0.32055  -0.31604  -0.30821
  Beta  occ. eigenvalues --   -0.30766  -0.30196  -0.28900  -0.28136  -0.25803
  Beta  occ. eigenvalues --   -0.25519  -0.24650  -0.23968
  Beta virt. eigenvalues --   -0.10733  -0.03976  -0.01355  -0.01224  -0.00131
  Beta virt. eigenvalues --    0.00412   0.01032   0.01284   0.01556   0.02055
  Beta virt. eigenvalues --    0.02693   0.02990   0.03543   0.03814   0.04238

 Mulliken charges and spin densities:
               1          2
     1  C   -1.026187   0.091828
     2  C   -0.231498   0.087827
     3  C    0.516744   0.092622
     4  C   -0.689864   0.079732
     5  C    0.248476   0.026116
     6  C    1.968610   0.092104
     7  O   -0.374207   0.258133
     8  O   -0.351427   0.241697
     9  Br  -0.109323   0.006450
    10  Br  -0.102372   0.006370
    11  Br  -0.087486   0.003479
    12  C   -0.856768   0.013265
    13  C   -0.482061  -0.001747
    14  C   -0.160108   0.004587
    15  C   -0.255265  -0.002524
    16  C   -0.194038   0.000076
    17  C   -0.677692   0.000030
    18  H    0.170610   0.000910
    19  H    0.213467   0.001444
    20  H    0.189402  -0.001020
    21  H    0.116212  -0.001330
    22  H    0.122449  -0.000196
    23  H    0.118047   0.000082
    24  H    0.119816  -0.000076
    25  H    0.125760   0.000157
    26  H    0.132437  -0.000009
    27  H    0.132140  -0.000006
    28  H    0.140526  -0.000003
    29  H    0.142865  -0.000005
    30  H    0.140734   0.000004
 Sum of Mulliken charges =  -1.00000   1.00000

 Dipole moment (field-independent basis, Debye):
    X=             -1.4906    Y=              0.7836    Z=             -0.5668  Tot=              1.7768
 Quadrupole moment (field-independent basis, Debye-Ang):
   XX=           -151.9295   YY=           -171.0432   ZZ=           -154.3278
   XY=             -6.4080   XZ=             -2.9543   YZ=            -15.2303

  Exact polarizability: 366.625  17.847 347.949 -19.269  80.909 258.665
 Approx polarizability: 364.469  30.949 392.382 -14.246  99.721 295.728

                      1                      2                      3
                      A                      A                      A
 Frequencies --     17.4743                22.9841                44.5685
 Red. masses --      6.4167                 9.6510                 5.8878
 Frc consts  --      0.0012                 0.0030                 0.0069
 IR Inten    --      0.3810                 0.4022                 2.3765

                      4                      5                      6
                      A                      A                      A
 Frequencies --     50.3928                65.1686                72.6732
 Red. masses --      1.7893                 9.8548                 3.3714
 Frc consts  --      0.0027                 0.0247                 0.0105
 IR Inten    --      0.2849                 6.0982                 0.4220

                      7                      8                      9
                      A                      A                      A
 Frequencies --     93.9828               125.6591               130.4325
 Red. masses --      5.8625                 6.3224                38.4205
 Frc consts  --      0.0305                 0.0588                 0.3851
 IR Inten    --      1.9097                 1.7092                 0.8890

                     10                     11                     12
                      A                      A                      A
 Frequencies --    133.2463               147.8115               151.2906
 Red. masses --      1.7045                 2.4955                 9.6849
 Frc consts  --      0.0178                 0.0321                 0.1306
 IR Inten    --      0.1375                 0.7161                 3.4739

                     13                     14                     15
                      A                      A                      A
 Frequencies --    185.7061               200.7988               229.3931
 Red. masses --     10.7577                35.0035                 4.5473
 Frc consts  --      0.2186                 0.8315                 0.1410
 IR Inten    --      2.3799                 0.2026                 0.0945

                     16                     17                     18
                      A                      A                      A
 Frequencies --    244.5398               247.8666               289.5671
 Red. masses --      1.2296                 3.8406                 8.5369
 Frc consts  --      0.0433                 0.1390                 0.4217
 IR Inten    --      0.1917                 1.0300                 1.0036

                     19                     20                     21
                      A                      A                      A
 Frequencies --    310.9191               318.5183               363.1064
 Red. masses --      7.5676                10.5576                 6.6221
 Frc consts  --      0.4310                 0.6311                 0.5144
 IR Inten    --      0.2607                 0.7464                 0.2046

                     22                     23                     24
                      A                      A                      A
 Frequencies --    368.9290               419.7318               431.9042
 Red. masses --      3.6573                 4.5455                 3.7501
 Frc consts  --      0.2933                 0.4718                 0.4122
 IR Inten    --      5.0684                 7.9532                 0.3923

                     25                     26                     27
                      A                      A                      A
 Frequencies --    486.4086               520.7054               578.7448
 Red. masses --      9.8129                 6.3906                 8.7596
 Frc consts  --      1.3679                 1.0209                 1.7287
 IR Inten    --      0.7654                44.9694                34.2230

                     28                     29                     30
                      A                      A                      A
 Frequencies --    667.2179               683.5731               707.9899
 Red. masses --      8.6144                 3.7071                11.4108
 Frc consts  --      2.2595                 1.0206                 3.3699
 IR Inten    --     84.2587                 0.6257                18.1229

                     31                     32                     33
                      A                      A                      A
 Frequencies --    730.1763               744.4746               747.5939
 Red. masses --      1.0769                 1.2254                 8.0192
 Frc consts  --      0.3383                 0.4001                 2.6407
 IR Inten    --     12.4937                 0.6752                 5.5649

                     34                     35                     36
                      A                      A                      A
 Frequencies --    796.3251               815.6247               871.1479
 Red. masses --      1.3263                 7.6503                 2.6597
 Frc consts  --      0.4955                 2.9985                 1.1892
 IR Inten    --      4.1350               164.3969                53.6784

                     37                     38                     39
                      A                      A                      A
 Frequencies --    893.9451               902.3612               991.8190
 Red. masses --      1.9473                 1.8827                 2.1528
 Frc consts  --      0.9168                 0.9032                 1.2477
 IR Inten    --      4.0237                87.8491                36.6780

                     40                     41                     42
                      A                      A                      A
 Frequencies --    997.4801              1019.5287              1031.6151
 Red. masses --      2.1743                 3.2588                 3.7290
 Frc consts  --      1.2746                 1.9958                 2.3382
 IR Inten    --     20.6442                 3.3128                18.4654

                     43                     44                     45
                      A                      A                      A
 Frequencies --   1049.0008              1064.0193              1098.2340
 Red. masses --      2.7308                 2.2788                 2.0587
 Frc consts  --      1.7705                 1.5200                 1.4630
 IR Inten    --      4.3542                 1.0894               168.0459

                     46                     47                     48
                      A                      A                      A
 Frequencies --   1128.0365              1134.7154              1182.7984
 Red. masses --      2.6164                 6.1103                 3.3247
 Frc consts  --      1.9616                 4.6354                 2.7404
 IR Inten    --     26.6460                43.2314               132.7581

                     49                     50                     51
                      A                      A                      A
 Frequencies --   1221.3699              1252.2146              1276.1111
 Red. masses --      1.6469                 1.2701                 1.4545
 Frc consts  --      1.4474                 1.1734                 1.3955
 IR Inten    --     14.2573                 0.4416                 5.5359

                     52                     53                     54
                      A                      A                      A
 Frequencies --   1309.8601              1313.1447              1328.3479
 Red. masses --      1.4565                 1.3023                 1.0513
 Frc consts  --      1.4724                 1.3231                 1.0929
 IR Inten    --      7.1146                 1.4208                 0.3806

                     55                     56                     57
                      A                      A                      A
 Frequencies --   1330.8763              1347.0269              1359.3361
 Red. masses --      1.1691                 1.9128                 1.5722
 Frc consts  --      1.2201                 2.0449                 1.7116
 IR Inten    --      1.6297                 2.7344                 6.5198

                     58                     59                     60
                      A                      A                      A
 Frequencies --   1381.4049              1394.4253              1403.6141
 Red. masses --      1.4812                 1.5959                 1.2562
 Frc consts  --      1.6654                 1.8283                 1.4581
 IR Inten    --      2.4759                 1.1735                 2.3595

                     61                     62                     63
                      A                      A                      A
 Frequencies --   1463.3336              1467.8564              1471.7302
 Red. masses --      3.4624                 1.4600                 1.0713
 Frc consts  --      4.3683                 1.8534                 1.3672
 IR Inten    --     18.0762                49.9874                 2.8013

                     64                     65                     66
                      A                      A                      A
 Frequencies --   1477.8013              1487.4298              1488.0208
 Red. masses --      1.0804                 1.0841                 1.0402
 Frc consts  --      1.3902                 1.4131                 1.3570
 IR Inten    --      6.2066                13.3359                10.0084

                     67                     68                     69
                      A                      A                      A
 Frequencies --   1497.8310              1506.1291              1512.4529
 Red. masses --      1.0937                 1.0993                 7.6592
 Frc consts  --      1.4456                 1.4692                10.3227
 IR Inten    --      3.9987                26.7358               913.9585

                     70                     71                     72
                      A                      A                      A
 Frequencies --   1532.7950              1591.2301              2990.4597
 Red. masses --     11.7505                10.5230                 1.0573
 Frc consts  --     16.2658                15.6985                 5.5707
 IR Inten    --    121.5507                12.6853                 1.1993

                     73                     74                     75
                      A                      A                      A
 Frequencies --   2993.8865              3003.1701              3008.0720
 Red. masses --      1.0582                 1.0595                 1.0991
 Frc consts  --      5.5884                 5.6300                 5.8594
 IR Inten    --     36.7067               131.0743                 0.0862

                     76                     77                     78
                      A                      A                      A
 Frequencies --   3013.1397              3015.5092              3021.7458
 Red. masses --      1.0358                 1.0594                 1.1014
 Frc consts  --      5.5409                 5.6760                 5.9252
 IR Inten    --     44.8918                73.8082                 4.3774

                     79                     80                     81
                      A                      A                      A
 Frequencies --   3038.2337              3051.7923              3053.6141
 Red. masses --      1.1048                 1.0599                 1.1026
 Frc consts  --      6.0088                 5.8160                 6.0574
 IR Inten    --     68.1611                65.2005               107.0473

                     82                     83                     84
                      A                      A                      A
 Frequencies --   3072.0844              3076.7334              3096.2044
 Red. masses --      1.1026                 1.1011                 1.1046
 Frc consts  --      6.1313                 6.1415                 6.2387
 IR Inten    --    117.8925                73.4421                35.1498

 - Thermochemistry -
 -------------------
 Temperature   298.150 Kelvin.  Pressure   1.00000 Atm.
 Atom     1 has atomic number  6 and mass  12.00000

 Molecular mass:   425.84656 amu.
 Principal axes and moments of inertia in atomic units:
                           1         2         3
     Eigenvalues --  6074.50460********************
           X            0.91322   0.40497   0.04502
           Y           -0.37321   0.87568  -0.30643
           Z           -0.16352   0.26304   0.95083
 This molecule is an asymmetric top.
 Rotational symmetry number  1.
 Warning -- assumption of classical behavior for rotation
           may cause significant error
 Rotational temperatures (Kelvin)      0.01426     0.00525     0.00404
 Rotational constants (GHZ):           0.29710     0.10941     0.08412
 Zero-point vibrational energy     582337.3 (Joules/Mol)
                                  139.18195 (Kcal/Mol)
 Warning -- explicit consideration of  27 degrees of freedom as
           vibrations may cause significant error
 Vibrational temperatures:     25.14    33.07    64.12    72.50    93.76
          (Kelvin)            104.56   135.22   180.80   187.66   191.71
                              212.67   217.67   267.19   288.90   330.05
                              351.84   356.62   416.62   447.34   458.28
                              522.43   530.81   603.90   621.41   699.83
                              749.18   832.68   959.98   983.51  1018.64
                             1050.56  1071.13  1075.62  1145.73  1173.50
                             1253.39  1286.19  1298.30  1427.01  1435.15
                             1466.87  1484.26  1509.28  1530.89  1580.11
                             1622.99  1632.60  1701.78  1757.28  1801.66
                             1836.04  1884.60  1889.32  1911.20  1914.83
                             1938.07  1955.78  1987.53  2006.27  2019.49
                             2105.41  2111.92  2117.49  2126.23  2140.08
                             2140.93  2155.04  2166.98  2176.08  2205.35
                             2289.43  4302.60  4307.53  4320.89  4327.94
                             4335.24  4338.65  4347.62  4371.34  4390.85
                             4393.47  4420.04  4426.73  4454.75

 Zero-point correction=                           0.221801 (Hartree/Particle)
 Thermal correction to Energy=                    0.240965
 Thermal correction to Enthalpy=                  0.241910
 Thermal correction to Gibbs Free Energy=         0.168680
 Sum of electronic and zero-point Energies=          -8338.079500
 Sum of electronic and thermal Energies=             -8338.060336
 Sum of electronic and thermal Enthalpies=           -8338.059391
 Sum of electronic and thermal Free Energies=        -8338.132621

                     E (Thermal)             CV                S
                      KCal/Mol        Cal/Mol-Kelvin    Cal/Mol-Kelvin
 Total                  151.208             66.100            154.124
 Electronic               0.000              0.000              1.377
 Translational            0.889              2.981             44.037
 Rotational               0.889              2.981             36.018
 Vibrational            149.431             60.139             72.692
 Vibration     1          0.593              1.986              6.902
 Vibration     2          0.593              1.985              6.358
 Vibration     3          0.595              1.980              5.045
 Vibration     4          0.595              1.977              4.802
 Vibration     5          0.597              1.971              4.294
 Vibration     6          0.599              1.967              4.080
 Vibration     7          0.603              1.953              3.575
 Vibration     8          0.611              1.927              3.011
 Vibration     9          0.612              1.923              2.940
 Vibration    10          0.613              1.920              2.899
 Vibration    11          0.617              1.905              2.700
 Vibration    12          0.619              1.901              2.656
 Vibration    13          0.632              1.859              2.270
 Vibration    14          0.638              1.839              2.126
 Vibration    15          0.652              1.796              1.884
 Vibration    16          0.660              1.772              1.770
 Vibration    17          0.661              1.766              1.746
 Vibration    18          0.686              1.693              1.476
 Vibration    19          0.700              1.653              1.357
 Vibration    20          0.705              1.638              1.318
 Vibration    21          0.737              1.548              1.109
 Vibration    22          0.741              1.536              1.084
 Vibration    23          0.782              1.427              0.893
 Vibration    24          0.793              1.401              0.852
 Vibration    25          0.842              1.280              0.693
 Vibration    26          0.876              1.204              0.608
 Vibration    27          0.935              1.077              0.488

                           ! Non-Optimized Parameters !
 Normal termination of Gaussian 16 at Sat Feb 10 12:26:05 2024.
