 Q-Chem 5.4, Q-Chem, Inc., Pleasanton, CA (2021)
 Q-Chem 5.4.0 for Intel X86 EM64T Linux

User input:
--------------------------------------------------------------
$molecule
0 1
N                 -2.0456860000      2.8801660000     -0.0883530000
C                 -2.0377600000      1.5257130000      0.0522310000
C                 -3.2843700000      0.8427390000      0.1114520000
C                 -3.3532980000     -0.5145160000      0.2213450000
C                 -2.1823080000     -1.3200980000      0.2826760000
N                 -2.3277970000     -2.6719750000      0.3602780000
C                 -0.9243060000     -0.6755520000      0.2407580000
C                  0.2969380000     -1.4800520000      0.3319850000
O                  0.2764240000     -2.7162810000      0.4363400000
C                  1.6064160000     -0.7795680000      0.3015960000
C                  2.7859520000     -1.5301670000      0.3871600000
C                  4.0201980000     -0.8961770000      0.3597670000
C                  4.0910110000      0.4970130000      0.2462290000
C                  2.9271900000      1.2481910000      0.1607870000
C                  1.6773470000      0.6163450000      0.1878950000
C                  0.4453470000      1.4408390000      0.0945480000
O                  0.5503810000      2.6734640000     -0.0017770000
C                 -0.8513590000      0.7593660000      0.1244100000
H                 -1.1543440000      3.3621270000     -0.0616120000
H                 -2.9134610000      3.3831610000     -0.0191680000
H                 -4.1987740000      1.4254220000      0.0607620000
H                 -4.3221100000     -1.0027090000      0.2573050000
H                 -3.2408450000     -3.0667930000      0.5064250000
H                 -1.4893980000     -3.2302810000      0.4737270000
H                  2.7054860000     -2.6062810000      0.4737440000
H                  4.9306050000     -1.4813660000      0.4261940000
H                  5.0562460000      0.9905350000      0.2247070000
H                  2.9562730000      2.3267350000      0.0719150000
$end

$rem
BASIS  =  6-311++G(d,p)
GUI  =  2
JOB_TYPE  =  SP
METHOD  =  B3LYP
SCF_CONVERGENCE  = 8
SOLVENT_METHOD = sm12
$end

$smx
solvent dimethylformamide
charges CM5
$end

--------------------------------------------------------------

             Standard Nuclear Orientation (Angstroms)
    I     Atom           X                Y                Z
 ----------------------------------------------------------------
    1      N      -2.0456860000     2.8801660000    -0.0883530000
    2      C      -2.0377600000     1.5257130000     0.0522310000
    3      C      -3.2843700000     0.8427390000     0.1114520000
    4      C      -3.3532980000    -0.5145160000     0.2213450000
    5      C      -2.1823080000    -1.3200980000     0.2826760000
    6      N      -2.3277970000    -2.6719750000     0.3602780000
    7      C      -0.9243060000    -0.6755520000     0.2407580000
    8      C       0.2969380000    -1.4800520000     0.3319850000
    9      O       0.2764240000    -2.7162810000     0.4363400000
   10      C       1.6064160000    -0.7795680000     0.3015960000
   11      C       2.7859520000    -1.5301670000     0.3871600000
   12      C       4.0201980000    -0.8961770000     0.3597670000
   13      C       4.0910110000     0.4970130000     0.2462290000
   14      C       2.9271900000     1.2481910000     0.1607870000
   15      C       1.6773470000     0.6163450000     0.1878950000
   16      C       0.4453470000     1.4408390000     0.0945480000
   17      O       0.5503810000     2.6734640000    -0.0017770000
   18      C      -0.8513590000     0.7593660000     0.1244100000
   19      H      -1.1543440000     3.3621270000    -0.0616120000
   20      H      -2.9134610000     3.3831610000    -0.0191680000
   21      H      -4.1987740000     1.4254220000     0.0607620000
   22      H      -4.3221100000    -1.0027090000     0.2573050000
   23      H      -3.2408450000    -3.0667930000     0.5064250000
   24      H      -1.4893980000    -3.2302810000     0.4737270000
   25      H       2.7054860000    -2.6062810000     0.4737440000
   26      H       4.9306050000    -1.4813660000     0.4261940000
   27      H       5.0562460000     0.9905350000     0.2247070000
   28      H       2.9562730000     2.3267350000     0.0719150000
 ----------------------------------------------------------------

   14    -799.7155583241      6.41e-09  Convergence criterion met
 Total energy in the final basis set =     -799.7429003440

                    Orbital Energies (a.u.)
 --------------------------------------------------------------

 Alpha MOs
 -- Occupied --
-19.1100 -19.1099 -14.3302 -14.3301 -10.2640 -10.2640 -10.2406 -10.2406
-10.1983 -10.1978 -10.1976 -10.1969 -10.1935 -10.1931 -10.1917 -10.1912
-10.1891 -10.1891  -1.0444  -1.0425  -0.9429  -0.9326  -0.8808  -0.8475
 -0.8048  -0.7699  -0.7648  -0.7393  -0.6821  -0.6616  -0.6485  -0.6101
 -0.5872  -0.5707  -0.5629  -0.5374  -0.5215  -0.5003  -0.4980  -0.4830
 -0.4728  -0.4617  -0.4487  -0.4433  -0.4387  -0.4374  -0.4235  -0.4084
 -0.4078  -0.4031  -0.3906  -0.3705  -0.3642  -0.3609  -0.3600  -0.2892
 -0.2783  -0.2729  -0.2709  -0.2693  -0.2624  -0.1987

          Ground-State Mulliken Net Atomic Charges

     Atom                 Charge (a.u.)
  ----------------------------------------
      1 N                    -0.319780
      2 C                    -0.245236
      3 C                     1.650168
      4 C                     1.647941
      5 C                    -0.247927
      6 N                    -0.319099
      7 C                    -0.154089
      8 C                    -1.620118
      9 O                    -0.298906
     10 C                    -0.604171
     11 C                    -0.068333
     12 C                     0.097685
     13 C                     0.096609
     14 C                    -0.069066
     15 C                    -0.602951
     16 C                    -1.616578
     17 O                    -0.298970
     18 C                    -0.157085
     19 H                     0.279008
     20 H                     0.427626
     21 H                     0.353279
     22 H                     0.352625
     23 H                     0.426908
     24 H                     0.278599
     25 H                     0.192760
     26 H                     0.313177
     27 H                     0.313050
     28 H                     0.192871
  ----------------------------------------
  Sum of atomic charges =     0.000000

                    Cartesian Multipole Moments
 -----------------------------------------------------------------
    Charge (ESU x 10^10)
                 0.0000
    Dipole Moment (Debye)
         X      -4.7061      Y       0.2814      Z       0.4445
       Tot       4.7354
    Quadrupole Moments (Debye-Ang)
        XX     -66.7707     XY      -1.8321     YY    -101.2777
        XZ      -1.7472     YZ      -0.6064     ZZ    -109.3352

 Total job time:  605.19s(wall), 4521.67s(cpu)
        *  Thank you very much for using Q-Chem.  Have a nice day.  *
