 Q-Chem 5.4, Q-Chem, Inc., Pleasanton, CA (2021)
 Q-Chem 5.4.0 for Intel X86 EM64T Linux

User input:
--------------------------------------------------------------
$molecule
-1 2
N                 -2.5760950000      0.5058950000      2.3186170000
C                 -2.4270760000      0.2785920000      0.9635040000
C                 -3.5557650000      0.1778940000      0.1453250000
C                 -3.4342790000     -0.1182270000     -1.2174540000
C                 -2.1908760000     -0.3219110000     -1.7842160000
C                 -1.0256090000     -0.2144360000     -1.0002590000
C                  0.2648720000     -0.4261800000     -1.6674460000
O                  0.3467160000     -0.7160120000     -2.8852340000
C                  1.4543080000     -0.2761960000     -0.8354590000
C                  2.7266690000     -0.4646160000     -1.4116970000
C                  3.8725270000     -0.3239140000     -0.6638310000
Cl                 5.4401870000     -0.5716300000     -1.4360790000
C                  3.7821750000      0.0170890000      0.7077960000
Cl                 5.2339360000      0.2043630000      1.6943450000
C                  2.5490730000      0.2059510000      1.2884550000
C                  1.3627830000      0.0640360000      0.5407150000
C                  0.0794430000      0.2730190000      1.2069280000
O                  0.0522800000      0.5980280000      2.4327670000
C                 -1.1191120000      0.1012710000      0.3938190000
H                 -1.7061140000      0.7433130000      2.7963830000
H                 -3.4281600000      0.9576190000      2.6100300000
H                 -4.5377770000      0.3155620000      0.5901480000
H                 -4.3300830000     -0.1935100000     -1.8271860000
H                 -2.0708800000     -0.5605470000     -2.8330880000
H                  2.7746260000     -0.7222290000     -2.4620990000
H                  2.4622300000      0.4667770000      2.3352180000
$end
$rem
MAX_SCF_CYCLES=200
BASIS  =  6-311++G(d,p)
GUI  =  2
JOB_TYPE  =  SP
METHOD  =  B3LYP
SOLVENT_METHOD = COSMO
$end
$solvent
dielectric 37.219
opticaldielectric 1.43
$end

--------------------------------------------------------------

             Standard Nuclear Orientation (Angstroms)
    I     Atom           X                Y                Z
 ----------------------------------------------------------------
    1      N       3.7630099161    -2.3326347509     0.1228203558
    2      C       3.5934021449    -0.9642779278     0.0277552869
    3      C       4.7100992856    -0.1251014856    -0.0198495099
    4      C       4.5651674867     1.2669383510    -0.0487106361
    5      C       3.3097832697     1.8433808729    -0.0267597022
    6      C       2.1565194599     1.0353230400     0.0050484502
    7      C       0.8529153136     1.7105313418     0.0100688955
    8      O       0.7490830428     2.9607023015     0.0097993818
    9      C      -0.3223769533     0.8455785527     0.0106400896
   10      C      -1.6061615801     1.4272459966     0.0144949754
   11      C      -2.7390043970     0.6470579851     0.0064338515
   12      Cl     -4.3218972109     1.4278952674     0.0120502760
   13      C      -2.6232992826    -0.7644042361    -0.0074902870
   14      Cl     -4.0578748172    -1.7929240022    -0.0175206382
   15      C      -1.3786849164    -1.3511639487    -0.0122221970
   16      C      -0.2054920185    -0.5701125513    -0.0014482511
   17      C       1.0908577870    -1.2438665264    -0.0042720734
   18      O       1.1415390917    -2.5108772450    -0.0384067602
   19      C       2.2745470594    -0.3921511192     0.0209921493
   20      H       2.9073948591    -2.8672082073    -0.0309609560
   21      H       4.6350136286    -2.7046554542    -0.2180623143
   22      H       5.7006168068    -0.5723391769    -0.0152630731
   23      H       5.4519788967     1.8933312765    -0.0819201886
   24      H       3.1713330597     2.9167620660    -0.0395271071
   25      H      -1.6734101616     2.5077190412     0.0225150353
   26      H      -1.2724850550    -2.4281483207    -0.0227549532
 ----------------------------------------------------------------

   11   -1663.6510765923      4.54e-06  Convergence criterion met
 Total energy in the final basis set =    -1663.6510765923
    4   -1663.7266483147      7.58e-06  Convergence criterion met
 Total energy in the final basis set =    -1663.7266483147

                    Orbital Energies (a.u.)
 --------------------------------------------------------------

 Alpha MOs
 -- Occupied --
********-101.5626 -19.0868 -19.0831 -14.3066 -10.2490 -10.2484 -10.2368
-10.2309 -10.2200 -10.1893 -10.1891 -10.1853 -10.1842 -10.1784 -10.1771
-10.1734 -10.1648 -10.1599  -9.4772  -9.4771  -7.2417  -7.2417  -7.2323
 -7.2322  -7.2316  -7.2314  -1.0143  -1.0106  -0.9160  -0.9152  -0.8618
 -0.8535  -0.8356  -0.7805  -0.7604  -0.7360  -0.7323  -0.6712  -0.6448
 -0.6251  -0.6006  -0.5655  -0.5467  -0.5318  -0.5017  -0.4914  -0.4811
 -0.4733  -0.4533  -0.4481  -0.4425  -0.4370  -0.4237  -0.4208  -0.4108
 -0.4078  -0.3989  -0.3914  -0.3730  -0.3699  -0.3574  -0.3541  -0.3516
 -0.3359  -0.3275  -0.3165  -0.3131  -0.2705  -0.2657  -0.2569  -0.2504
 -0.2463  -0.2153  -0.1470

 Beta MOs
 -- Occupied --
********-101.5626 -19.0819 -19.0777 -14.3064 -10.2484 -10.2476 -10.2350
-10.2291 -10.2200 -10.1894 -10.1891 -10.1842 -10.1833 -10.1784 -10.1764
-10.1730 -10.1638 -10.1595  -9.4772  -9.4771  -7.2418  -7.2417  -7.2321
 -7.2320  -7.2316  -7.2314  -1.0057  -1.0011  -0.9152  -0.9141  -0.8612
 -0.8507  -0.8345  -0.7772  -0.7584  -0.7341  -0.7301  -0.6642  -0.6434
 -0.6227  -0.5995  -0.5632  -0.5446  -0.5305  -0.5008  -0.4900  -0.4791
 -0.4717  -0.4521  -0.4468  -0.4420  -0.4282  -0.4212  -0.4172  -0.4062
 -0.4046  -0.3975  -0.3728  -0.3697  -0.3632  -0.3560  -0.3517  -0.3499
 -0.3357  -0.3199  -0.3163  -0.3064  -0.2593  -0.2538  -0.2523  -0.2454
 -0.2415  -0.2073

          Ground-State Mulliken Net Atomic Charges

     Atom                 Charge (a.u.)    Spin (a.u.)
  --------------------------------------------------------
      1 N                    -0.433525       0.010584
      2 C                     0.156512       0.029316
      3 C                    -0.290377       0.085594
      4 C                    -0.525008       0.024669
      5 C                    -0.032602       0.065434
      6 C                     0.404172       0.017732
      7 C                    -0.702106       0.096792
      8 O                    -0.477728       0.198542
      9 C                    -0.497388       0.048501
     10 C                    -0.459219       0.026318
     11 C                     0.462372       0.031858
     12 Cl                    0.530870       0.002600
     13 C                     0.380905       0.049336
     14 Cl                    0.530459       0.003534
     15 C                    -0.249658       0.025605
     16 C                    -0.268719       0.071847
     17 C                    -0.915375       0.081073
     18 O                    -0.464663       0.177674
     19 C                     0.220298      -0.030235
     20 H                     0.323960      -0.002898
     21 H                     0.286781      -0.000531
     22 H                     0.186876      -0.005825
     23 H                     0.208118      -0.002279
     24 H                     0.168278      -0.003859
     25 H                     0.223079      -0.001311
     26 H                     0.233687      -0.000072
  --------------------------------------------------------
  Sum of atomic charges =    -1.000000

                    Cartesian Multipole Moments
 -----------------------------------------------------------------
    Charge (ESU x 10^10)
                -4.8032
    Dipole Moment (Debye)
         X       0.8672      Y      -2.8141      Z      -0.8881
       Tot       3.0757
    Quadrupole Moments (Debye-Ang)
        XX    -136.7960     XY      -5.9114     YY    -155.5015
        XZ      -4.0362     YZ       2.2511     ZZ    -130.2827

 Total job time:  107.59s(wall), 818.78s(cpu)
        *  Thank you very much for using Q-Chem.  Have a nice day.  *
