 Gaussian 16, Revision A.03,
 Gaussian 16:  ES64L-G16RevA.03 25-Dec-2016

 ----------------------------------------------------------------------
 #P UB3LYP/6-311++G(d,p) nosym opt freq SCRF=(PCM,Solvent=n,n-DiMethylF
 ormamide)
 ----------------------------------------------------------------------

 -------
 Reduced
 -------
 Symbolic Z-matrix:
 Charge = -2 Multiplicity = 1

 SCF Done:  E(UB3LYP) =  -614.161365015     A.U. after   17 cycles
 SCF Done:  E(UB3LYP) =  -614.162985976     A.U. after   14 cycles
 SCF Done:  E(UB3LYP) =  -614.163248865     A.U. after   13 cycles
 SCF Done:  E(UB3LYP) =  -614.163250223     A.U. after   12 cycles
 SCF Done:  E(UB3LYP) =  -614.163280061     A.U. after   11 cycles
 SCF Done:  E(UB3LYP) =  -614.163282114     A.U. after   11 cycles
 SCF Done:  E(UB3LYP) =  -614.163283996     A.U. after   10 cycles
 SCF Done:  E(UB3LYP) =  -614.163284882     A.U. after   10 cycles
 SCF Done:  E(UB3LYP) =  -614.163285074     A.U. after    9 cycles
 SCF Done:  E(UB3LYP) =  -614.163285222     A.U. after    9 cycles
 SCF Done:  E(UB3LYP) =  -614.163285291     A.U. after    8 cycles
 SCF Done:  E(UB3LYP) =  -614.163285323     A.U. after    8 cycles
 Optimization completed.
    -- Stationary point found.
 Normal termination of Gaussian 16 at Sun Feb 11 02:34:10 2024.

 ----------------------------------------------------------------------
 #P Geom=AllCheck Guess=TCheck SCRF=Check GenChk UB3LYP/6-311++G(d,p) F
 req
 ----------------------------------------------------------------------

 Structure from the checkpoint file:  "243-an.chk"
 -------
 Reduced
 -------
 Charge = -2 Multiplicity = 1

                          Input orientation:
 ---------------------------------------------------------------------
 Center     Atomic      Atomic             Coordinates (Angstroms)
 Number     Number       Type             X           Y           Z
 ---------------------------------------------------------------------
      1          6           0        3.733828   -1.038428   -0.300315
      2          6           0        2.433985   -0.293193   -0.101006
      3          6           0        2.431661    1.126581   -0.013909
      4          6           0        1.249928    1.813484    0.172455
      5          6           0       -0.000362    1.155288    0.286223
      6          6           0       -1.222374    1.915909    0.483408
      7          8           0       -1.218175    3.226461    0.571377
      8          6           0       -2.386288    1.131037    0.566025
      9          6           0       -2.419021   -0.285571    0.481294
     10          6           0       -3.745997   -1.000297    0.583523
     11          6           0       -1.243793   -1.049289    0.302390
     12          8           0       -1.246136   -2.362886    0.231429
     13          6           0       -0.015102   -0.284349    0.198818
     14          6           0        1.224927   -0.953434    0.004258
     15          1           0        4.434991   -0.852167    0.521643
     16          1           0        3.567270   -2.116839   -0.357611
     17          1           0        4.240158   -0.728508   -1.221829
     18          1           0        3.370024    1.669675   -0.095581
     19          1           0        1.248643    2.896502    0.235697
     20          1           0       -3.330753    1.657501    0.706024
     21          1           0       -3.786085   -1.678124    1.446177
     22          1           0       -4.570857   -0.288038    0.681186
     23          1           0       -3.942099   -1.625096   -0.296972
     24          1           0        1.191626   -2.036219   -0.060771
 ---------------------------------------------------------------------

 SCF Done:  E(UB3LYP) =  -614.163285323     A.U. after    1 cycles

 Alpha  occ. eigenvalues --  -19.01073 -19.00840 -10.16420 -10.15918 -10.15485
 Alpha  occ. eigenvalues --  -10.15279 -10.14393 -10.14333 -10.13819 -10.13783
 Alpha  occ. eigenvalues --  -10.13358 -10.13224 -10.12433 -10.11304  -0.91715
 Alpha  occ. eigenvalues --   -0.91236  -0.82531  -0.77208  -0.74021  -0.71767
 Alpha  occ. eigenvalues --   -0.68357  -0.65040  -0.62506  -0.57048  -0.55714
 Alpha  occ. eigenvalues --   -0.51869  -0.46391  -0.45575  -0.43396  -0.40793
 Alpha  occ. eigenvalues --   -0.40581  -0.39938  -0.39098  -0.38638  -0.36362
 Alpha  occ. eigenvalues --   -0.36337  -0.35477  -0.34730  -0.34570  -0.32960
 Alpha  occ. eigenvalues --   -0.30761  -0.30618  -0.29842  -0.29456  -0.22305
 Alpha  occ. eigenvalues --   -0.21401  -0.20282  -0.19147  -0.18738  -0.10948
 Alpha virt. eigenvalues --   -0.00155  -0.00042   0.00793   0.01096   0.01583
 Alpha virt. eigenvalues --    0.02768   0.02952   0.04213   0.04295   0.04770
 Alpha virt. eigenvalues --    0.04966   0.05902   0.06803   0.07017   0.07791

  Beta  occ. eigenvalues --  -19.01073 -19.00840 -10.16420 -10.15918 -10.15485
  Beta  occ. eigenvalues --  -10.15279 -10.14393 -10.14333 -10.13819 -10.13783
  Beta  occ. eigenvalues --  -10.13358 -10.13224 -10.12433 -10.11304  -0.91715
  Beta  occ. eigenvalues --   -0.91236  -0.82531  -0.77208  -0.74021  -0.71767
  Beta  occ. eigenvalues --   -0.68357  -0.65040  -0.62506  -0.57048  -0.55714
  Beta  occ. eigenvalues --   -0.51869  -0.46391  -0.45575  -0.43396  -0.40793
  Beta  occ. eigenvalues --   -0.40581  -0.39938  -0.39098  -0.38638  -0.36362
  Beta  occ. eigenvalues --   -0.36337  -0.35477  -0.34730  -0.34570  -0.32960
  Beta  occ. eigenvalues --   -0.30761  -0.30618  -0.29842  -0.29456  -0.22305
  Beta  occ. eigenvalues --   -0.21401  -0.20282  -0.19147  -0.18738  -0.10948
  Beta virt. eigenvalues --   -0.00155  -0.00042   0.00793   0.01096   0.01583
  Beta virt. eigenvalues --    0.02768   0.02952   0.04213   0.04295   0.04770
  Beta virt. eigenvalues --    0.04966   0.05902   0.06803   0.07017   0.07791

 Mulliken charges and spin densities:
               1          2
     1  C   -0.442492  -0.000000
     2  C    0.520202   0.000000
     3  C   -0.429786   0.000000
     4  C   -0.055002   0.000000
     5  C    0.211224   0.000000
     6  C   -0.629321  -0.000000
     7  O   -0.741279   0.000000
     8  C   -0.467288   0.000000
     9  C    0.939590  -0.000000
    10  C   -0.354916  -0.000000
    11  C   -0.652356  -0.000000
    12  O   -0.721701   0.000000
    13  C   -0.135157  -0.000000
    14  C   -0.394832   0.000000
    15  H    0.148543   0.000000
    16  H    0.157818  -0.000000
    17  H    0.146733   0.000000
    18  H    0.156020   0.000000
    19  H    0.134550  -0.000000
    20  H    0.090056   0.000000
    21  H    0.136874  -0.000000
    22  H    0.134522   0.000000
    23  H    0.137504  -0.000000
    24  H    0.110492  -0.000000
 Sum of Mulliken charges =  -2.00000   0.00000

 Dipole moment (field-independent basis, Debye):
    X=             10.0811    Y=             -4.4101    Z=             -3.6299  Tot=             11.5868
 Quadrupole moment (field-independent basis, Debye-Ang):
   XX=           -109.3287   YY=           -155.7148   ZZ=            -95.7133
   XY=              4.0052   XZ=              4.3729   YZ=             -5.2579

  Exact polarizability: 373.958   3.321 298.771 -27.413   9.049 149.208
 Approx polarizability: 402.109   3.808 336.208 -29.206  10.515 162.259

                      1                      2                      3
                      A                      A                      A
 Frequencies --     74.6193                96.2762               105.3889
 Red. masses --      2.7473                 1.1820                 3.4757
 Frc consts  --      0.0090                 0.0065                 0.0227
 IR Inten    --     16.0672                 3.2671                 3.4354

                      4                      5                      6
                      A                      A                      A
 Frequencies --    145.8405               183.1468               203.2566
 Red. masses --      2.3544                 1.5348                 3.8387
 Frc consts  --      0.0295                 0.0303                 0.0934
 IR Inten    --      2.0181                 5.3745                11.6287

                      7                      8                      9
                      A                      A                      A
 Frequencies --    218.2178               289.9290               296.7494
 Red. masses --      3.6479                 3.8806                 3.2958
 Frc consts  --      0.1023                 0.1922                 0.1710
 IR Inten    --      0.0174                 3.7697                 2.8703

                     10                     11                     12
                      A                      A                      A
 Frequencies --    330.1231               365.7057               381.5622
 Red. masses --      6.2369                 4.6450                 6.2508
 Frc consts  --      0.4005                 0.3660                 0.5362
 IR Inten    --     17.8509                 3.9147                 0.1277

                     13                     14                     15
                      A                      A                      A
 Frequencies --    425.4878               446.8478               462.7811
 Red. masses --      6.1405                 3.0008                 5.0907
 Frc consts  --      0.6550                 0.3530                 0.6424
 IR Inten    --      2.9787                11.7791                 0.7920

                     16                     17                     18
                      A                      A                      A
 Frequencies --    507.3430               532.9534               635.0587
 Red. masses --      9.6767                 3.8458                 4.7630
 Frc consts  --      1.4675                 0.6436                 1.1318
 IR Inten    --      7.0185                11.4419                 0.8441

                     19                     20                     21
                      A                      A                      A
 Frequencies --    641.8178               666.9698               697.8631
 Red. masses --      2.5710                 6.2494                 4.5268
 Frc consts  --      0.6240                 1.6379                 1.2989
 IR Inten    --      3.9550                64.7206                 4.7784

                     22                     23                     24
                      A                      A                      A
 Frequencies --    709.5530               738.8143               784.1178
 Red. masses --      4.8344                 5.3473                 2.7178
 Frc consts  --      1.4340                 1.7197                 0.9845
 IR Inten    --     25.3491                73.1927                 0.6438

                     25                     26                     27
                      A                      A                      A
 Frequencies --    814.0936               830.2939               876.8855
 Red. masses --      1.4969                 2.0629                 4.8113
 Frc consts  --      0.5845                 0.8379                 2.1797
 IR Inten    --    100.9107                14.8920                66.4553

                     28                     29                     30
                      A                      A                      A
 Frequencies --    907.4077               963.9263               975.5883
 Red. masses --      1.4226                 2.1638                 1.3051
 Frc consts  --      0.6901                 1.1846                 0.7319
 IR Inten    --     13.3110                66.1990                 1.9097

                     31                     32                     33
                      A                      A                      A
 Frequencies --    997.0828              1034.6498              1040.8048
 Red. masses --      1.5231                 1.9612                 1.4732
 Frc consts  --      0.8922                 1.2369                 0.9403
 IR Inten    --     69.0718                87.3617                 0.7828

                     34                     35                     36
                      A                      A                      A
 Frequencies --   1055.0169              1094.4436              1122.4555
 Red. masses --      1.4961                 2.7789                 2.7523
 Frc consts  --      0.9812                 1.9611                 2.0431
 IR Inten    --      5.7384               122.9046                52.5549

                     37                     38                     39
                      A                      A                      A
 Frequencies --   1153.1807              1204.6373              1205.8415
 Red. masses --      1.8471                 2.2347                 2.1502
 Frc consts  --      1.4472                 1.9107                 1.8421
 IR Inten    --     10.0576               495.2773               156.1981

                     40                     41                     42
                      A                      A                      A
 Frequencies --   1224.5889              1276.6120              1321.8112
 Red. masses --      2.7999                 2.3408                 4.5489
 Frc consts  --      2.4739                 2.2477                 4.6827
 IR Inten    --    253.9205               124.0614               206.6084

                     43                     44                     45
                      A                      A                      A
 Frequencies --   1354.6857              1365.7977              1395.2092
 Red. masses --      4.0335                 4.9574                 2.3922
 Frc consts  --      4.3613                 5.4485                 2.7436
 IR Inten    --   1478.3950               149.7149                 8.0295

                     46                     47                     48
                      A                      A                      A
 Frequencies --   1397.7609              1406.0293              1443.8472
 Red. masses --      1.3693                 1.5794                 3.6711
 Frc consts  --      1.5762                 1.8396                 4.5090
 IR Inten    --    139.0310               124.8442                59.3857

                     49                     50                     51
                      A                      A                      A
 Frequencies --   1461.1547              1471.7738              1480.4616
 Red. masses --      1.0504                 1.0443                 1.1858
 Frc consts  --      1.3212                 1.3328                 1.5313
 IR Inten    --      6.0033                 8.6576                 7.0785

                     52                     53                     54
                      A                      A                      A
 Frequencies --   1483.4457              1512.1640              1531.7748
 Red. masses --      1.1920                 2.6795                 5.4033
 Frc consts  --      1.5455                 3.6099                 7.4696
 IR Inten    --     28.9329                24.4196               267.2516

                     55                     56                     57
                      A                      A                      A
 Frequencies --   1587.4481              1623.7004              2986.3469
 Red. masses --      6.8322                 5.8104                 1.0379
 Frc consts  --     10.1440                 9.0255                 5.4536
 IR Inten    --     30.9554                45.1648               221.2475

                     58                     59                     60
                      A                      A                      A
 Frequencies --   3000.8210              3015.7400              3039.2936
 Red. masses --      1.0383                 1.0978                 1.1000
 Frc consts  --      5.5089                 5.8827                 5.9865
 IR Inten    --    150.5657                93.3024                48.5548

                     61                     62                     63
                      A                      A                      A
 Frequencies --   3063.6094              3085.1152              3094.1172
 Red. masses --      1.0986                 1.0984                 1.0869
 Frc consts  --      6.0753                 6.1597                 6.1305
 IR Inten    --     41.8292                46.9286               168.3910

                     64                     65                     66
                      A                      A                      A
 Frequencies --   3130.9332              3159.2251              3168.9342
 Red. masses --      1.0874                 1.0879                 1.0908
 Frc consts  --      6.2804                 6.3974                 6.4541
 IR Inten    --     45.2471                29.4311                43.9935

 - Thermochemistry -
 -------------------
 Temperature   298.150 Kelvin.  Pressure   1.00000 Atm.
 Atom     1 has atomic number  6 and mass  12.00000

 Molecular mass:   186.06808 amu.
 Principal axes and moments of inertia in atomic units:
                           1         2         3
     Eigenvalues --  1658.855943122.482474759.08670
           X            0.99230   0.03520   0.11874
           Y           -0.02798   0.99769  -0.06193
           Z           -0.12064   0.05813   0.99099
 This molecule is an asymmetric top.
 Rotational symmetry number  1.
 Warning -- assumption of classical behavior for rotation
           may cause significant error
 Rotational temperatures (Kelvin)      0.05221     0.02774     0.01820
 Rotational constants (GHZ):           1.08794     0.57798     0.37922
 Zero-point vibrational energy     480295.5 (Joules/Mol)
                                  114.79337 (Kcal/Mol)
 Warning -- explicit consideration of  17 degrees of freedom as
           vibrations may cause significant error
 Vibrational temperatures:    107.36   138.52   151.63   209.83   263.51
          (Kelvin)            292.44   313.97   417.14   426.96   474.97
                              526.17   548.98   612.18   642.91   665.84
                              729.95   766.80   913.71   923.43   959.62
                             1004.07  1020.89  1062.99  1128.17  1171.30
                             1194.61  1261.64  1305.56  1386.87  1403.65
                             1434.58  1488.63  1497.49  1517.93  1574.66
                             1614.96  1659.17  1733.20  1734.94  1761.91
                             1836.76  1901.79  1949.09  1965.08  2007.39
                             2011.07  2022.96  2077.37  2102.28  2117.55
                             2130.05  2134.35  2175.67  2203.88  2283.98
                             2336.14  4296.69  4317.51  4338.98  4372.87
                             4407.85  4438.79  4451.74  4504.71  4545.42
                             4559.39

 Zero-point correction=                           0.182935 (Hartree/Particle)
 Thermal correction to Energy=                    0.194984
 Thermal correction to Enthalpy=                  0.195928
 Thermal correction to Gibbs Free Energy=         0.145052
 Sum of electronic and zero-point Energies=           -613.980350
 Sum of electronic and thermal Energies=              -613.968301
 Sum of electronic and thermal Enthalpies=            -613.967357
 Sum of electronic and thermal Free Energies=         -614.018233

                     E (Thermal)             CV                S
                      KCal/Mol        Cal/Mol-Kelvin    Cal/Mol-Kelvin
 Total                  122.354             47.032            107.078
 Electronic               0.000              0.000              0.000
 Translational            0.889              2.981             41.569
 Rotational               0.889              2.981             31.578
 Vibrational            120.577             41.071             33.931
 Vibration     1          0.599              1.966              4.028
 Vibration     2          0.603              1.952              3.528
 Vibration     3          0.605              1.945              3.352
 Vibration     4          0.617              1.907              2.726
 Vibration     5          0.631              1.863              2.296
 Vibration     6          0.639              1.835              2.103
 Vibration     7          0.646              1.813              1.974
 Vibration     8          0.686              1.692              1.474
 Vibration     9          0.690              1.680              1.435
 Vibration    10          0.713              1.615              1.259
 Vibration    11          0.739              1.543              1.098
 Vibration    12          0.751              1.509              1.033
 Vibration    13          0.787              1.415              0.874
 Vibration    14          0.806              1.368              0.805
 Vibration    15          0.820              1.333              0.758
 Vibration    16          0.863              1.234              0.640
 Vibration    17          0.888              1.177              0.581

 Optimization completed.
    -- Stationary point found.
 Normal termination of Gaussian 16 at Sun Feb 11 03:02:05 2024.
