 Gaussian 16, Revision A.03,
 Gaussian 16:  ES64L-G16RevA.03 25-Dec-2016

 --------------------------------------
 #P UB3LYP/6-311++G(d,p) nosym opt freq
 --------------------------------------

 -------
 Radical
 -------
 Symbolic Z-matrix:
 Charge = -3 Multiplicity = 2

 SCF Done:  E(UB3LYP) =  -1935.40078262     A.U. after   23 cycles
 SCF Done:  E(UB3LYP) =  -1935.45735328     A.U. after   19 cycles
 SCF Done:  E(UB3LYP) =  -1935.48632188     A.U. after   18 cycles
 SCF Done:  E(UB3LYP) =  -1935.48876211     A.U. after   18 cycles
 SCF Done:  E(UB3LYP) =  -1935.48941430     A.U. after   17 cycles
 SCF Done:  E(UB3LYP) =  -1935.48939576     A.U. after   16 cycles
 SCF Done:  E(UB3LYP) =  -1935.48937085     A.U. after   16 cycles
 SCF Done:  E(UB3LYP) =  -1935.48946187     A.U. after   15 cycles
 SCF Done:  E(UB3LYP) =  -1935.48946749     A.U. after   14 cycles
 SCF Done:  E(UB3LYP) =  -1935.48946696     A.U. after   13 cycles
 SCF Done:  E(UB3LYP) =  -1935.48946875     A.U. after   12 cycles
 Optimization completed.
    -- Stationary point found.
 Normal termination of Gaussian 16 at Mon Jan  8 17:53:55 2024.

 ----------------------------------------------------------------------
 #P Geom=AllCheck Guess=TCheck SCRF=Check GenChk UB3LYP/6-311++G(d,p) F
 req
 ----------------------------------------------------------------------

 Structure from the checkpoint file:  "224-rad.chk"
 -------
 Radical
 -------
 Charge = -3 Multiplicity = 2

                          Input orientation:
 ---------------------------------------------------------------------
 Center     Atomic      Atomic             Coordinates (Angstroms)
 Number     Number       Type             X           Y           Z
 ---------------------------------------------------------------------
      1          6           0        5.638443   -4.710661    0.878951
      2          6           0        6.656568   -4.602320   -0.039991
      3          6           0        6.582367   -3.629043   -1.054258
      4          6           0        4.515854   -3.859839    0.823228
      5          6           0        4.424010   -2.860832   -0.205244
      6          6           0        5.503452   -2.767302   -1.156415
      7          6           0        3.495919   -4.090914    1.878970
      8          6           0        2.308566   -3.235708    1.869586
      9          6           0        2.216641   -2.236795    0.841037
     10          6           0        3.236629   -2.005639   -0.214637
     11          6           0        1.229131   -3.329311    2.820745
     12          6           0        0.150080   -2.467747    2.718457
     13          6           0        0.075706   -1.494671    1.704006
     14          6           0        1.093857   -1.386248    0.785098
     15          8           0        3.677050   -4.991278    2.724645
     16          8           0        3.054434   -1.106723   -1.061618
     17         16           0        1.047345   -4.514917    4.271815
     18          8           0       -0.275176   -4.116179    4.874415
     19          8           0        2.164863   -4.238878    5.210969
     20          8           0        0.984787   -5.890404    3.713955
     21         16           0        5.685690   -1.581412   -2.607168
     22          8           0        7.009128   -1.979162   -3.208401
     23          8           0        4.569385   -1.858232   -3.547544
     24          8           0        5.746707   -0.205951   -2.049089
     25          1           0        5.651459   -5.444168    1.676955
     26          1           0        7.520732   -5.263281    0.009680
     27          1           0        7.372900   -3.528524   -1.786144
     28          1           0       -0.640387   -2.568198    3.450416
     29          1           0       -0.788581   -0.833882    1.654210
     30          1           0        1.080740   -0.652854   -0.013009
 ---------------------------------------------------------------------

 SCF Done:  E(UB3LYP) =  -1935.48946875     A.U. after    2 cycles

 Alpha  occ. eigenvalues --  -88.71295 -88.71295 -18.75628 -18.75627 -18.75416
 Alpha  occ. eigenvalues --  -18.75415 -18.75344 -18.75343 -18.75343 -18.75342
 Alpha  occ. eigenvalues --   -9.91157  -9.91156  -9.89074  -9.89073  -9.87972
 Alpha  occ. eigenvalues --   -9.87971  -9.87732  -9.87731  -9.87064  -9.87063
 Alpha  occ. eigenvalues --   -9.86976  -9.86975  -9.86887  -9.86886  -7.77092
 Alpha  occ. eigenvalues --   -7.77092  -5.73360  -5.73360  -5.73335  -5.73334
 Alpha  occ. eigenvalues --   -5.73310  -5.73310  -0.76864  -0.76863  -0.68915
 Alpha  occ. eigenvalues --   -0.68653  -0.63550  -0.63549  -0.62868  -0.62865
 Alpha  occ. eigenvalues --   -0.55657  -0.54974  -0.48028  -0.45188  -0.45149
 Alpha  occ. eigenvalues --   -0.43717  -0.36120  -0.34312  -0.31375  -0.30969
 Alpha  occ. eigenvalues --   -0.28539  -0.24774  -0.23164  -0.22026  -0.20940
 Alpha  occ. eigenvalues --   -0.17271  -0.16395  -0.16106  -0.15370  -0.14590
 Alpha  occ. eigenvalues --   -0.14231  -0.11666  -0.11618  -0.11350  -0.11277
 Alpha  occ. eigenvalues --   -0.10769  -0.10507  -0.09720  -0.09050  -0.07411
 Alpha  occ. eigenvalues --   -0.06639  -0.06626  -0.06448  -0.04830  -0.04098
 Alpha  occ. eigenvalues --   -0.03587   0.00151   0.00193   0.00822   0.00920
 Alpha  occ. eigenvalues --    0.02094   0.02771   0.03452   0.03664   0.04068
 Alpha  occ. eigenvalues --    0.04609   0.04716   0.05218   0.06041   0.06105
 Alpha  occ. eigenvalues --    0.08098   0.08447   0.08495   0.08512   0.17206
 Alpha virt. eigenvalues --    0.22197   0.22199   0.24616   0.25772   0.25805
 Alpha virt. eigenvalues --    0.27519   0.27665   0.27934   0.28789   0.31149
 Alpha virt. eigenvalues --    0.31261   0.31461   0.31668   0.32670   0.33325

  Beta  occ. eigenvalues --  -88.71296 -88.71296 -18.75409 -18.75408 -18.75342
  Beta  occ. eigenvalues --  -18.75341 -18.75341 -18.75340 -18.74993 -18.74992
  Beta  occ. eigenvalues --   -9.91063  -9.91062  -9.89075  -9.89074  -9.87915
  Beta  occ. eigenvalues --   -9.87915  -9.87620  -9.87619  -9.87089  -9.87089
  Beta  occ. eigenvalues --   -9.86876  -9.86875  -9.86845  -9.86844  -7.77092
  Beta  occ. eigenvalues --   -7.77092  -5.73361  -5.73360  -5.73335  -5.73334
  Beta  occ. eigenvalues --   -5.73311  -5.73311  -0.76859  -0.76858  -0.67859
  Beta  occ. eigenvalues --   -0.67563  -0.63546  -0.63544  -0.62857  -0.62854
  Beta  occ. eigenvalues --   -0.55406  -0.54860  -0.47607  -0.45046  -0.44982
  Beta  occ. eigenvalues --   -0.43499  -0.35401  -0.34196  -0.31117  -0.30916
  Beta  occ. eigenvalues --   -0.28407  -0.24661  -0.22978  -0.21897  -0.20849
  Beta  occ. eigenvalues --   -0.17074  -0.16217  -0.16049  -0.15224  -0.14547
  Beta  occ. eigenvalues --   -0.14205  -0.11624  -0.11416  -0.11331  -0.11236
  Beta  occ. eigenvalues --   -0.10335  -0.09814  -0.09499  -0.08585  -0.07156
  Beta  occ. eigenvalues --   -0.06590  -0.06324  -0.04589  -0.04213  -0.03916
  Beta  occ. eigenvalues --   -0.02476   0.00182   0.00233   0.00838   0.00931
  Beta  occ. eigenvalues --    0.02241   0.03167   0.03481   0.03699   0.04673
  Beta  occ. eigenvalues --    0.04767   0.05858   0.06055   0.06650   0.06744
  Beta  occ. eigenvalues --    0.08471   0.08616   0.08619   0.09045
  Beta virt. eigenvalues --    0.22184   0.22186   0.23197   0.25357   0.25764
  Beta virt. eigenvalues --    0.25797   0.27509   0.27920   0.28740   0.28951
  Beta virt. eigenvalues --    0.31202   0.31313   0.31460   0.31672   0.32681

 Mulliken charges and spin densities:
               1          2
     1  C   -0.192595   0.003048
     2  C   -0.451746   0.047584
     3  C    0.369102   0.030007
     4  C    0.834215   0.056193
     5  C    0.400376   0.093876
     6  C   -1.049110   0.010708
     7  C   -1.025615   0.020054
     8  C    0.399666   0.093903
     9  C    0.834611   0.056222
    10  C   -1.026141   0.020072
    11  C   -1.049293   0.010698
    12  C    0.370157   0.030033
    13  C   -0.451737   0.047573
    14  C   -0.192513   0.003065
    15  O   -0.252068   0.240203
    16  O   -0.252090   0.240196
    17  S    0.510833   0.003365
    18  O   -0.379335   0.000618
    19  O   -0.345603   0.000917
    20  O   -0.345356   0.000917
    21  S    0.510818   0.003365
    22  O   -0.379443   0.000618
    23  O   -0.345496   0.000915
    24  O   -0.345363   0.000918
    25  H    0.130538  -0.001152
    26  H    0.088829  -0.003670
    27  H    0.207514  -0.002712
    28  H    0.207490  -0.002714
    29  H    0.088826  -0.003669
    30  H    0.130529  -0.001152
 Sum of Mulliken charges =  -3.00000   1.00000

 Dipole moment (field-independent basis, Debye):
    X=            -48.5081    Y=             43.9254    Z=            -11.9913  Tot=             66.5302
 Quadrupole moment (field-independent basis, Debye-Ang):
   XX=           -416.4658   YY=           -354.7613   ZZ=           -349.5436
   XY=            110.5854   XZ=             58.3976   YZ=            111.0858

  Exact polarizability: 345.230 -45.387 246.551 -98.441 -63.826 303.915
 Approx polarizability: 526.010 -98.860 430.490-100.089-110.293 459.939

                      1                      2                      3
                      A                      A                      A
 Frequencies --      2.6940                29.3905                31.1688
 Red. masses --     14.8410                11.4655                 7.8719
 Frc consts  --      0.0001                 0.0058                 0.0045
 IR Inten    --      0.6032                 0.0004                 8.6324

                      4                      5                      6
                      A                      A                      A
 Frequencies --     81.6480                85.8189               102.8544
 Red. masses --     12.0568                 9.9521                11.6795
 Frc consts  --      0.0474                 0.0432                 0.0728
 IR Inten    --      0.0000                 0.0551                 4.1089

                      7                      8                      9
                      A                      A                      A
 Frequencies --    121.2497               143.6868               170.7472
 Red. masses --     15.9713                 6.3551                 7.7475
 Frc consts  --      0.1383                 0.0773                 0.1331
 IR Inten    --      0.0000                 0.2723                 0.0000

                     10                     11                     12
                      A                      A                      A
 Frequencies --    173.7685               210.4584               218.1742
 Red. masses --      9.0002                13.7185                 5.3759
 Frc consts  --      0.1601                 0.3580                 0.1508
 IR Inten    --      0.8532                 2.9061                 0.0000

                     13                     14                     15
                      A                      A                      A
 Frequencies --    238.6244               273.1449               286.2150
 Red. masses --     13.5854                13.3990                 6.6688
 Frc consts  --      0.4558                 0.5890                 0.3219
 IR Inten    --      0.0000                 0.0000                 0.1752

                     16                     17                     18
                      A                      A                      A
 Frequencies --    300.9014               321.6958               351.1249
 Red. masses --     12.8785                 7.6513                 6.2950
 Frc consts  --      0.6870                 0.4665                 0.4573
 IR Inten    --      2.2042                 0.0000                 0.0000

                     19                     20                     21
                      A                      A                      A
 Frequencies --    359.9353               394.3942               399.0218
 Red. masses --      6.7699                12.2379                 9.6358
 Frc consts  --      0.5167                 1.1215                 0.9039
 IR Inten    --      5.1659                 7.0986                 0.0000

                     22                     23                     24
                      A                      A                      A
 Frequencies --    408.1288               462.6656               480.1316
 Red. masses --      6.6309                 9.6782                 8.6968
 Frc consts  --      0.6508                 1.2206                 1.1812
 IR Inten    --      0.0001                 0.0000                11.2748

                     25                     26                     27
                      A                      A                      A
 Frequencies --    490.6653               497.5084               498.3755
 Red. masses --     12.7364                 4.3166                11.7161
 Frc consts  --      1.8066                 0.6295                 1.7145
 IR Inten    --      0.0005                 4.0519                 0.0000

                     28                     29                     30
                      A                      A                      A
 Frequencies --    504.0956               521.6764               557.5271
 Red. masses --     15.9098                11.9913                 8.8936
 Frc consts  --      2.3820                 1.9227                 1.6288
 IR Inten    --     32.1036                 0.0000                35.8748

                     31                     32                     33
                      A                      A                      A
 Frequencies --    570.4952               594.1621               608.8444
 Red. masses --      5.5767                15.5768                17.5760
 Frc consts  --      1.0694                 3.2399                 3.8387
 IR Inten    --      0.0000               437.7852                 0.0000

                     34                     35                     36
                      A                      A                      A
 Frequencies --    620.6480               652.2775               697.3392
 Red. masses --      6.5751                 6.0872                 9.4999
 Frc consts  --      1.4922                 1.5259                 2.7218
 IR Inten    --     19.9184                 0.0000                38.4670

                     37                     38                     39
                      A                      A                      A
 Frequencies --    697.9012               698.7412               749.6232
 Red. masses --      2.7147                 7.2245                10.1843
 Frc consts  --      0.7790                 2.0782                 3.3718
 IR Inten    --     46.8994                 0.0430                 0.5294

                     40                     41                     42
                      A                      A                      A
 Frequencies --    756.8506               761.7576               787.7434
 Red. masses --      1.4776                 8.7028                 1.6694
 Frc consts  --      0.4987                 2.9754                 0.6104
 IR Inten    --      0.0000                 0.0000                39.6108

                     43                     44                     45
                      A                      A                      A
 Frequencies --    806.8567               813.2298               924.5309
 Red. masses --      4.2746                 6.8918                 1.3132
 Frc consts  --      1.6396                 2.6854                 0.6614
 IR Inten    --      0.0002                 2.2408                 0.0004

                     46                     47                     48
                      A                      A                      A
 Frequencies --    925.5455               927.0516               938.7763
 Red. masses --      7.3855                 1.3124                10.3141
 Frc consts  --      3.7276                 0.6646                 5.3555
 IR Inten    --      0.0000                 2.6957               117.0721

                     49                     50                     51
                      A                      A                      A
 Frequencies --    960.4782               962.6841               972.6819
 Red. masses --     13.0836                12.2980                 1.2774
 Frc consts  --      7.1114                 6.7151                 0.7120
 IR Inten    --      0.0001               599.0151                 0.0000

                     52                     53                     54
                      A                      A                      A
 Frequencies --    974.7627              1070.7664              1075.3545
 Red. masses --      1.2934                 3.1185                 2.9425
 Frc consts  --      0.7241                 2.1066                 2.0048
 IR Inten    --      3.7060                 0.0003               315.9304

                     55                     56                     57
                      A                      A                      A
 Frequencies --   1101.5024              1104.2429              1104.8524
 Red. masses --      7.7294                 4.4005                 2.9939
 Frc consts  --      5.5255                 3.1614                 2.1533
 IR Inten    --      0.0006               118.3401                87.2812

                     58                     59                     60
                      A                      A                      A
 Frequencies --   1112.6289              1158.7990              1164.9678
 Red. masses --      2.7352                 2.6551                20.7005
 Frc consts  --      1.9950                 2.1006                16.5523
 IR Inten    --      0.0000                40.7329                 0.0268

                     61                     62                     63
                      A                      A                      A
 Frequencies --   1166.0424              1173.9113              1181.1567
 Red. masses --     20.7082                 1.5197                 2.0722
 Frc consts  --     16.5890                 1.2339                 1.7033
 IR Inten    --    632.6686                 0.0000                 0.0000

                     64                     65                     66
                      A                      A                      A
 Frequencies --   1188.9448              1224.1852              1304.8124
 Red. masses --      2.3003                 2.3185                 2.9305
 Frc consts  --      1.9158                 2.0472                 2.9396
 IR Inten    --     90.7138               195.4598                 0.0000

                     67                     68                     69
                      A                      A                      A
 Frequencies --   1314.3643              1342.3838              1358.3548
 Red. masses --      7.6790                 5.7090                 3.5464
 Frc consts  --      7.8161                 6.0613                 3.8554
 IR Inten    --     40.1311                 0.0000               358.6125

                     70                     71                     72
                      A                      A                      A
 Frequencies --   1417.0983              1418.6607              1457.7796
 Red. masses --      4.0017                 2.2619                 2.6547
 Frc consts  --      4.7347                 2.6821                 3.3240
 IR Inten    --      0.0000               103.8183                 0.0000

                     73                     74                     75
                      A                      A                      A
 Frequencies --   1518.6183              1540.9839              1551.0296
 Red. masses --      4.7974                 7.7079                 5.5302
 Frc consts  --      6.5185                10.7841                 7.8384
 IR Inten    --    604.2653                 0.0000                74.9205

                     76                     77                     78
                      A                      A                      A
 Frequencies --   1591.4854              1612.7247              1613.6662
 Red. masses --      5.7406                 8.2724                 7.0879
 Frc consts  --      8.5666                12.6765                10.8741
 IR Inten    --      0.0000                 0.0001                59.1104

                     79                     80                     81
                      A                      A                      A
 Frequencies --   3099.5343              3099.9345              3176.1182
 Red. masses --      1.0868                 1.0868                 1.0907
 Frc consts  --      6.1514                 6.1535                 6.4828
 IR Inten    --    196.0018                 0.0012                45.8990

                     82                     83                     84
                      A                      A                      A
 Frequencies --   3176.4447              3192.0272              3192.1897
 Red. masses --      1.0907                 1.0895                 1.0896
 Frc consts  --      6.4840                 6.5404                 6.5418
 IR Inten    --      0.0001                14.0018                 0.2924

 - Thermochemistry -
 -------------------
 Temperature   298.150 Kelvin.  Pressure   1.00000 Atm.
 Atom     1 has atomic number  6 and mass  12.00000

 Molecular mass:   365.95041 amu.
 Principal axes and moments of inertia in atomic units:
                           1         2         3
     Eigenvalues --  3559.56683********************
           X           -0.58961  -0.65905   0.46693
           Y           -0.27022   0.70574   0.65491
           Z            0.76115  -0.25997   0.59420
 This molecule is an asymmetric top.
 Rotational symmetry number  1.
 Warning -- assumption of classical behavior for rotation
           may cause significant error
 Rotational temperatures (Kelvin)      0.02433     0.00561     0.00474
 Rotational constants (GHZ):           0.50701     0.11699     0.09884
 Zero-point vibrational energy     472082.5 (Joules/Mol)
                                  112.83043 (Kcal/Mol)
 Warning -- explicit consideration of  34 degrees of freedom as
           vibrations may cause significant error
 Vibrational temperatures:      3.88    42.29    44.84   117.47   123.47
          (Kelvin)            147.98   174.45   206.73   245.67   250.01
                              302.80   313.90   343.33   392.99   411.80
                              432.93   462.85   505.19   517.87   567.45
                              574.10   587.21   665.67   690.80   705.96
                              715.80   717.05   725.28   750.58   802.16
                              820.82   854.87   875.99   892.97   938.48
                             1003.32  1004.12  1005.33  1078.54  1088.94
                             1096.00  1133.39  1160.89  1170.06  1330.19
                             1331.65  1333.82  1350.69  1381.91  1385.09
                             1399.47  1402.47  1540.59  1547.20  1584.82
                             1588.76  1589.64  1600.82  1667.25  1676.13
                             1677.67  1689.00  1699.42  1710.63  1761.33
                             1877.33  1891.08  1931.39  1954.37  2038.89
                             2041.14  2097.42  2184.95  2217.13  2231.59
                             2289.79  2320.35  2321.71  4459.54  4460.11
                             4569.73  4570.20  4592.62  4592.85

 Zero-point correction=                           0.179807 (Hartree/Particle)
 Thermal correction to Energy=                    0.199215
 Thermal correction to Enthalpy=                  0.200159
 Thermal correction to Gibbs Free Energy=         0.127729
 Sum of electronic and zero-point Energies=          -1935.309662
 Sum of electronic and thermal Energies=             -1935.290254
 Sum of electronic and thermal Enthalpies=           -1935.289310
 Sum of electronic and thermal Free Energies=        -1935.361740

                     E (Thermal)             CV                S
                      KCal/Mol        Cal/Mol-Kelvin    Cal/Mol-Kelvin
 Total                  125.009             74.631            152.442
 Electronic               0.000              0.000              1.377
 Translational            0.889              2.981             43.585
 Rotational               0.889              2.981             35.260
 Vibrational            123.232             68.670             72.220
 Vibration     1          0.592              1.987             10.617
 Vibration     2          0.593              1.984              5.870
 Vibration     3          0.594              1.983              5.754
 Vibration     4          0.600              1.962              3.851
 Vibration     5          0.601              1.959              3.753
 Vibration     6          0.605              1.947              3.399
 Vibration     7          0.609              1.931              3.080
 Vibration     8          0.616              1.909              2.754
 Vibration     9          0.626              1.878              2.427
 Vibration    10          0.627              1.875              2.394
 Vibration    11          0.643              1.825              2.040
 Vibration    12          0.646              1.813              1.974
 Vibration    13          0.657              1.781              1.813
 Vibration    14          0.676              1.723              1.576
 Vibration    15          0.684              1.699              1.496
 Vibration    16          0.693              1.672              1.412
 Vibration    17          0.707              1.632              1.301
 Vibration    18          0.728              1.573              1.161
 Vibration    19          0.734              1.555              1.122
 Vibration    20          0.761              1.482              0.983
 Vibration    21          0.765              1.472              0.966
 Vibration    22          0.773              1.453              0.933
 Vibration    23          0.820              1.333              0.758
 Vibration    24          0.836              1.294              0.710
 Vibration    25          0.846              1.271              0.682
 Vibration    26          0.853              1.256              0.664
 Vibration    27          0.854              1.254              0.662
 Vibration    28          0.859              1.241              0.648
 Vibration    29          0.877              1.202              0.606
 Vibration    30          0.913              1.123              0.529
 Vibration    31          0.927              1.095              0.503
 Vibration    32          0.952              1.044              0.460
 Vibration    33          0.968              1.013              0.435
 Vibration    34          0.981              0.988              0.415

                           ! Non-Optimized Parameters !
 Normal termination of Gaussian 16 at Mon Jan  8 19:24:09 2024.
