 Q-Chem 5.4, Q-Chem, Inc., Pleasanton, CA (2021)
 Q-Chem 5.4.0 for Intel X86 EM64T Linux

User input:
--------------------------------------------------------------
$molecule
-2 1
C                  5.8746170000     -5.6568880000      0.5319670000
C                  6.0158510000     -5.8635210000     -0.8289930000
C                  5.2822010000     -5.0669160000     -1.7391050000
C                  5.0108010000     -4.6648650000      1.0448540000
C                  4.2679090000     -3.8599970000      0.1235570000
C                  4.4285300000     -4.0889310000     -1.2599840000
C                  4.8961980000     -4.4794060000      2.4910370000
C                  3.9872120000     -3.4459890000      2.9198170000
C                  3.2647920000     -2.6503870000      2.0148700000
C                  3.3554300000     -2.8165630000      0.5874430000
O                  5.5692600000     -5.1976020000      3.3068300000
O                  2.6872680000     -2.0986020000     -0.2313310000
H                  6.6873930000     -6.6353090000     -1.1987020000
C                  2.3345170000     -1.5553640000      2.4893310000
H                  5.3886870000     -5.2241360000     -2.8101480000
C                  3.8610860000     -3.2492610000      4.4137480000
C                  0.8562850000     -1.9864540000      2.5917380000
C                 -0.0732530000     -0.8517970000      3.0408080000
C                 -1.5491780000     -1.2535500000      3.1643250000
H                  6.4236980000     -6.2504290000      1.2555640000
H                  3.8501920000     -3.4624500000     -1.9311990000
H                  2.3882680000     -0.7357110000      1.7639860000
H                  2.6575090000     -1.1655020000      3.4620160000
H                  4.3878230000     -4.0628880000      4.9156600000
H                  2.8162940000     -3.2373550000      4.7485220000
H                  4.3110350000     -2.3021540000      4.7474400000
H                  0.7688110000     -2.8281500000      3.2910950000
H                  0.5445880000     -2.3551900000      1.6091540000
H                  0.0140690000     -0.0181020000      2.3310430000
H                  0.2719150000     -0.4623700000      4.0096620000
H                 -1.6371490000     -2.0924890000      3.8678270000
H                 -1.9012290000     -1.6329690000      2.1961640000
C                 -2.4654250000     -0.1121610000      3.6251860000
C                 -3.9417100000     -0.5053690000      3.7684240000
C                 -4.8449330000      0.6428200000      4.2374250000
C                 -6.3217840000      0.2562900000      4.3904580000
C                 -7.2154020000      1.4095770000      4.8657810000
C                 -8.6897190000      1.0259550000      5.0228860000
H                 -2.3830280000      0.7232800000      2.9169350000
H                 -2.1027370000      0.2727440000      4.5881350000
H                 -4.0255750000     -1.3418070000      4.4750790000
H                 -4.3100130000     -0.8856740000      2.8064220000
H                 -4.7629690000      1.4781520000      3.5290780000
H                 -4.4722500000      1.0241660000      5.1976810000
H                 -6.4072540000     -0.5790810000      5.0976970000
H                 -6.7005840000     -0.1205950000      3.4314370000
H                 -7.1312790000      2.2451840000      4.1589900000
H                 -6.8353580000      1.7878230000      5.8236050000
H                 -9.1184610000      0.6819040000      4.0746140000
H                 -9.2950550000      1.8730980000      5.3632980000
H                 -8.8190870000      0.2210220000      5.7555390000
$end
$rem
MAX_SCF_CYCLES=200
BASIS  =  6-311++G(d,p)
GUI  =  2
JOB_TYPE  =  SP
METHOD  =  B3LYP
THRESH = 14
SCF_CONVERGENCE = 8
SCF_ALGORITHM = RCA_DIIS
scf_guess = GWH
SOLVENT_METHOD = PCM
$end
$pcm
theory = CPCM
$end
$solvent
dielectric 37.219
opticaldielectric 1.43
$end

--------------------------------------------------------------

             Standard Nuclear Orientation (Angstroms)
    I     Atom           X                Y                Z
 ----------------------------------------------------------------
    1      C       5.8746170000    -5.6568880000     0.5319670000
    2      C       6.0158510000    -5.8635210000    -0.8289930000
    3      C       5.2822010000    -5.0669160000    -1.7391050000
    4      C       5.0108010000    -4.6648650000     1.0448540000
    5      C       4.2679090000    -3.8599970000     0.1235570000
    6      C       4.4285300000    -4.0889310000    -1.2599840000
    7      C       4.8961980000    -4.4794060000     2.4910370000
    8      C       3.9872120000    -3.4459890000     2.9198170000
    9      C       3.2647920000    -2.6503870000     2.0148700000
   10      C       3.3554300000    -2.8165630000     0.5874430000
   11      O       5.5692600000    -5.1976020000     3.3068300000
   12      O       2.6872680000    -2.0986020000    -0.2313310000
   13      H       6.6873930000    -6.6353090000    -1.1987020000
   14      C       2.3345170000    -1.5553640000     2.4893310000
   15      H       5.3886870000    -5.2241360000    -2.8101480000
   16      C       3.8610860000    -3.2492610000     4.4137480000
   17      C       0.8562850000    -1.9864540000     2.5917380000
   18      C      -0.0732530000    -0.8517970000     3.0408080000
   19      C      -1.5491780000    -1.2535500000     3.1643250000
   20      H       6.4236980000    -6.2504290000     1.2555640000
   21      H       3.8501920000    -3.4624500000    -1.9311990000
   22      H       2.3882680000    -0.7357110000     1.7639860000
   23      H       2.6575090000    -1.1655020000     3.4620160000
   24      H       4.3878230000    -4.0628880000     4.9156600000
   25      H       2.8162940000    -3.2373550000     4.7485220000
   26      H       4.3110350000    -2.3021540000     4.7474400000
   27      H       0.7688110000    -2.8281500000     3.2910950000
   28      H       0.5445880000    -2.3551900000     1.6091540000
   29      H       0.0140690000    -0.0181020000     2.3310430000
   30      H       0.2719150000    -0.4623700000     4.0096620000
   31      H      -1.6371490000    -2.0924890000     3.8678270000
   32      H      -1.9012290000    -1.6329690000     2.1961640000
   33      C      -2.4654250000    -0.1121610000     3.6251860000
   34      C      -3.9417100000    -0.5053690000     3.7684240000
   35      C      -4.8449330000     0.6428200000     4.2374250000
   36      C      -6.3217840000     0.2562900000     4.3904580000
   37      C      -7.2154020000     1.4095770000     4.8657810000
   38      C      -8.6897190000     1.0259550000     5.0228860000
   39      H      -2.3830280000     0.7232800000     2.9169350000
   40      H      -2.1027370000     0.2727440000     4.5881350000
   41      H      -4.0255750000    -1.3418070000     4.4750790000
   42      H      -4.3100130000    -0.8856740000     2.8064220000
   43      H      -4.7629690000     1.4781520000     3.5290780000
   44      H      -4.4722500000     1.0241660000     5.1976810000
   45      H      -6.4072540000    -0.5790810000     5.0976970000
   46      H      -6.7005840000    -0.1205950000     3.4314370000
   47      H      -7.1312790000     2.2451840000     4.1589900000
   48      H      -6.8353580000     1.7878230000     5.8236050000
   49      H      -9.1184610000     0.6819040000     4.0746140000
   50      H      -9.2950550000     1.8730980000     5.3632980000
   51      H      -8.8190870000     0.2210220000     5.7555390000
 ----------------------------------------------------------------

   97    -968.0790772048      2.12E-09 Convergence criterion met
 Total energy in the final basis set = -968.07907720

                    Orbital Energies (a.u.)
 --------------------------------------------------------------

 Alpha MOs
 -- Occupied --
-19.0125 -19.0122 -10.1620 -10.1613 -10.1567 -10.1538 -10.1534 -10.1529
-10.1520 -10.1506 -10.1506 -10.1479 -10.1451 -10.1446 -10.1427 -10.1420
-10.1419 -10.1348 -10.1310 -10.1295 -10.1291 -10.1208 -10.1175  -0.9368
 -0.9337  -0.8219  -0.8037  -0.7894  -0.7751  -0.7548  -0.7281  -0.7184
 -0.7151  -0.6889  -0.6596  -0.6332  -0.6154  -0.5964  -0.5722  -0.5687
 -0.5635  -0.5603  -0.5450  -0.5147  -0.4801  -0.4749  -0.4596  -0.4559
 -0.4373  -0.4268  -0.4259  -0.4203  -0.4127  -0.4052  -0.3991  -0.3961
 -0.3911  -0.3808  -0.3779  -0.3715  -0.3686  -0.3625  -0.3592  -0.3510
 -0.3472  -0.3464  -0.3371  -0.3315  -0.3293  -0.3234  -0.3186  -0.3163
 -0.3139  -0.3128  -0.3116  -0.3096  -0.3041  -0.3017  -0.2956  -0.2856
 -0.2267  -0.2209  -0.1997  -0.1975  -0.1872  -0.1019

          Ground-State Mulliken Net Atomic Charges

     Atom                 Charge (a.u.)
  ----------------------------------------
      1 C                     0.090002
      2 C                    -0.501630
      3 C                    -0.491986
      4 C                     0.197278
      5 C                    -0.154126
      6 C                    -0.016808
      7 C                    -0.688222
      8 C                     0.890238
      9 C                     0.960894
     10 C                    -0.866291
     11 O                    -0.715331
     12 O                    -0.698399
     13 H                     0.164615
     14 C                    -0.449432
     15 H                     0.165148
     16 C                    -0.570108
     17 C                    -0.963095
     18 C                    -0.264038
     19 C                    -0.078523
     20 H                     0.144816
     21 H                     0.142087
     22 H                     0.174034
     23 H                     0.165479
     24 H                     0.157261
     25 H                     0.143745
     26 H                     0.153950
     27 H                     0.126769
     28 H                     0.182097
     29 H                     0.121401
     30 H                     0.107574
     31 H                     0.130976
     32 H                     0.129411
     33 C                     0.069423
     34 C                    -0.035845
     35 C                    -0.232730
     36 C                    -0.452144
     37 C                    -0.287390
     38 C                    -0.717698
     39 H                     0.134215
     40 H                     0.132954
     41 H                     0.133719
     42 H                     0.134912
     43 H                     0.130533
     44 H                     0.130542
     45 H                     0.128534
     46 H                     0.129243
     47 H                     0.135455
     48 H                     0.135263
     49 H                     0.144938
     50 H                     0.151294
     51 H                     0.144998
  ----------------------------------------
  Sum of atomic charges =    -2.000000

                    Cartesian Multipole Moments
 -----------------------------------------------------------------
    Charge (ESU x 10^10)
                -9.6064
    Dipole Moment (Debye)
         X     -40.5641      Y      36.3744      Z     -12.7916
       Tot      55.9658
    Quadrupole Moments (Debye-Ang)
        XX    -348.3020     XY     172.1100     YY    -313.8942
        XZ     -68.7810     YZ      64.7395     ZZ    -199.1705

 Total job time:  2756.16s(wall), 16363.71s(cpu)
        *  Thank you very much for using Q-Chem.  Have a nice day.  *
