 Gaussian 16, Revision A.03,
 Gaussian 16:  ES64L-G16RevA.03 25-Dec-2016

 ----------------------------------------------------------------
 #P UB3LYP/6-311++G(d,p) SCRF=(PCM,Solvent=n,n-DiMethylFormamide)
 ----------------------------------------------------------------

 ------------------
 Quinone PCM in DMF
 ------------------
 Symbolic Z-matrix:
 Charge =  0 Multiplicity = 1

                         Standard orientation:
 ---------------------------------------------------------------------
 Center     Atomic      Atomic             Coordinates (Angstroms)
 Number     Number       Type             X           Y           Z
 ---------------------------------------------------------------------
      1          6           0       -1.195301    1.513330    0.382887
      2          6           0       -2.536164    1.875723   -0.136196
      3          6           0       -3.390190    0.935261   -0.553023
      4          6           0       -3.030995   -0.502687   -0.513518
      5          6           0       -1.687840   -0.894862    0.029565
      6          8           0       -0.413916    2.374722    0.752488
      7          8           0       -3.813169   -1.347476   -0.916829
      8          1           0       -2.768016    2.934975   -0.151010
      9          6           0       -0.835039    0.068091    0.440233
     10          6           0        0.506133   -0.248286    1.082259
     11          6           0        1.744732   -0.132498    0.265908
     12          6           0        2.984086   -0.317579    0.896054
     13          6           0        1.704433    0.142595   -1.106449
     14          6           0        4.160110   -0.226542    0.163791
     15          6           0        4.111848    0.046033   -1.205597
     16          6           0        2.884497    0.228973   -1.839996
     17          8           0        0.520199   -0.593236    2.247592
     18          6           0       -1.402481   -2.365992    0.069998
     19          1           0        2.999581   -0.527307    1.958538
     20          1           0        0.752609    0.285789   -1.604320
     21          1           0        5.116173   -0.365481    0.655343
     22          1           0        5.031242    0.116913   -1.776027
     23          1           0        2.847249    0.440729   -2.902274
     24          1           0       -4.377225    1.163873   -0.939488
     25          1           0       -2.097734   -2.862014    0.753667
     26          1           0       -0.386211   -2.577494    0.397877
     27          1           0       -1.569563   -2.811416   -0.913810
 ---------------------------------------------------------------------

 SCF Done:  E(UB3LYP) =  -765.371523252     A.U. after   15 cycles

 The electronic state is 1-A.
 Alpha  occ. eigenvalues --  -19.15024 -19.14984 -19.14036 -10.29687 -10.29394
 Alpha  occ. eigenvalues --  -10.29201 -10.23277 -10.22309 -10.21798 -10.21709
 Alpha  occ. eigenvalues --  -10.20311 -10.19950 -10.19651 -10.19553 -10.19206
 Alpha  occ. eigenvalues --  -10.19173 -10.18393  -1.08368  -1.08036  -1.07363
 Alpha  occ. eigenvalues --   -0.88246  -0.87561  -0.82085  -0.78486  -0.76867
 Alpha  occ. eigenvalues --   -0.74630  -0.70104  -0.67539  -0.63648  -0.62232
 Alpha  occ. eigenvalues --   -0.60704  -0.57331  -0.54190  -0.53838  -0.51074
 Alpha  occ. eigenvalues --   -0.49685  -0.48100  -0.47771  -0.46816  -0.45781
 Alpha  occ. eigenvalues --   -0.45274  -0.45054  -0.44319  -0.44190  -0.43334
 Alpha  occ. eigenvalues --   -0.42693  -0.41442  -0.41085  -0.39920  -0.38053
 Alpha  occ. eigenvalues --   -0.37857  -0.36297  -0.31936  -0.30823  -0.30086
 Alpha  occ. eigenvalues --   -0.29511  -0.27933  -0.27617  -0.27280
 Alpha virt. eigenvalues --   -0.14226  -0.08684  -0.03697  -0.03108  -0.01089
 Alpha virt. eigenvalues --   -0.00829   0.00221   0.00784   0.01195   0.01360
 Alpha virt. eigenvalues --    0.02072   0.02891   0.03195   0.03616   0.04395

  Beta  occ. eigenvalues --  -19.15024 -19.14984 -19.14036 -10.29687 -10.29394
  Beta  occ. eigenvalues --  -10.29201 -10.23277 -10.22309 -10.21798 -10.21709
  Beta  occ. eigenvalues --  -10.20311 -10.19950 -10.19651 -10.19553 -10.19206
  Beta  occ. eigenvalues --  -10.19173 -10.18393  -1.08368  -1.08036  -1.07363
  Beta  occ. eigenvalues --   -0.88246  -0.87561  -0.82085  -0.78486  -0.76867
  Beta  occ. eigenvalues --   -0.74630  -0.70104  -0.67539  -0.63648  -0.62232
  Beta  occ. eigenvalues --   -0.60704  -0.57331  -0.54190  -0.53838  -0.51074
  Beta  occ. eigenvalues --   -0.49685  -0.48100  -0.47771  -0.46816  -0.45781
  Beta  occ. eigenvalues --   -0.45274  -0.45054  -0.44319  -0.44190  -0.43334
  Beta  occ. eigenvalues --   -0.42693  -0.41442  -0.41085  -0.39920  -0.38053
  Beta  occ. eigenvalues --   -0.37857  -0.36297  -0.31936  -0.30823  -0.30086
  Beta  occ. eigenvalues --   -0.29511  -0.27933  -0.27617  -0.27280
  Beta virt. eigenvalues --   -0.14226  -0.08684  -0.03697  -0.03108  -0.01089
  Beta virt. eigenvalues --   -0.00829   0.00221   0.00784   0.01195   0.01360
  Beta virt. eigenvalues --    0.02072   0.02891   0.03195   0.03616   0.04395

 Mulliken charges and spin densities:
               1          2
     1  C   -0.330429  -0.000000
     2  C   -0.196613   0.000000
     3  C    0.168363  -0.000000
     4  C   -0.393467   0.000000
     5  C    0.030135   0.000000
     6  O   -0.272323   0.000000
     7  O   -0.274541   0.000000
     8  H    0.243903  -0.000000
     9  C    1.056487  -0.000000
    10  C   -0.216996  -0.000000
    11  C    0.601178  -0.000000
    12  C    0.428475  -0.000000
    13  C   -0.864804   0.000000
    14  C   -0.451095   0.000000
    15  C   -0.305462   0.000000
    16  C   -0.193720   0.000000
    17  O   -0.259399   0.000000
    18  C   -0.585920   0.000000
    19  H    0.222215   0.000000
    20  H    0.161622  -0.000000
    21  H    0.206306   0.000000
    22  H    0.188870   0.000000
    23  H    0.223512  -0.000000
    24  H    0.250376  -0.000000
    25  H    0.204396  -0.000000
    26  H    0.159511   0.000000
    27  H    0.199419   0.000000
 Sum of Mulliken charges =  -0.00000  -0.00000

 Dipole moment (field-independent basis, Debye):
    X=              1.2819    Y=              0.0609    Z=             -4.1410  Tot=              4.3353
 Quadrupole moment (field-independent basis, Debye-Ang):
   XX=            -85.9315   YY=           -103.1895   ZZ=           -102.2346
   XY=            -11.9539   XZ=             -6.1653   YZ=             -5.0132

 Normal termination of Gaussian 16 at Wed Jan 24 22:50:37 2024.
