 Gaussian 16, Revision A.03,
 Gaussian 16:  ES64L-G16RevA.03 25-Dec-2016

 --------------------------------------
 #P UB3LYP/6-311++G(d,p) nosym opt freq
 --------------------------------------

 --------
 Oxidized
 --------
 Symbolic Z-matrix:
 Charge =  0 Multiplicity = 1

 SCF Done:  E(UB3LYP) =  -765.357670323     A.U. after   16 cycles
 Optimization completed.
    -- Stationary point found.
 Normal termination of Gaussian 16 at Wed Jan 10 04:54:24 2024.

 ----------------------------------------------------------------------
 #P Geom=AllCheck Guess=TCheck SCRF=Check GenChk UB3LYP/6-311++G(d,p) F
 req
 ----------------------------------------------------------------------

 Structure from the checkpoint file:  "079.chk"
 --------
 Oxidized
 --------
 Charge =  0 Multiplicity = 1

                          Input orientation:
 ---------------------------------------------------------------------
 Center     Atomic      Atomic             Coordinates (Angstroms)
 Number     Number       Type             X           Y           Z
 ---------------------------------------------------------------------
      1          6           0        1.124188    1.402848   -2.736517
      2          6           0       -0.252498    1.690495   -3.206289
      3          6           0       -1.220042    0.773321   -3.105177
      4          6           0       -0.955215   -0.563781   -2.521824
      5          6           0        0.425368   -0.869325   -2.018397
      6          8           0        2.007725    2.238194   -2.840072
      7          8           0       -1.843503   -1.397250   -2.455506
      8          1           0       -0.413130    2.677129   -3.626695
      9          6           0        1.392269    0.066036   -2.134140
     10          6           0        2.790820   -0.131127   -1.571809
     11          6           0        3.897339   -0.499254   -2.495964
     12          6           0        5.202383   -0.569208   -1.986745
     13          6           0        3.669258   -0.786758   -3.847253
     14          6           0        6.258195   -0.918996   -2.817672
     15          6           0        6.022540   -1.206650   -4.164361
     16          6           0        4.728553   -1.141787   -4.677888
     17          8           0        2.957226    0.014084   -0.376647
     18          6           0        0.615303   -2.227288   -1.412468
     19          1           0        5.363689   -0.341753   -0.940159
     20          1           0        2.664959   -0.737581   -4.251373
     21          1           0        7.266007   -0.967314   -2.421485
     22          1           0        6.848242   -1.479566   -4.811997
     23          1           0        4.545956   -1.364669   -5.722705
     24          1           0       -2.236635    0.948607   -3.439350
     25          1           0       -0.000478   -2.323869   -0.513411
     26          1           0        1.653048   -2.413727   -1.141604
     27          1           0        0.272843   -3.001611   -2.103369
 ---------------------------------------------------------------------

 SCF Done:  E(UB3LYP) =  -765.357670323     A.U. after    1 cycles

 Alpha  occ. eigenvalues --  -19.14786 -19.14626 -19.13350 -10.29415 -10.29271
 Alpha  occ. eigenvalues --  -10.28629 -10.23311 -10.22376 -10.22352 -10.22265
 Alpha  occ. eigenvalues --  -10.20420 -10.20322 -10.20117 -10.19742 -10.19698
 Alpha  occ. eigenvalues --  -10.19584 -10.18818  -1.07954  -1.07736  -1.06636
 Alpha  occ. eigenvalues --   -0.88449  -0.87792  -0.82471  -0.78688  -0.77207
 Alpha  occ. eigenvalues --   -0.74798  -0.70374  -0.67691  -0.63917  -0.62578
 Alpha  occ. eigenvalues --   -0.60889  -0.57510  -0.54304  -0.53901  -0.51177
 Alpha  occ. eigenvalues --   -0.49794  -0.48095  -0.47514  -0.47098  -0.45835
 Alpha  occ. eigenvalues --   -0.45459  -0.44841  -0.44632  -0.44260  -0.43274
 Alpha  occ. eigenvalues --   -0.42509  -0.41561  -0.41049  -0.40186  -0.38300
 Alpha  occ. eigenvalues --   -0.37914  -0.36742  -0.32093  -0.30763  -0.29704
 Alpha  occ. eigenvalues --   -0.29321  -0.28063  -0.27764  -0.26809
 Alpha virt. eigenvalues --   -0.14199  -0.08430  -0.04112  -0.03410  -0.01522
 Alpha virt. eigenvalues --   -0.01116  -0.00559   0.00181   0.00676   0.01212
 Alpha virt. eigenvalues --    0.01876   0.02374   0.02948   0.03251   0.04313

  Beta  occ. eigenvalues --  -19.14786 -19.14626 -19.13350 -10.29415 -10.29271
  Beta  occ. eigenvalues --  -10.28629 -10.23311 -10.22376 -10.22352 -10.22265
  Beta  occ. eigenvalues --  -10.20420 -10.20322 -10.20117 -10.19742 -10.19698
  Beta  occ. eigenvalues --  -10.19584 -10.18818  -1.07954  -1.07736  -1.06636
  Beta  occ. eigenvalues --   -0.88449  -0.87792  -0.82471  -0.78688  -0.77207
  Beta  occ. eigenvalues --   -0.74798  -0.70374  -0.67691  -0.63917  -0.62578
  Beta  occ. eigenvalues --   -0.60889  -0.57510  -0.54304  -0.53901  -0.51177
  Beta  occ. eigenvalues --   -0.49794  -0.48095  -0.47514  -0.47098  -0.45835
  Beta  occ. eigenvalues --   -0.45459  -0.44841  -0.44632  -0.44260  -0.43274
  Beta  occ. eigenvalues --   -0.42509  -0.41561  -0.41049  -0.40186  -0.38300
  Beta  occ. eigenvalues --   -0.37914  -0.36742  -0.32093  -0.30763  -0.29704
  Beta  occ. eigenvalues --   -0.29321  -0.28063  -0.27764  -0.26809
  Beta virt. eigenvalues --   -0.14199  -0.08430  -0.04112  -0.03410  -0.01522
  Beta virt. eigenvalues --   -0.01116  -0.00559   0.00181   0.00676   0.01212
  Beta virt. eigenvalues --    0.01876   0.02374   0.02948   0.03251   0.04313

 Mulliken charges and spin densities:
               1          2
     1  C   -0.419730   0.000000
     2  C   -0.157970   0.000000
     3  C    0.189322  -0.000000
     4  C   -0.462078   0.000000
     5  C    0.026632   0.000000
     6  O   -0.204663  -0.000000
     7  O   -0.220028  -0.000000
     8  H    0.222321   0.000000
     9  C    1.018233  -0.000000
    10  C   -0.245655   0.000000
    11  C    0.637805  -0.000000
    12  C    0.379417  -0.000000
    13  C   -0.830172   0.000000
    14  C   -0.404727   0.000000
    15  C   -0.270807   0.000000
    16  C   -0.159377   0.000000
    17  O   -0.196166  -0.000000
    18  C   -0.548790   0.000000
    19  H    0.221019   0.000000
    20  H    0.122850   0.000000
    21  H    0.178050   0.000000
    22  H    0.158933  -0.000000
    23  H    0.192569  -0.000000
    24  H    0.228592  -0.000000
    25  H    0.194391  -0.000000
    26  H    0.157236  -0.000000
    27  H    0.192792  -0.000000
 Sum of Mulliken charges =  -0.00000  -0.00000

 Dipole moment (field-independent basis, Debye):
    X=              0.7723    Y=             -1.1922    Z=             -2.8046  Tot=              3.1438
 Quadrupole moment (field-independent basis, Debye-Ang):
   XX=            -88.7688   YY=           -102.0984   ZZ=            -83.8315
   XY=            -15.6728   XZ=             -9.4459   YZ=              2.7198

  Exact polarizability: 222.823  11.508 145.405  -9.775  -2.666 145.238
 Approx polarizability: 342.820  66.750 255.128 -12.302   3.594 251.429

                      1                      2                      3
                      A                      A                      A
 Frequencies --     23.4898                40.1729                54.1726
 Red. masses --      6.3932                 3.9738                 4.9592
 Frc consts  --      0.0021                 0.0038                 0.0086
 IR Inten    --      1.0835                 0.0735                 0.4673

                      4                      5                      6
                      A                      A                      A
 Frequencies --     82.4925                93.1627               114.3218
 Red. masses --      7.3253                 1.2124                 3.2576
 Frc consts  --      0.0294                 0.0062                 0.0251
 IR Inten    --     11.5769                 0.0966                 0.4829

                      7                      8                      9
                      A                      A                      A
 Frequencies --    130.4364               173.3604               238.2132
 Red. masses --      7.6466                 5.4065                 5.5343
 Frc consts  --      0.0767                 0.0957                 0.1850
 IR Inten    --      1.0789                 0.7830                 0.6074

                     10                     11                     12
                      A                      A                      A
 Frequencies --    239.4634               261.4213               323.0104
 Red. masses --      5.2756                 4.2516                 3.8041
 Frc consts  --      0.1782                 0.1712                 0.2339
 IR Inten    --      6.0921                 0.2126                 2.7512

                     13                     14                     15
                      A                      A                      A
 Frequencies --    355.1182               410.7712               412.1005
 Red. masses --      6.0606                 4.4615                 3.8692
 Frc consts  --      0.4503                 0.4435                 0.3871
 IR Inten    --      1.5407                12.1083                 8.3759

                     16                     17                     18
                      A                      A                      A
 Frequencies --    432.8504               443.3449               460.9807
 Red. masses --      4.3992                 6.3094                 7.8983
 Frc consts  --      0.4856                 0.7307                 0.9889
 IR Inten    --      2.0576                 1.8642                 3.5999

                     19                     20                     21
                      A                      A                      A
 Frequencies --    519.9450               570.4916               586.4294
 Red. masses --      5.9245                 2.9610                 4.8315
 Frc consts  --      0.9437                 0.5678                 0.9790
 IR Inten    --     20.3297                 3.6224                 3.2232

                     22                     23                     24
                      A                      A                      A
 Frequencies --    630.5505               647.6160               680.1881
 Red. masses --      6.3815                 3.9789                 6.3111
 Frc consts  --      1.4949                 0.9832                 1.7203
 IR Inten    --      0.5738                 3.7006                 9.9588

                     25                     26                     27
                      A                      A                      A
 Frequencies --    693.8911               703.5380               733.7337
 Red. masses --      4.5258                 1.6235                 6.9097
 Frc consts  --      1.2839                 0.4734                 2.1917
 IR Inten    --      2.4316                46.8365                 6.7319

                     28                     29                     30
                      A                      A                      A
 Frequencies --    781.9233               802.5015               831.6322
 Red. masses --      2.2102                 6.5205                 3.1791
 Frc consts  --      0.7962                 2.4741                 1.2955
 IR Inten    --     27.0886                 4.6937                13.7757

                     31                     32                     33
                      A                      A                      A
 Frequencies --    860.3060               861.4262               924.2612
 Red. masses --      1.4225                 1.8957                 3.4849
 Frc consts  --      0.6203                 0.8288                 1.7540
 IR Inten    --      8.9294                22.8917               104.0450

                     34                     35                     36
                      A                      A                      A
 Frequencies --    953.4782               998.8347              1012.1959
 Red. masses --      1.4534                 1.3763                 2.3113
 Frc consts  --      0.7785                 0.8090                 1.3952
 IR Inten    --      3.4159                 0.1952                 6.4043

                     37                     38                     39
                      A                      A                      A
 Frequencies --   1016.3414              1017.7348              1018.0638
 Red. masses --      3.0930                 1.2689                 2.6232
 Frc consts  --      1.8824                 0.7744                 1.6019
 IR Inten    --      1.0629                 0.0922                 9.9935

                     40                     41                     42
                      A                      A                      A
 Frequencies --   1045.5832              1047.4213              1094.1968
 Red. masses --      2.0133                 1.6534                 2.0869
 Frc consts  --      1.2968                 1.0687                 1.4721
 IR Inten    --      2.4314                 1.7025                 4.8308

                     43                     44                     45
                      A                      A                      A
 Frequencies --   1106.1588              1123.3892              1148.7700
 Red. masses --      1.5971                 1.9564                 2.0911
 Frc consts  --      1.1514                 1.4547                 1.6259
 IR Inten    --     10.7122                30.2089                 9.5281

                     46                     47                     48
                      A                      A                      A
 Frequencies --   1184.6593              1197.2107              1254.6141
 Red. masses --      1.1176                 1.1597                 4.0797
 Frc consts  --      0.9241                 0.9794                 3.7835
 IR Inten    --      1.0169                34.8263               175.8408

                     49                     50                     51
                      A                      A                      A
 Frequencies --   1298.7809              1324.5414              1340.3320
 Red. masses --      3.7361                 3.1170                 2.6366
 Frc consts  --      3.7131                 3.2220                 2.7907
 IR Inten    --    200.3700                14.0712                18.8454

                     52                     53                     54
                      A                      A                      A
 Frequencies --   1352.4037              1390.8402              1418.5722
 Red. masses --      2.1724                 2.0551                 1.2607
 Frc consts  --      2.3411                 2.3422                 1.4948
 IR Inten    --      5.8504                 1.5052                21.7250

                     55                     56                     57
                      A                      A                      A
 Frequencies --   1466.7755              1477.5123              1479.1104
 Red. masses --      1.0510                 1.2133                 1.8116
 Frc consts  --      1.3323                 1.5605                 2.3352
 IR Inten    --      4.6138                 1.2990                25.9455

                     58                     59                     60
                      A                      A                      A
 Frequencies --   1519.4637              1618.6387              1636.8009
 Red. masses --      2.1816                 5.5036                 5.5470
 Frc consts  --      2.9675                 8.4956                 8.7559
 IR Inten    --      1.6019                13.8463                38.1718

                     61                     62                     63
                      A                      A                      A
 Frequencies --   1647.6031              1682.6091              1712.3392
 Red. masses --      7.9724                 9.2438                10.8810
 Frc consts  --     12.7510                15.4194                18.7974
 IR Inten    --     26.2953                 4.5980               270.9486

                     64                     65                     66
                      A                      A                      A
 Frequencies --   1721.2065              1735.6504              3041.3827
 Red. masses --     10.4006                12.5794                 1.0385
 Frc consts  --     18.1541                22.3272                 5.6595
 IR Inten    --    195.3383               214.1416                 2.6315

                     67                     68                     69
                      A                      A                      A
 Frequencies --   3090.0371              3140.8567              3166.0971
 Red. masses --      1.0976                 1.1014                 1.0858
 Frc consts  --      6.1750                 6.4017                 6.4128
 IR Inten    --      3.8405                 7.0609                 0.3459

                     70                     71                     72
                      A                      A                      A
 Frequencies --   3175.5640              3176.2819              3183.3614
 Red. masses --      1.0883                 1.0872                 1.0921
 Frc consts  --      6.4661                 6.4627                 6.5205
 IR Inten    --      4.3508                 0.8179                18.2159

                     73                     74                     75
                      A                      A                      A
 Frequencies --   3192.2595              3194.1763              3200.0209
 Red. masses --      1.0960                 1.0997                 1.0947
 Frc consts  --      6.5807                 6.6107                 6.6046
 IR Inten    --      9.3354                 3.0177                 6.8279

 - Thermochemistry -
 -------------------
 Temperature   298.150 Kelvin.  Pressure   1.00000 Atm.
 Atom     1 has atomic number  6 and mass  12.00000

 Molecular mass:   226.06299 amu.
 Principal axes and moments of inertia in atomic units:
                           1         2         3
     Eigenvalues --  1982.914405986.837586307.29946
           X            0.98718   0.07190   0.14250
           Y           -0.11731   0.93224   0.34230
           Z           -0.10823  -0.35463   0.92872
 This molecule is an asymmetric top.
 Rotational symmetry number  1.
 Warning -- assumption of classical behavior for rotation
           may cause significant error
 Rotational temperatures (Kelvin)      0.04368     0.01447     0.01373
 Rotational constants (GHZ):           0.91015     0.30145     0.28614
 Zero-point vibrational energy     530658.6 (Joules/Mol)
                                  126.83045 (Kcal/Mol)
 Warning -- explicit consideration of  21 degrees of freedom as
           vibrations may cause significant error
 Vibrational temperatures:     33.80    57.80    77.94   118.69   134.04
          (Kelvin)            164.48   187.67   249.43   342.74   344.53
                              376.13   464.74   510.94   591.01   592.92
                              622.78   637.87   663.25   748.08   820.81
                              843.74   907.22   931.77   978.64   998.35
                             1012.23  1055.68  1125.01  1154.62  1196.53
                             1237.79  1239.40  1329.81  1371.84  1437.10
                             1456.32  1462.29  1464.29  1464.77  1504.36
                             1507.01  1574.31  1591.52  1616.31  1652.82
                             1704.46  1722.52  1805.11  1868.66  1905.72
                             1928.44  1945.81  2001.11  2041.01  2110.36
                             2125.81  2128.11  2186.17  2328.86  2354.99
                             2370.53  2420.90  2463.67  2476.43  2497.21
                             4375.87  4445.87  4518.99  4555.31  4568.93
                             4569.96  4580.15  4592.95  4595.71  4604.12

 Zero-point correction=                           0.202117 (Hartree/Particle)
 Thermal correction to Energy=                    0.216853
 Thermal correction to Enthalpy=                  0.217797
 Thermal correction to Gibbs Free Energy=         0.158442
 Sum of electronic and zero-point Energies=           -765.155553
 Sum of electronic and thermal Energies=              -765.140818
 Sum of electronic and thermal Enthalpies=            -765.139874
 Sum of electronic and thermal Free Energies=         -765.199228

                     E (Thermal)             CV                S
                      KCal/Mol        Cal/Mol-Kelvin    Cal/Mol-Kelvin
 Total                  136.077             55.027            124.922
 Electronic               0.000              0.000              0.000
 Translational            0.889              2.981             42.149
 Rotational               0.889              2.981             32.682
 Vibrational            134.300             49.066             50.090
 Vibration     1          0.593              1.985              6.315
 Vibration     2          0.594              1.981              5.251
 Vibration     3          0.596              1.976              4.659
 Vibration     4          0.600              1.961              3.831
 Vibration     5          0.602              1.954              3.593
 Vibration     6          0.607              1.938              3.194
 Vibration     7          0.612              1.923              2.940
 Vibration     8          0.627              1.875              2.399
 Vibration     9          0.656              1.782              1.816
 Vibration    10          0.657              1.780              1.807
 Vibration    11          0.669              1.743              1.652
 Vibration    12          0.708              1.629              1.295
 Vibration    13          0.731              1.565              1.143
 Vibration    14          0.775              1.447              0.924
 Vibration    15          0.776              1.444              0.919
 Vibration    16          0.794              1.399              0.849
 Vibration    17          0.803              1.376              0.816
 Vibration    18          0.819              1.337              0.763
 Vibration    19          0.875              1.206              0.610
 Vibration    20          0.927              1.095              0.503
 Vibration    21          0.944              1.061              0.474

 Optimization completed.
    -- Stationary point found.
 Normal termination of Gaussian 16 at Wed Jan 10 06:13:19 2024.
