 Q-Chem 5.4, Q-Chem, Inc., Pleasanton, CA (2021)
 Q-Chem 5.4.0 for Intel X86 EM64T Linux

User input:
--------------------------------------------------------------
$molecule
-1 2
O                 -1.3128890000     -2.5356770000      0.9701770000
C                 -1.1681490000     -1.3820420000      0.5004690000
C                 -2.3856890000     -0.6190100000      0.0806470000
O                 -2.4379130000     -0.1674800000     -1.2903240000
C                 -2.2876070000      0.8289820000     -0.2550240000
C                 -0.9703920000      1.5356940000     -0.1770470000
O                 -0.9519300000      2.7863880000     -0.2663300000
C                  0.1931130000      0.7020590000      0.0179120000
C                  1.4819480000      1.2908280000     -0.0533550000
C                  2.6261630000      0.5596620000      0.1676890000
C                  2.5324550000     -0.8232150000      0.4890820000
C                  1.2979440000     -1.4239580000      0.5774700000
C                  0.0978470000     -0.7040550000      0.3445350000
H                 -3.3260460000     -1.0294780000      0.4443080000
H                 -3.1566160000      1.4737200000     -0.1365660000
H                  1.5296990000      2.3482960000     -0.2894310000
H                  3.6001950000      1.0349450000      0.0971990000
H                  3.4350870000     -1.4015280000      0.6634480000
H                  1.2027780000     -2.4741290000      0.8311330000
$end
$rem
MAX_SCF_CYCLES=200
BASIS  =  6-311++G(d,p)
GUI  =  2
JOB_TYPE  =  SP
METHOD  =  B3LYP
SOLVENT_METHOD = COSMO
$end
$solvent
dielectric 37.219
opticaldielectric 1.43
$end

--------------------------------------------------------------

             Standard Nuclear Orientation (Angstroms)
    I     Atom           X                Y                Z
 ----------------------------------------------------------------
    1      O      -0.8042428020    -2.7378709657     0.3965505569
    2      C      -0.7657744359    -1.5010061916     0.1937336404
    3      C      -2.0554260027    -0.7448478818     0.1169518530
    4      O      -2.3092711368     0.0001268914    -1.0941399705
    5      C      -2.0554501196     0.7447746996     0.1176558184
    6      C      -0.7658581735     1.5008797193     0.1940458128
    7      O      -0.8042492767     2.7378588312     0.3964231365
    8      C       0.4422921568     0.7233100338     0.0441846320
    9      C       1.6877326591     1.3966087845    -0.0473048511
   10      C       2.8766734682     0.7114716943    -0.1457886352
   11      C       2.8767710502    -0.7113506498    -0.1456684098
   12      C       1.6878672058    -1.3965723130    -0.0471751581
   13      C       0.4423846883    -0.7233809371     0.0441403556
   14      H      -2.9225068859    -1.2878979252     0.4888012605
   15      H      -2.9227549949     1.2873925148     0.4894678519
   16      H       1.6653031182     2.4808588923    -0.0350890307
   17      H       3.8145731641     1.2535419281    -0.2239239626
   18      H       3.8147388080    -1.2533085247    -0.2237203315
   19      H       1.6654775340    -2.4808266897    -0.0348559187
 ----------------------------------------------------------------

   10    -610.5243747434      2.72e-06  Convergence criterion met
 Total energy in the final basis set =     -610.5243747434
    5    -610.6098743484      5.58e-06  Convergence criterion met
 Total energy in the final basis set =     -610.6098743484

                    Orbital Energies (a.u.)
 --------------------------------------------------------------

 Alpha MOs
 -- Occupied --
-19.1483 -19.0899 -19.0898 -10.2318 -10.2318 -10.2277 -10.2274 -10.1736
-10.1732 -10.1703 -10.1702 -10.1697 -10.1694  -1.0838  -1.0132  -1.0125
 -0.8540  -0.7744  -0.7532  -0.7020  -0.6939  -0.6292  -0.6159  -0.5631
 -0.5213  -0.5199  -0.5038  -0.4654  -0.4467  -0.4347  -0.4254  -0.4174
 -0.4152  -0.4104  -0.4103  -0.3715  -0.3544  -0.3521  -0.3396  -0.3209
 -0.3007  -0.2609  -0.2608  -0.2496  -0.2484  -0.1379

 Beta MOs
 -- Occupied --
-19.1474 -19.0848 -19.0848 -10.2295 -10.2295 -10.2278 -10.2275 -10.1721
-10.1717 -10.1702 -10.1702 -10.1689 -10.1685  -1.0825  -1.0040  -1.0035
 -0.8509  -0.7687  -0.7498  -0.6999  -0.6875  -0.6247  -0.6141  -0.5608
 -0.5182  -0.5174  -0.5024  -0.4625  -0.4417  -0.4309  -0.4240  -0.4118
 -0.4112  -0.4057  -0.3967  -0.3586  -0.3472  -0.3426  -0.3381  -0.3141
 -0.2958  -0.2520  -0.2475  -0.2447  -0.2409

          Ground-State Mulliken Net Atomic Charges

     Atom                 Charge (a.u.)    Spin (a.u.)
  --------------------------------------------------------
      1 O                    -0.498927       0.177108
      2 C                    -0.156317       0.132546
      3 C                    -0.120749      -0.002444
      4 O                    -0.207365       0.025268
      5 C                    -0.117935      -0.002360
      6 C                    -0.157589       0.132367
      7 O                    -0.498340       0.177295
      8 C                    -0.006638       0.094918
      9 C                     0.155469       0.020721
     10 C                    -0.393104       0.067973
     11 C                    -0.393046       0.067978
     12 C                     0.155047       0.020672
     13 C                    -0.004717       0.094854
     14 H                     0.242184       0.002407
     15 H                     0.242334       0.002408
     16 H                     0.178852      -0.000152
     17 H                     0.200969      -0.005705
     18 H                     0.201007      -0.005706
     19 H                     0.178865      -0.000147
  --------------------------------------------------------
  Sum of atomic charges =    -1.000000

                    Cartesian Multipole Moments
 -----------------------------------------------------------------
    Charge (ESU x 10^10)
                -4.8032
    Dipole Moment (Debye)
         X       3.3816      Y       0.0025      Z       0.4793
       Tot       3.4154
    Quadrupole Moments (Debye-Ang)
        XX     -75.6417     XY      -0.0009     YY    -113.2789
        XZ      -5.1108     YZ       0.0032     ZZ     -83.2207

 Total job time:  39.47s(wall), 286.51s(cpu)
        *  Thank you very much for using Q-Chem.  Have a nice day.  *
