 Gaussian 16, Revision A.03,
 Gaussian 16:  ES64L-G16RevA.03 25-Dec-2016

 ----------------------------------------------------------------------
 #P UB3LYP/6-311++G(d,p) nosym opt freq SCRF=(PCM,Solvent=n,n-DiMethylF
 ormamide)
 ----------------------------------------------------------------------

 --------
 Oxidized
 --------
 Symbolic Z-matrix:
 Charge =  0 Multiplicity = 1

 SCF Done:  E(UB3LYP) =  -685.777514570     A.U. after   15 cycles
 SCF Done:  E(UB3LYP) =  -685.777665237     A.U. after   12 cycles
 SCF Done:  E(UB3LYP) =  -685.777684374     A.U. after   12 cycles
 SCF Done:  E(UB3LYP) =  -685.777675368     A.U. after   11 cycles
 SCF Done:  E(UB3LYP) =  -685.777684380     A.U. after   10 cycles
 SCF Done:  E(UB3LYP) =  -685.777686784     A.U. after   11 cycles
 Optimization completed.
    -- Stationary point found.
 Normal termination of Gaussian 16 at Sun Feb 11 15:16:11 2024.

 ----------------------------------------------------------------------
 #P Geom=AllCheck Guess=TCheck SCRF=Check GenChk UB3LYP/6-311++G(d,p) F
 req
 ----------------------------------------------------------------------

 Structure from the checkpoint file:  "309.chk"
 --------
 Oxidized
 --------
 Charge =  0 Multiplicity = 1

                          Input orientation:
 ---------------------------------------------------------------------
 Center     Atomic      Atomic             Coordinates (Angstroms)
 Number     Number       Type             X           Y           Z
 ---------------------------------------------------------------------
      1          8           0        1.687034    2.357938    0.375778
      2          6           0        1.398720    1.183556    0.196504
      3          6           0       -0.017027    0.703272    0.207505
      4          6           0       -1.046907    1.614772    0.430525
      5          6           0       -2.373850    1.183299    0.444498
      6          6           0       -2.676626   -0.161205    0.235247
      7          6           0       -1.652215   -1.080488    0.011309
      8          6           0       -0.324915   -0.654205   -0.003150
      9          6           0        0.765888   -1.627059   -0.238529
     10          8           0        0.586437   -2.827744   -0.430682
     11          6           0        2.148339   -1.126501   -0.242669
     12          8           0        3.128854   -2.027470   -0.459403
     13          6           0        2.456993    0.178243   -0.041417
     14          8           0        3.720571    0.646083   -0.044322
     15          1           0       -0.801983    2.656858    0.591975
     16          1           0       -3.169538    1.897723    0.618871
     17          1           0       -3.707429   -0.494453    0.246361
     18          1           0       -1.872547   -2.127873   -0.152573
     19          1           0        2.702491   -2.895257   -0.578109
     20          1           0        4.334629   -0.084543   -0.208586
 ---------------------------------------------------------------------

 SCF Done:  E(UB3LYP) =  -685.777686784     A.U. after    1 cycles

 Alpha  occ. eigenvalues --  -19.18657 -19.18633 -19.14737 -19.14020 -10.29529
 Alpha  occ. eigenvalues --  -10.29274 -10.27003 -10.26725 -10.21586 -10.21526
 Alpha  occ. eigenvalues --  -10.20429 -10.20295 -10.20214 -10.20150  -1.11833
 Alpha  occ. eigenvalues --   -1.09673  -1.06954  -1.06459  -0.89715  -0.83817
 Alpha  occ. eigenvalues --   -0.78504  -0.77593  -0.71263  -0.66756  -0.65596
 Alpha  occ. eigenvalues --   -0.61461  -0.59367  -0.56764  -0.55456  -0.51114
 Alpha  occ. eigenvalues --   -0.50257  -0.48518  -0.47252  -0.46846  -0.45886
 Alpha  occ. eigenvalues --   -0.45687  -0.43706  -0.42464  -0.42323  -0.40942
 Alpha  occ. eigenvalues --   -0.38804  -0.38773  -0.37989  -0.37544  -0.30522
 Alpha  occ. eigenvalues --   -0.29306  -0.29138  -0.28408  -0.25077
 Alpha virt. eigenvalues --   -0.12982  -0.05900  -0.02644  -0.01619  -0.00056
 Alpha virt. eigenvalues --    0.01127   0.02054   0.02216   0.02537   0.04225
 Alpha virt. eigenvalues --    0.04527   0.05014   0.06177   0.06546   0.07170

  Beta  occ. eigenvalues --  -19.18657 -19.18633 -19.14737 -19.14020 -10.29529
  Beta  occ. eigenvalues --  -10.29274 -10.27003 -10.26725 -10.21586 -10.21526
  Beta  occ. eigenvalues --  -10.20429 -10.20295 -10.20214 -10.20150  -1.11833
  Beta  occ. eigenvalues --   -1.09673  -1.06954  -1.06459  -0.89715  -0.83817
  Beta  occ. eigenvalues --   -0.78504  -0.77593  -0.71263  -0.66756  -0.65596
  Beta  occ. eigenvalues --   -0.61461  -0.59367  -0.56764  -0.55456  -0.51114
  Beta  occ. eigenvalues --   -0.50257  -0.48518  -0.47252  -0.46846  -0.45886
  Beta  occ. eigenvalues --   -0.45687  -0.43706  -0.42464  -0.42323  -0.40942
  Beta  occ. eigenvalues --   -0.38804  -0.38773  -0.37989  -0.37544  -0.30522
  Beta  occ. eigenvalues --   -0.29306  -0.29138  -0.28408  -0.25077
  Beta virt. eigenvalues --   -0.12982  -0.05900  -0.02644  -0.01619  -0.00056
  Beta virt. eigenvalues --    0.01127   0.02054   0.02216   0.02537   0.04225
  Beta virt. eigenvalues --    0.04527   0.05014   0.06177   0.06546   0.07170

 Mulliken charges and spin densities:
               1          2
     1  O   -0.291895   0.000000
     2  C   -0.553277   0.000000
     3  C    0.387540  -0.000000
     4  C    0.286854  -0.000000
     5  C   -0.392870   0.000000
     6  C   -0.330645  -0.000000
     7  C    0.241657   0.000000
     8  C    0.386385  -0.000000
     9  C   -0.501918   0.000000
    10  O   -0.328685   0.000000
    11  C    0.059700  -0.000000
    12  O   -0.287775  -0.000000
    13  C    0.150030  -0.000000
    14  O   -0.261109  -0.000000
    15  H    0.184187  -0.000000
    16  H    0.211947   0.000000
    17  H    0.215233   0.000000
    18  H    0.186309  -0.000000
    19  H    0.317989   0.000000
    20  H    0.320344   0.000000
 Sum of Mulliken charges =   0.00000   0.00000

 Dipole moment (field-independent basis, Debye):
    X=             -3.0590    Y=             -2.2004    Z=             -0.1676  Tot=              3.7719
 Quadrupole moment (field-independent basis, Debye-Ang):
   XX=            -68.0923   YY=            -89.9626   ZZ=            -80.7382
   XY=            -13.4058   XZ=             -3.3706   YZ=             -0.8658

  Exact polarizability: 234.068   5.592 245.474  -8.816  26.934  89.740
 Approx polarizability: 263.668  21.543 337.063  -7.077  38.896 106.641

                      1                      2                      3
                      A                      A                      A
 Frequencies --     67.5749               109.8425               125.8099
 Red. masses --      9.6202                 5.3294                 7.7507
 Frc consts  --      0.0259                 0.0379                 0.0723
 IR Inten    --      8.4616                 0.1274                 0.0197

                      4                      5                      6
                      A                      A                      A
 Frequencies --    168.6400               255.3429               282.5409
 Red. masses --      6.6715                 5.5813                 5.1212
 Frc consts  --      0.1118                 0.2144                 0.2409
 IR Inten    --      0.5090                 2.3073                10.3424

                      7                      8                      9
                      A                      A                      A
 Frequencies --    305.0832               316.9712               377.6592
 Red. masses --      5.3781                 7.4355                10.4795
 Frc consts  --      0.2949                 0.4402                 0.8806
 IR Inten    --      0.4021                22.0031                30.8081

                     10                     11                     12
                      A                      A                      A
 Frequencies --    405.9155               408.4099               421.7533
 Red. masses --      1.3407                 9.8887                 9.3095
 Frc consts  --      0.1301                 0.9718                 0.9756
 IR Inten    --    189.2766                17.9715                16.8698

                     13                     14                     15
                      A                      A                      A
 Frequencies --    427.6097               450.9391               509.8536
 Red. masses --      3.2935                 3.3090                10.4677
 Frc consts  --      0.3548                 0.3964                 1.6032
 IR Inten    --     33.1634                44.5769                 0.6544

                     16                     17                     18
                      A                      A                      A
 Frequencies --    515.6186               578.2455               635.0793
 Red. masses --      1.0929                 6.8745                 8.4786
 Frc consts  --      0.1712                 1.3543                 2.0148
 IR Inten    --     68.8063                 6.0344                 4.9449

                     19                     20                     21
                      A                      A                      A
 Frequencies --    673.3946               696.7929               720.5288
 Red. masses --      6.6682                 5.3640                 3.2125
 Frc consts  --      1.7816                 1.5344                 0.9827
 IR Inten    --      9.9400                 0.4398                74.0117

                     22                     23                     24
                      A                      A                      A
 Frequencies --    725.8095               742.7093               804.1742
 Red. masses --      6.6439                 4.4090                 1.8600
 Frc consts  --      2.0621                 1.4329                 0.7087
 IR Inten    --     11.7656                27.4857                27.0973

                     25                     26                     27
                      A                      A                      A
 Frequencies --    886.7144               909.8544               976.4357
 Red. masses --      5.2881                 1.3172                 7.7639
 Frc consts  --      2.4497                 0.6425                 4.3613
 IR Inten    --     73.8608                 0.0014               298.6724

                     28                     29                     30
                      A                      A                      A
 Frequencies --    996.8510              1022.0515              1056.6723
 Red. masses --      1.3870                 1.3321                 2.1306
 Frc consts  --      0.8121                 0.8199                 1.4016
 IR Inten    --      2.1978                 0.0285                33.4535

                     31                     32                     33
                      A                      A                      A
 Frequencies --   1058.6133              1111.2474              1173.9711
 Red. masses --      3.9099                 2.0664                 1.5570
 Frc consts  --      2.5816                 1.5035                 1.2643
 IR Inten    --     62.9449                 0.0844               181.2322

                     34                     35                     36
                      A                      A                      A
 Frequencies --   1184.7064              1218.2299              1252.6550
 Red. masses --      1.3075                 2.4000                 2.3689
 Frc consts  --      1.0812                 2.0986                 2.1900
 IR Inten    --     90.0437                64.3041               774.4216

                     37                     38                     39
                      A                      A                      A
 Frequencies --   1287.7428              1300.9951              1353.0581
 Red. masses --      2.7305                 1.8857                 6.4428
 Frc consts  --      2.6677                 1.8805                 6.9495
 IR Inten    --    705.4401                64.0137                45.9167

                     40                     41                     42
                      A                      A                      A
 Frequencies --   1390.4874              1412.0115              1483.4470
 Red. masses --      3.9572                 2.5692                 2.3724
 Frc consts  --      4.5078                 3.0180                 3.0760
 IR Inten    --    209.7511               216.9671                 3.5581

                     43                     44                     45
                      A                      A                      A
 Frequencies --   1503.0233              1609.8376              1618.4644
 Red. masses --      2.7389                 6.4212                 6.1338
 Frc consts  --      3.6456                 9.8047                 9.4664
 IR Inten    --     14.5523                20.2175               348.6876

                     46                     47                     48
                      A                      A                      A
 Frequencies --   1671.6225              1696.1290              1703.0349
 Red. masses --     11.2933                10.4739                 9.3437
 Frc consts  --     18.5930                17.7533                15.9668
 IR Inten    --    701.5088               349.0649               417.5161

                     49                     50                     51
                      A                      A                      A
 Frequencies --   3181.5594              3193.0618              3202.9686
 Red. masses --      1.0874                 1.0910                 1.0929
 Frc consts  --      6.4853                 6.5536                 6.6061
 IR Inten    --      2.8580                 7.2022                 3.2906

                     52                     53                     54
                      A                      A                      A
 Frequencies --   3206.6364              3659.3172              3762.9577
 Red. masses --      1.0961                 1.0648                 1.0659
 Frc consts  --      6.6407                 8.4011                 8.8927
 IR Inten    --     14.3879               256.9967               202.2304

 - Thermochemistry -
 -------------------
 Temperature   298.150 Kelvin.  Pressure   1.00000 Atm.
 Atom     1 has atomic number  8 and mass  15.99491

 Molecular mass:   190.02661 amu.
 Principal axes and moments of inertia in atomic units:
                           1         2         3
     Eigenvalues --  1589.707872771.307204361.01386
           X            0.97366   0.21883   0.06411
           Y           -0.20573   0.96428  -0.16684
           Z           -0.09833   0.14925   0.98390
 This molecule is an asymmetric top.
 Rotational symmetry number  1.
 Warning -- assumption of classical behavior for rotation
           may cause significant error
 Rotational temperatures (Kelvin)      0.05448     0.03125     0.01986
 Rotational constants (GHZ):           1.13527     0.65122     0.41384
 Zero-point vibrational energy     369709.8 (Joules/Mol)
                                   88.36277 (Kcal/Mol)
 Warning -- explicit consideration of  17 degrees of freedom as
           vibrations may cause significant error
 Vibrational temperatures:     97.23   158.04   181.01   242.64   367.38
          (Kelvin)            406.51   438.95   456.05   543.37   584.02
                              587.61   606.81   615.23   648.80   733.57
                              741.86   831.97   913.74   968.86  1002.53
                             1036.68  1044.28  1068.59  1157.03  1275.78
                             1309.08  1404.87  1434.25  1470.50  1520.32
                             1523.11  1598.84  1689.08  1704.53  1752.76
                             1802.29  1852.77  1871.84  1946.75  2000.60
                             2031.57  2134.35  2162.52  2316.20  2328.61
                             2405.09  2440.35  2450.29  4577.55  4594.10
                             4608.36  4613.63  5264.94  5414.06

 Zero-point correction=                           0.140815 (Hartree/Particle)
 Thermal correction to Energy=                    0.151767
 Thermal correction to Enthalpy=                  0.152712
 Thermal correction to Gibbs Free Energy=         0.104144
 Sum of electronic and zero-point Energies=           -685.636872
 Sum of electronic and thermal Energies=              -685.625919
 Sum of electronic and thermal Enthalpies=            -685.624975
 Sum of electronic and thermal Free Energies=         -685.673543

                     E (Thermal)             CV                S
                      KCal/Mol        Cal/Mol-Kelvin    Cal/Mol-Kelvin
 Total                   95.236             43.085            102.220
 Electronic               0.000              0.000              0.000
 Translational            0.889              2.981             41.632
 Rotational               0.889              2.981             31.330
 Vibrational             93.458             37.123             29.258
 Vibration     1          0.598              1.970              4.223
 Vibration     2          0.606              1.941              3.272
 Vibration     3          0.611              1.927              3.009
 Vibration     4          0.625              1.881              2.451
 Vibration     5          0.666              1.754              1.693
 Vibration     6          0.682              1.706              1.518
 Vibration     7          0.696              1.664              1.389
 Vibration     8          0.704              1.641              1.326
 Vibration     9          0.748              1.518              1.049
 Vibration    10          0.771              1.457              0.941
 Vibration    11          0.773              1.452              0.932
 Vibration    12          0.784              1.423              0.886
 Vibration    13          0.789              1.410              0.866
 Vibration    14          0.810              1.359              0.793
 Vibration    15          0.865              1.228              0.634
 Vibration    16          0.871              1.215              0.620
 Vibration    17          0.935              1.078              0.489

 Optimization completed.
    -- Stationary point found.
 Normal termination of Gaussian 16 at Sun Feb 11 15:43:08 2024.
