 Gaussian 16, Revision A.03,
 Gaussian 16:  ES64L-G16RevA.03 25-Dec-2016

 ----------------------------------------------------------------------
 #P UB3LYP/6-311++G(d,p) nosym opt freq SCRF=(PCM,Solvent=n,n-DiMethylF
 ormamide)
 ----------------------------------------------------------------------

 -------
 Reduced
 -------
 Symbolic Z-matrix:
 Charge = -2 Multiplicity = 1

 SCF Done:  E(UB3LYP) =  -1051.69861155     A.U. after   19 cycles
 SCF Done:  E(UB3LYP) =  -1051.69891146     A.U. after   17 cycles
 SCF Done:  E(UB3LYP) =  -1051.70000619     A.U. after   16 cycles
 SCF Done:  E(UB3LYP) =  -1051.70025213     A.U. after   13 cycles
 SCF Done:  E(UB3LYP) =  -1051.70026770     A.U. after   13 cycles
 SCF Done:  E(UB3LYP) =  -1051.70028511     A.U. after   11 cycles
 SCF Done:  E(UB3LYP) =  -1051.70027809     A.U. after   11 cycles
 SCF Done:  E(UB3LYP) =  -1051.70025880     A.U. after   12 cycles
 SCF Done:  E(UB3LYP) =  -1051.70028676     A.U. after   11 cycles
 SCF Done:  E(UB3LYP) =  -1051.70029056     A.U. after   11 cycles
 SCF Done:  E(UB3LYP) =  -1051.70029185     A.U. after   10 cycles
 SCF Done:  E(UB3LYP) =  -1051.70029389     A.U. after   11 cycles
 SCF Done:  E(UB3LYP) =  -1051.70029485     A.U. after   10 cycles
 SCF Done:  E(UB3LYP) =  -1051.70029569     A.U. after   10 cycles
 SCF Done:  E(UB3LYP) =  -1051.70029587     A.U. after   10 cycles
 Optimization completed.
    -- Stationary point found.
 Normal termination of Gaussian 16 at Sun Feb 11 04:04:51 2024.

 ----------------------------------------------------------------------
 #P Geom=AllCheck Guess=TCheck SCRF=Check GenChk UB3LYP/6-311++G(d,p) F
 req
 ----------------------------------------------------------------------

 Structure from the checkpoint file:  "278-an.chk"
 -------
 Reduced
 -------
 Charge = -2 Multiplicity = 1

                          Input orientation:
 ---------------------------------------------------------------------
 Center     Atomic      Atomic             Coordinates (Angstroms)
 Number     Number       Type             X           Y           Z
 ---------------------------------------------------------------------
      1          6           0        0.208686    3.950421    0.277950
      2          6           0       -0.934054    3.550404    0.943249
      3          6           0       -1.255817    2.174059    1.010246
      4          6           0        1.081692    3.023192   -0.344151
      5          6           0        0.755992    1.624891   -0.277803
      6          6           0       -0.426871    1.247013    0.410078
      7          6           0        2.267443    3.503428   -1.041610
      8          6           0        3.074955    2.481198   -1.603526
      9          6           0        2.770635    1.079304   -1.524433
     10          6           0        1.597820    0.610531   -0.888943
     11          8           0        2.531948    4.774330   -1.110750
     12          8           0        1.265573   -0.658731   -0.827267
     13          1           0        0.471838    5.000502    0.214483
     14          1           0       -1.581511    4.285048    1.412464
     15          1           0       -2.151898    1.850109    1.531400
     16          1           0       -0.661573    0.189401    0.450981
     17         16           0        4.531006    3.006162   -2.524483
     18          6           0        3.691246    0.043076   -2.125902
     19          1           0        3.640556    0.015922   -3.223708
     20          1           0        3.396466   -0.941412   -1.759832
     21          1           0        4.739508    0.227386   -1.873086
     22          6           0        5.575577    3.802072   -1.223757
     23          6           0        6.765517    4.519821   -1.853076
     24          1           0        5.911048    3.024248   -0.533586
     25          1           0        4.923964    4.495462   -0.692528
     26          1           0        7.395002    3.832550   -2.426531
     27          1           0        7.389308    4.971556   -1.075614
     28          1           0        6.437558    5.317632   -2.525276
 ---------------------------------------------------------------------

 SCF Done:  E(UB3LYP) =  -1051.70029587     A.U. after    1 cycles

 Alpha  occ. eigenvalues --  -88.81148 -19.01495 -19.00848 -10.17438 -10.17295
 Alpha  occ. eigenvalues --  -10.16383 -10.15619 -10.15011 -10.14914 -10.14691
 Alpha  occ. eigenvalues --  -10.14627 -10.14500 -10.13892 -10.13838 -10.13141
 Alpha  occ. eigenvalues --  -10.12961  -7.89749  -5.86130  -5.85778  -5.85155
 Alpha  occ. eigenvalues --   -0.92840  -0.91654  -0.82529  -0.78991  -0.76368
 Alpha  occ. eigenvalues --   -0.72412  -0.72171  -0.69559  -0.65065  -0.62656
 Alpha  occ. eigenvalues --   -0.59212  -0.56609  -0.55293  -0.51812  -0.47596
 Alpha  occ. eigenvalues --   -0.46130  -0.44234  -0.43065  -0.42378  -0.40913
 Alpha  occ. eigenvalues --   -0.39843  -0.39393  -0.37568  -0.37435  -0.36315
 Alpha  occ. eigenvalues --   -0.36172  -0.35073  -0.34806  -0.34557  -0.33164
 Alpha  occ. eigenvalues --   -0.32146  -0.31123  -0.30578  -0.30006  -0.28660
 Alpha  occ. eigenvalues --   -0.22831  -0.22008  -0.21686  -0.19684  -0.19559
 Alpha  occ. eigenvalues --   -0.18551  -0.11314
 Alpha virt. eigenvalues --   -0.00812  -0.00113   0.00405   0.00722   0.01212
 Alpha virt. eigenvalues --    0.02146   0.02320   0.02805   0.03874   0.04218
 Alpha virt. eigenvalues --    0.04529   0.05034   0.05568   0.05653   0.06457

  Beta  occ. eigenvalues --  -88.81148 -19.01495 -19.00848 -10.17438 -10.17295
  Beta  occ. eigenvalues --  -10.16383 -10.15619 -10.15011 -10.14914 -10.14691
  Beta  occ. eigenvalues --  -10.14627 -10.14500 -10.13892 -10.13838 -10.13141
  Beta  occ. eigenvalues --  -10.12961  -7.89749  -5.86130  -5.85778  -5.85155
  Beta  occ. eigenvalues --   -0.92840  -0.91654  -0.82529  -0.78991  -0.76368
  Beta  occ. eigenvalues --   -0.72412  -0.72171  -0.69559  -0.65065  -0.62656
  Beta  occ. eigenvalues --   -0.59212  -0.56609  -0.55293  -0.51812  -0.47596
  Beta  occ. eigenvalues --   -0.46130  -0.44234  -0.43065  -0.42378  -0.40913
  Beta  occ. eigenvalues --   -0.39843  -0.39393  -0.37568  -0.37435  -0.36315
  Beta  occ. eigenvalues --   -0.36172  -0.35073  -0.34806  -0.34557  -0.33164
  Beta  occ. eigenvalues --   -0.32146  -0.31123  -0.30578  -0.30006  -0.28660
  Beta  occ. eigenvalues --   -0.22831  -0.22008  -0.21686  -0.19684  -0.19559
  Beta  occ. eigenvalues --   -0.18551  -0.11314
  Beta virt. eigenvalues --   -0.00812  -0.00113   0.00405   0.00722   0.01212
  Beta virt. eigenvalues --    0.02146   0.02320   0.02805   0.03874   0.04218
  Beta virt. eigenvalues --    0.04529   0.05034   0.05568   0.05653   0.06457

 Mulliken charges and spin densities:
               1          2
     1  C   -0.009673  -0.000000
     2  C   -0.456150   0.000000
     3  C   -0.426267   0.000000
     4  C    0.089159   0.000000
     5  C    0.345282  -0.000000
     6  C    0.041608  -0.000000
     7  C   -0.674143  -0.000000
     8  C    0.688890  -0.000000
     9  C    0.488657   0.000000
    10  C   -0.683476  -0.000000
    11  O   -0.635522  -0.000000
    12  O   -0.708097   0.000000
    13  H    0.157873  -0.000000
    14  H    0.155062   0.000000
    15  H    0.154391   0.000000
    16  H    0.150465   0.000000
    17  S   -0.663565  -0.000000
    18  C   -0.356788  -0.000000
    19  H    0.145384  -0.000000
    20  H    0.158812   0.000000
    21  H    0.128120   0.000000
    22  C   -0.317245   0.000000
    23  C   -0.568315   0.000000
    24  H    0.166461   0.000000
    25  H    0.200537  -0.000000
    26  H    0.140135  -0.000000
    27  H    0.143452  -0.000000
    28  H    0.144954   0.000000
 Sum of Mulliken charges =  -2.00000  -0.00000

 Dipole moment (field-independent basis, Debye):
    X=            -18.1678    Y=            -19.7515    Z=             11.0306  Tot=             29.0149
 Quadrupole moment (field-independent basis, Debye-Ang):
   XX=           -158.1425   YY=           -207.2744   ZZ=           -134.1017
   XY=            -47.5978   XZ=             32.0419   YZ=             27.9580

  Exact polarizability: 389.172   7.411 340.694-110.615  15.366 253.669
 Approx polarizability: 404.541   3.160 385.950-112.895  20.414 275.807

                      1                      2                      3
                      A                      A                      A
 Frequencies --     45.4548                47.1771                87.4322
 Red. masses --      3.7303                 4.8610                 3.0695
 Frc consts  --      0.0045                 0.0064                 0.0138
 IR Inten    --      3.2761                 8.4966                 8.1739

                      4                      5                      6
                      A                      A                      A
 Frequencies --     97.7883               113.3118               123.1750
 Red. masses --      1.5610                 1.4501                 3.5410
 Frc consts  --      0.0088                 0.0110                 0.0317
 IR Inten    --      6.3834                 4.7110                 2.2334

                      7                      8                      9
                      A                      A                      A
 Frequencies --    160.2981               189.5824               220.5743
 Red. masses --      3.9163                 7.0292                 3.0617
 Frc consts  --      0.0593                 0.1489                 0.0878
 IR Inten    --      1.2111                 3.9769                 9.9908

                     10                     11                     12
                      A                      A                      A
 Frequencies --    237.9769               252.0733               287.2951
 Red. masses --      1.6411                 3.2121                 4.8249
 Frc consts  --      0.0548                 0.1203                 0.2346
 IR Inten    --      3.7954                 0.3399                16.9653

                     13                     14                     15
                      A                      A                      A
 Frequencies --    300.2407               342.2317               374.0279
 Red. masses --      4.8192                 3.6225                10.0559
 Frc consts  --      0.2560                 0.2500                 0.8289
 IR Inten    --      2.3382                 3.1328                15.9092

                     16                     17                     18
                      A                      A                      A
 Frequencies --    383.0951               411.0211               429.1345
 Red. masses --      7.6765                 7.1734                 6.1814
 Frc consts  --      0.6638                 0.7140                 0.6707
 IR Inten    --      0.9620                 7.7112                 5.3775

                     19                     20                     21
                      A                      A                      A
 Frequencies --    460.4875               505.0864               526.0534
 Red. masses --      3.3255                10.4868                 4.7112
 Frc consts  --      0.4155                 1.5762                 0.7681
 IR Inten    --      3.0165                 0.4201                 1.7455

                     22                     23                     24
                      A                      A                      A
 Frequencies --    568.8620               652.6793               655.3571
 Red. masses --      6.5615                 5.5394                 4.8358
 Frc consts  --      1.2510                 1.3903                 1.2237
 IR Inten    --     32.1912                12.5474                 7.7768

                     25                     26                     27
                      A                      A                      A
 Frequencies --    674.8628               684.0621               695.3067
 Red. masses --      4.8411                 4.9588                 2.8786
 Frc consts  --      1.2991                 1.3671                 0.8200
 IR Inten    --      4.8252                10.7215                89.2736

                     28                     29                     30
                      A                      A                      A
 Frequencies --    775.3761               789.1967               795.0006
 Red. masses --      1.8064                 3.7761                 1.1331
 Frc consts  --      0.6399                 1.3857                 0.4220
 IR Inten    --     55.8181                 2.1835                12.6632

                     31                     32                     33
                      A                      A                      A
 Frequencies --    800.6370               847.6998               865.2350
 Red. masses --      6.0212                 4.6540                 1.6105
 Frc consts  --      2.2741                 1.9704                 0.7103
 IR Inten    --    110.1658                 1.2753                 0.1010

                     34                     35                     36
                      A                      A                      A
 Frequencies --    965.2362               972.6241               984.0620
 Red. masses --      6.8533                 1.3492                 1.9536
 Frc consts  --      3.7620                 0.7520                 1.1147
 IR Inten    --    144.4734                 3.7406                14.7513

                     37                     38                     39
                      A                      A                      A
 Frequencies --    985.8728              1008.5406              1029.6010
 Red. masses --      1.2613                 1.9215                 2.1184
 Frc consts  --      0.7223                 1.1516                 1.3231
 IR Inten    --      1.4593                58.1380                86.4215

                     40                     41                     42
                      A                      A                      A
 Frequencies --   1034.2564              1042.4772              1065.6173
 Red. masses --      1.2135                 1.4482                 1.9799
 Frc consts  --      0.7648                 0.9273                 1.3246
 IR Inten    --      8.5875                11.9558                30.9919

                     43                     44                     45
                      A                      A                      A
 Frequencies --   1099.1903              1118.3635              1150.9635
 Red. masses --      2.4925                 2.1074                 2.1089
 Frc consts  --      1.7743                 1.5529                 1.6460
 IR Inten    --    135.5336               129.4953                31.3577

                     46                     47                     48
                      A                      A                      A
 Frequencies --   1186.4529              1214.6726              1254.8374
 Red. masses --      1.7908                 2.9012                 1.9388
 Frc consts  --      1.4853                 2.5220                 1.7987
 IR Inten    --    154.3603               279.3434                36.4120

                     49                     50                     51
                      A                      A                      A
 Frequencies --   1259.3554              1274.8685              1313.8063
 Red. masses --      1.4241                 1.3220                 7.5338
 Frc consts  --      1.3307                 1.2659                 7.6617
 IR Inten    --      9.0183                31.4508               365.1581

                     52                     53                     54
                      A                      A                      A
 Frequencies --   1347.5871              1356.6758              1386.2526
 Red. masses --      4.3348                 3.0705                 1.9446
 Frc consts  --      4.6381                 3.3298                 2.2017
 IR Inten    --    565.4023               631.7687               736.7986

                     55                     56                     57
                      A                      A                      A
 Frequencies --   1400.3982              1418.3425              1427.3667
 Red. masses --      1.2333                 2.7029                 4.0499
 Frc consts  --      1.4250                 3.2036                 4.8615
 IR Inten    --      1.9244                 8.9321                20.9645

                     58                     59                     60
                      A                      A                      A
 Frequencies --   1458.6261              1479.5462              1484.0022
 Red. masses --      1.1485                 1.0439                 1.2398
 Frc consts  --      1.4397                 1.3463                 1.6087
 IR Inten    --      9.5267                12.1527                 7.4602

                     61                     62                     63
                      A                      A                      A
 Frequencies --   1484.4546              1492.7360              1499.5066
 Red. masses --      1.0596                 1.0933                 2.8522
 Frc consts  --      1.3758                 1.4353                 3.7786
 IR Inten    --      3.1322                 7.0768                22.5813

                     64                     65                     66
                      A                      A                      A
 Frequencies --   1505.3208              1578.4407              1609.6566
 Red. masses --      2.8504                 7.1961                 5.4824
 Frc consts  --      3.8055                10.5634                 8.3693
 IR Inten    --    221.5461                34.1834                 5.5460

                     67                     68                     69
                      A                      A                      A
 Frequencies --   2974.1670              3016.8651              3037.5965
 Red. masses --      1.0570                 1.0347                 1.0771
 Frc consts  --      5.5087                 5.5487                 5.8554
 IR Inten    --    218.8870                73.8315               105.7397

                     70                     71                     72
                      A                      A                      A
 Frequencies --   3039.0716              3072.2754              3080.4115
 Red. masses --      1.0630                 1.1021                 1.0996
 Frc consts  --      5.7845                 6.1290                 6.1476
 IR Inten    --     25.7155                38.2343                59.1093

                     73                     74                     75
                      A                      A                      A
 Frequencies --   3097.0924              3108.0570              3138.0531
 Red. masses --      1.0979                 1.1051                 1.0848
 Frc consts  --      6.2046                 6.2897                 6.2939
 IR Inten    --     28.6130                25.9564                18.0853

                     76                     77                     78
                      A                      A                      A
 Frequencies --   3154.2358              3174.3866              3177.9457
 Red. masses --      1.0899                 1.0905                 1.0930
 Frc consts  --      6.3891                 6.4742                 6.5035
 IR Inten    --     42.1678                37.3878                68.4369

 - Thermochemistry -
 -------------------
 Temperature   298.150 Kelvin.  Pressure   1.00000 Atm.
 Atom     1 has atomic number  6 and mass  12.00000

 Molecular mass:   232.05580 amu.
 Principal axes and moments of inertia in atomic units:
                           1         2         3
     Eigenvalues --  2171.817595404.153287268.28339
           X            0.89387  -0.14700   0.42354
           Y            0.24020   0.95471  -0.17558
           Z           -0.37855   0.25868   0.88870
 This molecule is an asymmetric top.
 Rotational symmetry number  1.
 Warning -- assumption of classical behavior for rotation
           may cause significant error
 Rotational temperatures (Kelvin)      0.03988     0.01603     0.01192
 Rotational constants (GHZ):           0.83098     0.33395     0.24830
 Zero-point vibrational energy     558402.8 (Joules/Mol)
                                  133.46148 (Kcal/Mol)
 Warning -- explicit consideration of  22 degrees of freedom as
           vibrations may cause significant error
 Vibrational temperatures:     65.40    67.88   125.80   140.70   163.03
          (Kelvin)            177.22   230.63   272.77   317.36   342.40
                              362.68   413.35   431.98   492.40   538.14
                              551.19   591.37   617.43   662.54   726.71
                              756.87   818.47   939.06   942.91   970.98
                              984.21  1000.39  1115.59  1135.48  1143.83
                             1151.94  1219.65  1244.88  1388.76  1399.39
                             1415.85  1418.45  1451.06  1481.37  1488.06
                             1499.89  1533.19  1581.49  1609.08  1655.98
                             1707.04  1747.64  1805.43  1811.93  1834.25
                             1890.27  1938.88  1951.95  1994.51  2014.86
                             2040.68  2053.66  2098.64  2128.74  2135.15
                             2135.80  2147.71  2157.46  2165.82  2271.02
                             2315.94  4279.16  4340.60  4370.42  4372.55
                             4420.32  4432.03  4456.03  4471.80  4514.96
                             4538.24  4567.23  4572.36

 Zero-point correction=                           0.212684 (Hartree/Particle)
 Thermal correction to Energy=                    0.227786
 Thermal correction to Enthalpy=                  0.228730
 Thermal correction to Gibbs Free Energy=         0.170040
 Sum of electronic and zero-point Energies=          -1051.487611
 Sum of electronic and thermal Energies=             -1051.472510
 Sum of electronic and thermal Enthalpies=           -1051.471566
 Sum of electronic and thermal Free Energies=        -1051.530256

                     E (Thermal)             CV                S
                      KCal/Mol        Cal/Mol-Kelvin    Cal/Mol-Kelvin
 Total                  142.938             57.187            123.522
 Electronic               0.000              0.000              0.000
 Translational            0.889              2.981             42.227
 Rotational               0.889              2.981             32.811
 Vibrational            141.160             51.225             48.484
 Vibration     1          0.595              1.979              5.006
 Vibration     2          0.595              1.979              4.932
 Vibration     3          0.601              1.958              3.717
 Vibration     4          0.603              1.951              3.498
 Vibration     5          0.607              1.938              3.211
 Vibration     6          0.610              1.930              3.050
 Vibration     7          0.622              1.891              2.546
 Vibration     8          0.633              1.854              2.232
 Vibration     9          0.647              1.810              1.954
 Vibration    10          0.656              1.782              1.818
 Vibration    11          0.664              1.759              1.716
 Vibration    12          0.684              1.697              1.490
 Vibration    13          0.693              1.673              1.416
 Vibration    14          0.721              1.591              1.202
 Vibration    15          0.745              1.525              1.063
 Vibration    16          0.752              1.506              1.027
 Vibration    17          0.775              1.446              0.923
 Vibration    18          0.790              1.407              0.861
 Vibration    19          0.818              1.338              0.765
 Vibration    20          0.860              1.239              0.646
 Vibration    21          0.881              1.192              0.596
 Vibration    22          0.925              1.099              0.506

 Optimization completed.
    -- Stationary point found.
 Normal termination of Gaussian 16 at Sun Feb 11 04:50:11 2024.
