 Q-Chem 5.4, Q-Chem, Inc., Pleasanton, CA (2021)
 Q-Chem 5.4.0 for Intel X86 EM64T Linux

User input:
--------------------------------------------------------------
$molecule
0 1
C                 -4.2271050000     -1.3039380000     -0.1775400000
C                 -3.9080960000     -1.7889130000     -1.4415640000
C                 -3.1023890000     -1.0366630000     -2.2999130000
C                 -3.7359830000     -0.0638090000      0.2398730000
C                 -2.9252240000      0.6907960000     -0.6235320000
C                 -2.6134660000      0.2004860000     -1.8932110000
C                 -4.1141050000      0.4468860000      1.5929330000
C                 -3.4657440000      1.7312820000      2.0431180000
C                 -2.6949090000      2.4432440000      1.1926310000
C                 -2.3927760000      2.0123090000     -0.1854280000
S                 -3.8792120000      2.4244470000      3.6226680000
C                 -3.6954950000      1.0447740000      4.7629890000
C                 -4.7492030000      0.7415120000      5.6226610000
C                 -2.4829480000      0.3578670000      4.8591470000
C                 -2.3144640000     -0.6654080000      5.7950410000
C                 -4.5780010000     -0.2597360000      6.5762180000
C                 -3.3773840000     -0.9592300000      6.6578790000
C                 -1.0193650000     -1.4378160000      5.8718340000
O                 -4.9250490000     -0.1331410000      2.2860860000
O                 -1.7040550000      2.7094410000     -0.9158430000
H                 -4.8569700000     -1.8683870000      0.4988250000
H                 -4.2891790000     -2.7519830000     -1.7615890000
H                 -2.8581880000     -1.4167840000     -3.2853270000
H                 -1.9893440000      0.8024200000     -2.5423370000
H                 -2.2412710000      3.3811630000      1.4936020000
H                 -5.6914850000      1.2677340000      5.5350240000
H                 -1.6607560000      0.6258170000      4.2044610000
H                 -5.3917160000     -0.5016860000      7.2507400000
H                 -3.2609260000     -1.7408510000      7.4017010000
H                 -0.2049300000     -0.9015740000      5.3804750000
H                 -1.1161980000     -2.4128350000      5.3824160000
H                 -0.7272610000     -1.6216110000      6.9088730000
$end
$rem
MAX_SCF_CYCLES=200
BASIS  =  6-311++G(d,p)
GUI  =  2
JOB_TYPE  =  SP
METHOD  =  B3LYP
SOLVENT_METHOD = COSMO
$end
$solvent
dielectric 37.219
opticaldielectric 1.43
$end

--------------------------------------------------------------

             Standard Nuclear Orientation (Angstroms)
    I     Atom           X                Y                Z
 ----------------------------------------------------------------
    1      C      -2.3622135251    -1.9425653216     0.8646112076
    2      C      -3.6122441433    -2.4648040981     0.5493109073
    3      C      -4.5349795687    -1.6962489738    -0.1646142944
    4      C      -2.0235050101    -0.6479327531     0.4614271025
    5      C      -2.9515867663     0.1231066737    -0.2571753690
    6      C      -4.2067375167    -0.4053031290    -0.5654956311
    7      C      -0.6836676552    -0.1001969910     0.8347612569
    8      C      -0.3201729376     1.2525603685     0.2774187034
    9      C      -1.2318325609     1.9786608927    -0.4052667173
   10      C      -2.5976747795     1.5030741406    -0.6956599099
   11      S       1.2382312725     1.9907390279     0.6932074618
   12      C       2.4362744705     0.6898249221     0.3617010652
   13      C       3.3477907501     0.3488178645     1.3587750826
   14      C       2.5207674338     0.1063273928    -0.9046912071
   15      C       3.4981201866    -0.8513953365    -1.1856270243
   16      C       4.3416107513    -0.5858594568     1.0763237690
   17      C       4.4126801599    -1.1835677503    -0.1787202505
   18      C       3.5643712892    -1.5145053218    -2.5405029012
   19      O       0.0660570181    -0.7061335893     1.5731895382
   20      O      -3.3857449925     2.2140737694    -1.3016801907
   21      H      -1.6366642901    -2.5195922376     1.4244508729
   22      H      -3.8711674229    -3.4699650350     0.8619677551
   23      H      -5.5092205585    -2.1057650470    -0.4061053586
   24      H      -4.9066957325     0.2099816090    -1.1174925173
   25      H      -0.9933854106     2.9635218585    -0.7916018866
   26      H       3.2696084192     0.7940537445     2.3427149888
   27      H       1.8240868494     0.4044130383    -1.6807013599
   28      H       5.0565238021    -0.8563798676     1.8453295358
   29      H       5.1885672620    -1.9146031045    -0.3820710232
   30      H       3.0180532078    -0.9415852962    -3.2925618861
   31      H       3.1264792528    -2.5178284792    -2.5064167557
   32      H       4.5976145894    -1.6215558080    -2.8803612722
 ----------------------------------------------------------------

    9   -1203.9037757384      7.05e-06  Convergence criterion met
 Total energy in the final basis set =    -1203.9037757384
    5   -1203.9203835491      4.00e-06  Convergence criterion met
 Total energy in the final basis set =    -1203.9203835491

                    Orbital Energies (a.u.)
 --------------------------------------------------------------

 Alpha MOs
 -- Occupied --
-88.8758 -19.1421 -19.1378 -10.2947 -10.2869 -10.2469 -10.2175 -10.2122
-10.2110 -10.2092 -10.1986 -10.1981 -10.1975 -10.1970 -10.1933 -10.1837
-10.1834 -10.1824 -10.1787 -10.1663  -7.9617  -5.9255  -5.9217  -5.9159
 -1.0784  -1.0700  -0.8934  -0.8798  -0.8561  -0.8054  -0.7816  -0.7797
 -0.7690  -0.7273  -0.6957  -0.6896  -0.6512  -0.6357  -0.6096  -0.5951
 -0.5801  -0.5486  -0.5323  -0.5181  -0.5020  -0.4835  -0.4768  -0.4687
 -0.4634  -0.4564  -0.4517  -0.4491  -0.4346  -0.4299  -0.4265  -0.4224
 -0.4190  -0.3947  -0.3900  -0.3839  -0.3792  -0.3709  -0.3670  -0.3532
 -0.3488  -0.3216  -0.2961  -0.2900  -0.2840  -0.2800  -0.2727  -0.2584
 -0.2400

          Ground-State Mulliken Net Atomic Charges

     Atom                 Charge (a.u.)
  ----------------------------------------
      1 C                     0.152592
      2 C                    -0.370490
      3 C                    -0.412774
      4 C                     0.053913
      5 C                     0.551465
      6 C                     0.137496
      7 C                    -0.954418
      8 C                     0.834661
      9 C                     0.027037
     10 C                    -0.511871
     11 S                    -0.442471
     12 C                     0.676556
     13 C                     0.002156
     14 C                    -0.792127
     15 C                     0.263511
     16 C                    -0.376428
     17 C                    -0.300557
     18 C                    -0.578881
     19 O                    -0.207870
     20 O                    -0.317938
     21 H                     0.217487
     22 H                     0.227490
     23 H                     0.230200
     24 H                     0.202786
     25 H                     0.278437
     26 H                     0.222639
     27 H                     0.245097
     28 H                     0.217814
     29 H                     0.202160
     30 H                     0.170565
     31 H                     0.193318
     32 H                     0.158444
  ----------------------------------------
  Sum of atomic charges =     0.000000

                    Cartesian Multipole Moments
 -----------------------------------------------------------------
    Charge (ESU x 10^10)
                -0.0000
    Dipole Moment (Debye)
         X       0.3038      Y      -4.4039      Z      -0.9528
       Tot       4.5161
    Quadrupole Moments (Debye-Ang)
        XX    -108.0234     XY      11.5998     YY    -121.7423
        XZ      -6.4664     YZ       5.3414     ZZ    -123.9553

 Total job time:  90.22s(wall), 677.05s(cpu)
        *  Thank you very much for using Q-Chem.  Have a nice day.  *
