 Q-Chem 5.4, Q-Chem, Inc., Pleasanton, CA (2021)
 Q-Chem 5.4.0 for Intel X86 EM64T Linux

User input:
--------------------------------------------------------------
$molecule
0 1
C                  5.9533810000     -5.1550410000      1.1116990000
C                  6.8898280000     -4.9632390000      0.0984110000
C                  6.6805030000     -3.9909400000     -0.8819780000
C                  4.7994170000     -4.3740470000      1.1508580000
C                  4.5901620000     -3.3991740000      0.1673340000
C                  5.5317560000     -3.2082840000     -0.8491570000
C                  3.8018690000     -4.5951050000      2.2501770000
C                  2.6030410000     -3.7548840000      2.2560720000
C                  2.3542120000     -2.7867810000      1.3139020000
C                  3.3723190000     -2.5680520000      0.2004460000
O                  4.0067710000     -5.4517320000      3.0971140000
O                  3.1463520000     -1.7065540000     -0.6339710000
H                  6.0970270000     -5.9033440000      1.8808770000
H                  7.7858480000     -5.5730900000      0.0720510000
H                  5.3468520000     -2.4481030000     -1.5978180000
Cl                 1.4999070000     -4.0895220000      3.5786150000
H                  7.4120790000     -3.8455080000     -1.6683250000
N                  1.3153520000     -1.9407690000      1.1791720000
C                  0.1019990000     -1.7564220000      1.9770210000
C                 -0.7492520000     -0.6434040000      1.3655670000
C                 -2.0363590000     -0.4014020000      2.1575270000
H                  1.4252970000     -1.3374800000      0.3701270000
H                  0.3662290000     -1.5012670000      3.0061970000
H                 -0.4690780000     -2.6874680000      2.0098830000
H                 -0.9958490000     -0.9062750000      0.3303730000
H                 -0.1600640000      0.2801070000      1.3263180000
H                 -2.6586360000     -1.3005020000      2.1893250000
H                 -2.6288750000      0.3964810000      1.7041220000
H                 -1.8194300000     -0.1091790000      3.1891090000
$end
$rem
MAX_SCF_CYCLES=200
BASIS  =  6-311++G(d,p)
GUI  =  2
JOB_TYPE  =  SP
METHOD  =  B3LYP
SOLVENT_METHOD = COSMO
$end
$solvent
dielectric 37.219
opticaldielectric 1.43
$end

--------------------------------------------------------------

             Standard Nuclear Orientation (Angstroms)
    I     Atom           X                Y                Z
 ----------------------------------------------------------------
    1      C       3.5658964216    -0.7840235183    -0.0002445949
    2      C       4.5505848006     0.2012999538    -0.0003607273
    3      C       4.1976745653     1.5525213450    -0.0002605092
    4      C       2.2194037487    -0.4233638345    -0.0000376032
    5      C       1.8662361614     0.9319062961     0.0000536194
    6      C       2.8565869821     1.9195790394    -0.0000469713
    7      C       1.1726535924    -1.4989032382     0.0000924132
    8      C      -0.2298506816    -1.0791694985     0.0000421224
    9      C      -0.6248345647     0.2364335206     0.0002065714
   10      C       0.4443090004     1.3232180147     0.0002627519
   11      O       1.5055771212    -2.6745982838     0.0002029209
   12      O       0.0878783760     2.4904578195     0.0005218623
   13      H       3.8186791376    -1.8367947388    -0.0003127323
   14      H       5.5965548042    -0.0840273169    -0.0005408100
   15      H       2.5577516941     2.9603745986     0.0000510065
   16      Cl     -1.3755139834    -2.4078766879    -0.0000173019
   17      H       4.9675103370     2.3154423061    -0.0003413591
   18      N      -1.8556979532     0.7824132557     0.0003621058
   19      C      -3.1880740473     0.1761572998     0.0002866403
   20      C      -4.2510921437     1.2749315789    -0.0006817518
   21      C      -5.6707339884     0.7030689076    -0.0002854005
   22      H      -1.8161529145     1.7968271087     0.0006014405
   23      H      -3.3097423586    -0.4597429636     0.8806004951
   24      H      -3.3091506123    -0.4607279312    -0.8793571359
   25      H      -4.1093033846     1.9121694687    -0.8812279915
   26      H      -4.1094626965     1.9135912921     0.8788695093
   27      H      -5.8497536023     0.0827414987    -0.8833292676
   28      H      -6.4136181887     1.5039377960    -0.0011066294
   29      H      -5.8498918833     0.0844083026     0.8838952371
 ----------------------------------------------------------------

    9   -1168.2318201585      5.96e-06  Convergence criterion met
 Total energy in the final basis set =    -1168.2318201585
    5   -1168.2480813398      4.53e-06  Convergence criterion met
 Total energy in the final basis set =    -1168.2480813398

                    Orbital Energies (a.u.)
 --------------------------------------------------------------

 Alpha MOs
 -- Occupied --
******** -19.1494 -19.1220 -14.3611 -10.2998 -10.2795 -10.2636 -10.2413
-10.2122 -10.2101 -10.2096 -10.1995 -10.1979 -10.1953 -10.1952 -10.1741
-10.1600  -9.4758  -7.2404  -7.2307  -7.2300  -1.0870  -1.0603  -0.9696
 -0.8929  -0.8785  -0.8198  -0.7944  -0.7792  -0.7541  -0.7080  -0.6815
 -0.6492  -0.6250  -0.6134  -0.5917  -0.5593  -0.5445  -0.5211  -0.4966
 -0.4892  -0.4859  -0.4698  -0.4628  -0.4526  -0.4508  -0.4503  -0.4315
 -0.4261  -0.4166  -0.4130  -0.3874  -0.3834  -0.3708  -0.3694  -0.3620
 -0.3548  -0.3436  -0.3305  -0.3195  -0.3031  -0.2869  -0.2802  -0.2789
 -0.2311

          Ground-State Mulliken Net Atomic Charges

     Atom                 Charge (a.u.)
  ----------------------------------------
      1 C                     0.104095
      2 C                    -0.397634
      3 C                    -0.539179
      4 C                     0.277076
      5 C                     0.460768
      6 C                     0.028790
      7 C                    -0.545976
      8 C                    -0.123147
      9 C                     0.079256
     10 C                    -0.333805
     11 O                    -0.322868
     12 O                    -0.281509
     13 H                     0.208721
     14 H                     0.224750
     15 H                     0.211369
     16 Cl                    0.490518
     17 H                     0.226205
     18 N                    -0.077346
     19 C                    -0.247564
     20 C                    -0.316290
     21 C                    -0.683251
     22 H                     0.373667
     23 H                     0.196272
     24 H                     0.196007
     25 H                     0.162155
     26 H                     0.161889
     27 H                     0.151009
     28 H                     0.164983
     29 H                     0.151038
  ----------------------------------------
  Sum of atomic charges =     0.000000

                    Cartesian Multipole Moments
 -----------------------------------------------------------------
    Charge (ESU x 10^10)
                -0.0000
    Dipole Moment (Debye)
         X      -0.9493      Y       5.3147      Z      -0.0011
       Tot       5.3988
    Quadrupole Moments (Debye-Ang)
        XX     -73.3868     XY       5.1362     YY    -124.5061
        XZ      -0.0052     YZ       0.0001     ZZ    -108.1781

 Total job time:  54.96s(wall), 415.55s(cpu)
        *  Thank you very much for using Q-Chem.  Have a nice day.  *
