 Q-Chem 5.4, Q-Chem, Inc., Pleasanton, CA (2021)
 Q-Chem 5.4.0 for Intel X86 EM64T Linux

User input:
--------------------------------------------------------------
$molecule
-1 2
C                 -5.5148860000     -0.0404140000     -0.4310770000
C                 -5.7487700000     -0.4882650000     -1.7197660000
C                 -4.6873610000     -0.5633470000     -2.6403330000
C                 -4.2244880000      0.3449330000     -0.0209240000
C                 -3.1561100000      0.2694130000     -0.9489970000
C                 -3.4120850000     -0.1888320000     -2.2552240000
C                 -4.0288170000      0.8243870000      1.3692780000
C                 -2.6647720000      1.1860620000      1.7021190000
C                 -1.6228280000      1.1046550000      0.7897210000
C                 -1.7852830000      0.6607260000     -0.5648610000
S                 -2.3270720000      1.8957690000      3.3104900000
C                 -2.4307660000      0.5358800000      4.4605460000
C                 -2.5675630000     -0.8009320000      4.0759670000
C                 -2.3347030000      0.8463200000      5.8249600000
C                 -2.3682750000     -0.1474280000      6.8034200000
C                 -2.6014610000     -1.7960790000      5.0485240000
C                 -2.4997540000     -1.4823930000      6.4030070000
C                 -2.3010680000      0.2171160000      8.2692720000
O                 -4.9843110000      0.8907500000      2.1722520000
O                 -0.8247410000      0.5984580000     -1.3770720000
H                 -6.3128390000      0.0282330000      0.2992700000
H                 -6.7500850000     -0.7819830000     -2.0205050000
H                 -4.8700900000     -0.9148480000     -3.6515610000
H                 -2.5741590000     -0.2354280000     -2.9414830000
H                 -0.6190960000      1.3858830000      1.0887120000
H                 -2.6480080000     -1.0530590000      3.0265610000
H                 -2.2364620000      1.8859760000      6.1246950000
H                 -2.7071600000     -2.8320790000      4.7420040000
H                 -2.5258020000     -2.2712140000      7.1488280000
H                 -1.7804560000      1.1662960000      8.4206080000
H                 -1.7790490000     -0.5510010000      8.8472120000
H                 -3.3048800000      0.3222550000      8.6972680000
$end
$rem
MAX_SCF_CYCLES=200
BASIS  =  6-311++G(d,p)
GUI  =  2
JOB_TYPE  =  SP
METHOD  =  B3LYP
SOLVENT_METHOD = COSMO
$end
$solvent
dielectric 37.219
opticaldielectric 1.43
$end

--------------------------------------------------------------

             Standard Nuclear Orientation (Angstroms)
    I     Atom           X                Y                Z
 ----------------------------------------------------------------
    1      C      -2.9893877934    -1.9181412405     0.5454743269
    2      C      -4.2917508433    -2.1277608591     0.1260679797
    3      C      -5.0062980923    -1.0856058635    -0.4928061331
    4      C      -2.3613022753    -0.6714708845     0.3633578867
    5      C      -3.0819799604     0.3777747364    -0.2596682891
    6      C      -4.4053798297     0.1467197986    -0.6803428161
    7      C      -0.9664200449    -0.4968799554     0.8373267146
    8      C      -0.4008360194     0.8158878091     0.5944971330
    9      C      -1.1107268162     1.8368137363    -0.0207343819
   10      C      -2.4651988370     1.7019488877    -0.4741370687
   11      S       1.2303660044     1.1853635170     1.2326587491
   12      C       2.3650653473     0.3092616697     0.1707819692
   13      C       1.9837865987    -0.3511011441    -1.0006394835
   14      C       3.7194830261     0.3243572929     0.5348582395
   15      C       4.6920252401    -0.2997810273    -0.2465885838
   16      C       2.9504859880    -0.9752508709    -1.7837506848
   17      C       4.2960913701    -0.9522115334    -1.4201812109
   18      C       6.1401997774    -0.3013833310     0.1880597073
   19      O      -0.3484695840    -1.4316574613     1.3909225227
   20      O      -3.0913991432     2.6444191593    -1.0271541657
   21      H      -2.4147423343    -2.7020061331     1.0252519501
   22      H      -4.7619700575    -3.0954497547     0.2737772573
   23      H      -6.0281120081    -1.2494231428    -0.8223287104
   24      H      -4.9298593178     0.9689354290    -1.1537615605
   25      H      -0.6415938515     2.8013060288    -0.1808331423
   26      H       0.9411106313    -0.3744736452    -1.2897293106
   27      H       4.0151835974     0.8306537680     1.4495177467
   28      H       2.6467179309    -1.4854433600    -2.6925143397
   29      H       5.0378241859    -1.4423953641    -2.0436539644
   30      H       6.3669160688     0.5591762381     0.8228187664
   31      H       6.8144758053    -0.2738049078    -0.6728197700
   32      H       6.3800020817    -1.2040483377     0.7621364070
 ----------------------------------------------------------------

   10   -1203.9848661651      8.04e-06  Convergence criterion met
 Total energy in the final basis set =    -1203.9848661651
    4   -1204.0688643259      9.99e-06  Convergence criterion met
 Total energy in the final basis set =    -1204.0688643259

                    Orbital Energies (a.u.)
 --------------------------------------------------------------

 Alpha MOs
 -- Occupied --
-88.8525 -19.0870 -19.0870 -10.2358 -10.2304 -10.2082 -10.1991 -10.1860
-10.1802 -10.1791 -10.1766 -10.1760 -10.1753 -10.1736 -10.1736 -10.1734
-10.1732 -10.1718 -10.1681 -10.1623  -7.9384  -5.9023  -5.8985  -5.8926
 -1.0154  -1.0102  -0.8689  -0.8633  -0.8259  -0.7879  -0.7666  -0.7544
 -0.7484  -0.7077  -0.6851  -0.6719  -0.6217  -0.6119  -0.6007  -0.5750
 -0.5579  -0.5146  -0.5092  -0.4994  -0.4745  -0.4685  -0.4538  -0.4419
 -0.4301  -0.4291  -0.4253  -0.4232  -0.4190  -0.4110  -0.4079  -0.3973
 -0.3880  -0.3851  -0.3700  -0.3650  -0.3587  -0.3505  -0.3444  -0.3430
 -0.3311  -0.2944  -0.2832  -0.2608  -0.2574  -0.2558  -0.2516  -0.2466
 -0.2151  -0.1641

 Beta MOs
 -- Occupied --
-88.8525 -19.0813 -19.0804 -10.2346 -10.2290 -10.2080 -10.1973 -10.1860
-10.1798 -10.1788 -10.1764 -10.1758 -10.1753 -10.1736 -10.1733 -10.1731
-10.1717 -10.1713 -10.1681 -10.1623  -7.9385  -5.9023  -5.8985  -5.8926
 -1.0056  -0.9987  -0.8685  -0.8616  -0.8219  -0.7861  -0.7663  -0.7529
 -0.7470  -0.7039  -0.6848  -0.6650  -0.6197  -0.6095  -0.6006  -0.5740
 -0.5557  -0.5128  -0.5078  -0.4971  -0.4727  -0.4673  -0.4527  -0.4413
 -0.4283  -0.4249  -0.4209  -0.4190  -0.4161  -0.4093  -0.4024  -0.3945
 -0.3857  -0.3705  -0.3643  -0.3616  -0.3512  -0.3493  -0.3441  -0.3419
 -0.3272  -0.2924  -0.2587  -0.2550  -0.2520  -0.2511  -0.2493  -0.2413
 -0.2139

          Ground-State Mulliken Net Atomic Charges

     Atom                 Charge (a.u.)    Spin (a.u.)
  --------------------------------------------------------
      1 C                     0.104097       0.027021
      2 C                    -0.447848       0.021379
      3 C                    -0.512612       0.011855
      4 C                    -0.190220      -0.014201
      5 C                     0.595604       0.022729
      6 C                    -0.078690       0.029481
      7 C                    -0.825330       0.107419
      8 C                     1.588150       0.095357
      9 C                    -0.268867       0.157935
     10 C                    -0.583809       0.108372
     11 S                    -0.276589      -0.001499
     12 C                     0.248000       0.008485
     13 C                     0.051213       0.004861
     14 C                    -0.741344       0.000908
     15 C                     0.183738      -0.001261
     16 C                    -0.254052      -0.007790
     17 C                    -0.537111       0.002780
     18 C                    -0.455928      -0.000002
     19 O                    -0.433398       0.208924
     20 O                    -0.513935       0.234205
     21 H                     0.196728      -0.002106
     22 H                     0.206402      -0.001828
     23 H                     0.205108      -0.001142
     24 H                     0.189261      -0.003078
     25 H                     0.228901      -0.013506
     26 H                     0.194599       0.004680
     27 H                     0.211508       0.000222
     28 H                     0.226503      -0.000152
     29 H                     0.183340      -0.000030
     30 H                     0.159382       0.000012
     31 H                     0.157887       0.000000
     32 H                     0.189307      -0.000032
  --------------------------------------------------------
  Sum of atomic charges =    -1.000006

                    Cartesian Multipole Moments
 -----------------------------------------------------------------
    Charge (ESU x 10^10)
                -4.8032
    Dipole Moment (Debye)
         X       6.6328      Y      -4.5320      Z      -1.9537
       Tot       8.2674
    Quadrupole Moments (Debye-Ang)
        XX    -133.2503     XY      19.6733     YY    -149.3987
        XZ      -6.1133     YZ      13.0003     ZZ    -135.8673

 Total job time:  123.65s(wall), 937.58s(cpu)
        *  Thank you very much for using Q-Chem.  Have a nice day.  *
