 Q-Chem 5.4, Q-Chem, Inc., Pleasanton, CA (2021)
 Q-Chem 5.4.0 for Intel X86 EM64T Linux

User input:
--------------------------------------------------------------
$molecule
0 1
Br                -3.1225130000     -1.1508900000      0.0156470000
C                 -1.3858860000     -0.4191810000      0.0071530000
C                 -1.1307250000      0.9033170000      0.0090440000
Br                -2.4708740000      2.2280860000      0.0203270000
C                  0.2762040000      1.4318280000      0.0020650000
O                  0.5040470000      2.6166980000      0.0038200000
C                  1.3857900000      0.4191990000     -0.0071540000
C                  1.1306890000     -0.9033620000     -0.0090480000
Br                 2.4706940000     -2.2279030000     -0.0203070000
C                 -0.2761760000     -1.4316630000     -0.0020940000
O                 -0.5038790000     -2.6165790000     -0.0038300000
Br                 3.1226290000      1.1504500000     -0.0156210000
$end

$rem
BASIS  =  6-311++G(d,p)
GUI  =  2
JOB_TYPE  =  SP
METHOD  =  B3LYP
SCF_CONVERGENCE  = 8
SOLVENT_METHOD = sm12
$end

$smx
solvent dimethylformamide
charges CM5
$end

--------------------------------------------------------------

             Standard Nuclear Orientation (Angstroms)
    I     Atom           X                Y                Z
 ----------------------------------------------------------------
    1      Br     -3.1225130000    -1.1508900000     0.0156470000
    2      C      -1.3858860000    -0.4191810000     0.0071530000
    3      C      -1.1307250000     0.9033170000     0.0090440000
    4      Br     -2.4708740000     2.2280860000     0.0203270000
    5      C       0.2762040000     1.4318280000     0.0020650000
    6      O       0.5040470000     2.6166980000     0.0038200000
    7      C       1.3857900000     0.4191990000    -0.0071540000
    8      C       1.1306890000    -0.9033620000    -0.0090480000
    9      Br      2.4706940000    -2.2279030000    -0.0203070000
   10      C      -0.2761760000    -1.4316630000    -0.0020940000
   11      O      -0.5038790000    -2.6165790000    -0.0038300000
   12      Br      3.1226290000     1.1504500000    -0.0156210000
 ----------------------------------------------------------------

   14  -10675.7005896557      8.65e-09  Convergence criterion met
 Total energy in the final basis set =   -10675.7158316295

                    Orbital Energies (a.u.)
 --------------------------------------------------------------

 Alpha MOs
 -- Occupied --
********-482.8666-482.8665-482.8665 -62.5193 -62.5193 -62.5192 -62.5192
-56.3400 -56.3400 -56.3400 -56.3400 -56.3360 -56.3360 -56.3360 -56.3360
-56.3354 -56.3354 -56.3354 -56.3354 -19.1708 -19.1707 -10.3283 -10.3282
-10.2925 -10.2925 -10.2917 -10.2917  -8.7281  -8.7281  -8.7281  -8.7280
 -6.5604  -6.5604  -6.5604  -6.5604  -6.5469  -6.5469  -6.5468  -6.5468
 -6.5451  -6.5451  -6.5450  -6.5450  -2.6714  -2.6714  -2.6713  -2.6713
 -2.6675  -2.6675  -2.6674  -2.6674  -2.6662  -2.6662  -2.6661  -2.6661
 -2.6555  -2.6555  -2.6555  -2.6555  -2.6555  -2.6555  -2.6554  -2.6554
 -1.1108  -1.1087  -0.9273  -0.8972  -0.8372  -0.8369  -0.8100  -0.7549
 -0.7231  -0.6347  -0.6340  -0.5793  -0.5178  -0.4980  -0.4962  -0.4666
 -0.4617  -0.4607  -0.4578  -0.4319  -0.4065  -0.3802  -0.3408  -0.3405
 -0.3355  -0.3328  -0.3254  -0.3242  -0.3106  -0.3016  -0.2953  -0.2816

          Ground-State Mulliken Net Atomic Charges

     Atom                 Charge (a.u.)
  ----------------------------------------
      1 Br                   -0.025476
      2 C                     0.565376
      3 C                     0.573162
      4 Br                   -0.024896
      5 C                    -0.969090
      6 O                    -0.119169
      7 C                     0.565554
      8 C                     0.573005
      9 Br                   -0.024765
     10 C                    -0.969029
     11 O                    -0.119150
     12 Br                   -0.025525
  ----------------------------------------
  Sum of atomic charges =     0.000000

                    Cartesian Multipole Moments
 -----------------------------------------------------------------
    Charge (ESU x 10^10)
                 0.0000
    Dipole Moment (Debye)
         X       0.0004      Y      -0.0011      Z      -0.0000
       Tot       0.0011
    Quadrupole Moments (Debye-Ang)
        XX    -108.7498     XY      -3.9148     YY    -128.2746
        XZ      -0.0516     YZ      -0.0102     ZZ    -115.7470

 Total job time:  155.69s(wall), 1032.77s(cpu)
        *  Thank you very much for using Q-Chem.  Have a nice day.  *
