 Q-Chem 5.4, Q-Chem, Inc., Pleasanton, CA (2021)
 Q-Chem 5.4.0 for Intel X86 EM64T Linux

User input:
--------------------------------------------------------------
$molecule
0 1
C                  2.1599690000     -2.5208730000     -4.0274120000
C                  1.2756170000     -3.0669170000     -4.9520070000
C                 -0.0436450000     -2.6110810000     -5.0156910000
C                  1.7282310000     -1.5141390000     -3.1602960000
C                  0.4053380000     -1.0563000000     -3.2251070000
C                 -0.4787440000     -1.6083840000     -4.1552610000
C                  2.6767380000     -0.9341090000     -2.1679910000
C                  2.1830180000      0.1364390000     -1.2456420000
C                  0.9098330000      0.5952810000     -1.3274740000
C                 -0.0606480000      0.0197760000     -2.3063180000
O                  3.8337410000     -1.3220000000     -2.1084010000
O                 -1.2131850000      0.4253440000     -2.3479640000
H                  1.6115300000     -3.8482470000     -5.6242970000
H                 -0.7301840000     -3.0391270000     -5.7373170000
C                  3.1802610000      0.6685570000     -0.2529610000
H                  3.1863600000     -2.8597150000     -3.9606880000
H                 -1.4965090000     -1.2397050000     -4.1875270000
H                  3.5016450000      1.6790380000     -0.5291680000
H                  4.0647320000      0.0345270000     -0.2303040000
H                  2.7453570000      0.7221370000      0.7469070000
C                  0.3675790000      1.6846240000     -0.4260810000
C                 -0.2227480000      1.1194330000      0.8475360000
C                  0.0005370000      1.5093820000      2.1101910000
C                 -0.7266890000      0.8241930000      3.2495090000
C                  0.9331230000      2.6257670000      2.5119600000
C                 -1.7658820000      1.7205160000      3.9686150000
C                 -2.4294490000      1.0116860000      5.1168240000
C                 -3.7184410000      0.6752220000      5.2590160000
C                 -4.8026430000      0.9664530000      4.2520420000
C                 -4.1966620000     -0.0473560000      6.4952070000
H                 -0.4233300000      2.2058080000     -0.9737050000
H                  1.1526430000      2.4098560000     -0.2121220000
H                 -0.9318160000      0.3102130000      0.6872690000
H                  0.0070540000      0.4790910000      3.9905830000
H                 -1.2364350000     -0.0679910000      2.8755560000
H                  1.5420410000      2.9947000000      1.6866310000
H                  1.6084770000      2.2934080000      3.3083910000
H                  0.3759210000      3.4799430000      2.9114440000
H                 -2.4960870000      2.0698490000      3.2351540000
H                 -1.2617740000      2.6151800000      4.3540830000
H                 -1.7528260000      0.7326810000      5.9247490000
H                 -4.4387080000      1.4695830000      3.3568380000
H                 -5.5825270000      1.5946160000      4.6986900000
H                 -5.2937450000      0.0373900000      3.9398840000
H                 -3.3809830000     -0.2385330000      7.1953960000
H                 -4.6564030000     -1.0082640000      6.2349770000
H                 -4.9653460000      0.5350260000      7.0172810000
$end

$rem
BASIS  =  6-311++G(d,p)
GUI  =  2
JOB_TYPE  =  SP
METHOD  =  B3LYP
SCF_CONVERGENCE  = 8
SOLVENT_METHOD = sm12
$end

$smx
solvent dimethylformamide
charges CM5
$end

--------------------------------------------------------------

             Standard Nuclear Orientation (Angstroms)
    I     Atom           X                Y                Z
 ----------------------------------------------------------------
    1      C       2.1599690000    -2.5208730000    -4.0274120000
    2      C       1.2756170000    -3.0669170000    -4.9520070000
    3      C      -0.0436450000    -2.6110810000    -5.0156910000
    4      C       1.7282310000    -1.5141390000    -3.1602960000
    5      C       0.4053380000    -1.0563000000    -3.2251070000
    6      C      -0.4787440000    -1.6083840000    -4.1552610000
    7      C       2.6767380000    -0.9341090000    -2.1679910000
    8      C       2.1830180000     0.1364390000    -1.2456420000
    9      C       0.9098330000     0.5952810000    -1.3274740000
   10      C      -0.0606480000     0.0197760000    -2.3063180000
   11      O       3.8337410000    -1.3220000000    -2.1084010000
   12      O      -1.2131850000     0.4253440000    -2.3479640000
   13      H       1.6115300000    -3.8482470000    -5.6242970000
   14      H      -0.7301840000    -3.0391270000    -5.7373170000
   15      C       3.1802610000     0.6685570000    -0.2529610000
   16      H       3.1863600000    -2.8597150000    -3.9606880000
   17      H      -1.4965090000    -1.2397050000    -4.1875270000
   18      H       3.5016450000     1.6790380000    -0.5291680000
   19      H       4.0647320000     0.0345270000    -0.2303040000
   20      H       2.7453570000     0.7221370000     0.7469070000
   21      C       0.3675790000     1.6846240000    -0.4260810000
   22      C      -0.2227480000     1.1194330000     0.8475360000
   23      C       0.0005370000     1.5093820000     2.1101910000
   24      C      -0.7266890000     0.8241930000     3.2495090000
   25      C       0.9331230000     2.6257670000     2.5119600000
   26      C      -1.7658820000     1.7205160000     3.9686150000
   27      C      -2.4294490000     1.0116860000     5.1168240000
   28      C      -3.7184410000     0.6752220000     5.2590160000
   29      C      -4.8026430000     0.9664530000     4.2520420000
   30      C      -4.1966620000    -0.0473560000     6.4952070000
   31      H      -0.4233300000     2.2058080000    -0.9737050000
   32      H       1.1526430000     2.4098560000    -0.2121220000
   33      H      -0.9318160000     0.3102130000     0.6872690000
   34      H       0.0070540000     0.4790910000     3.9905830000
   35      H      -1.2364350000    -0.0679910000     2.8755560000
   36      H       1.5420410000     2.9947000000     1.6866310000
   37      H       1.6084770000     2.2934080000     3.3083910000
   38      H       0.3759210000     3.4799430000     2.9114440000
   39      H      -2.4960870000     2.0698490000     3.2351540000
   40      H      -1.2617740000     2.6151800000     4.3540830000
   41      H      -1.7528260000     0.7326810000     5.9247490000
   42      H      -4.4387080000     1.4695830000     3.3568380000
   43      H      -5.5825270000     1.5946160000     4.6986900000
   44      H      -5.2937450000     0.0373900000     3.9398840000
   45      H      -3.3809830000    -0.2385330000     7.1953960000
   46      H      -4.6564030000    -1.0082640000     6.2349770000
   47      H      -4.9653460000     0.5350260000     7.0172810000
 ----------------------------------------------------------------

   14    -965.3751125422      6.87e-09  Convergence criterion met
 Total energy in the final basis set =     -965.3965876623

                    Orbital Energies (a.u.)
 --------------------------------------------------------------

 Alpha MOs
 -- Occupied --
-19.1305 -19.1299 -10.2789 -10.2784 -10.2129 -10.2104 -10.2057 -10.2052
-10.1965 -10.1962 -10.1958 -10.1956 -10.1818 -10.1803 -10.1792 -10.1718
-10.1712 -10.1698 -10.1697 -10.1644 -10.1643 -10.1635 -10.1626  -1.0642
 -1.0623  -0.8885  -0.8545  -0.8286  -0.8119  -0.7880  -0.7761  -0.7663
 -0.7432  -0.7099  -0.6942  -0.6882  -0.6792  -0.6615  -0.6315  -0.6167
 -0.6006  -0.5827  -0.5502  -0.5265  -0.5191  -0.5177  -0.4972  -0.4828
 -0.4754  -0.4630  -0.4602  -0.4552  -0.4532  -0.4497  -0.4439  -0.4353
 -0.4334  -0.4234  -0.4205  -0.4166  -0.4095  -0.4074  -0.4035  -0.3923
 -0.3859  -0.3857  -0.3767  -0.3759  -0.3743  -0.3717  -0.3676  -0.3662
 -0.3578  -0.3514  -0.3357  -0.3251  -0.2894  -0.2867  -0.2769  -0.2744
 -0.2706  -0.2499  -0.2351

          Ground-State Mulliken Net Atomic Charges

     Atom                 Charge (a.u.)
  ----------------------------------------
      1 C                     0.101772
      2 C                     0.304923
      3 C                     0.290264
      4 C                    -0.573188
      5 C                    -0.259261
      6 C                    -0.050720
      7 C                    -1.666277
      8 C                     0.707752
      9 C                     1.234117
     10 C                    -1.653102
     11 O                    -0.268839
     12 O                    -0.254564
     13 H                     0.318870
     14 H                     0.319102
     15 C                     0.014376
     16 H                     0.192221
     17 H                     0.192313
     18 H                     0.251461
     19 H                     0.172787
     20 H                     0.235221
     21 C                     0.254201
     22 C                    -1.560976
     23 C                     1.377773
     24 C                    -0.837967
     25 C                    -0.202233
     26 C                    -0.099902
     27 C                    -0.275229
     28 C                    -0.090930
     29 C                    -0.536138
     30 C                    -0.474644
     31 H                     0.192259
     32 H                     0.259279
     33 H                     0.150771
     34 H                     0.166868
     35 H                     0.123960
     36 H                     0.186485
     37 H                     0.181599
     38 H                     0.189627
     39 H                     0.102482
     40 H                     0.133914
     41 H                     0.166573
     42 H                     0.149118
     43 H                     0.164175
     44 H                     0.162251
     45 H                     0.175345
     46 H                     0.167730
     47 H                     0.164381
  ----------------------------------------
  Sum of atomic charges =     0.000000

                    Cartesian Multipole Moments
 -----------------------------------------------------------------
    Charge (ESU x 10^10)
                 0.0000
    Dipole Moment (Debye)
         X      -0.4226      Y      -0.2219      Z      -0.1571
       Tot       0.5025
    Quadrupole Moments (Debye-Ang)
        XX    -147.8235     XY       7.6862     YY    -131.5313
        XZ       1.1516     YZ      12.6905     ZZ    -123.5368

 Total job time:  1980.42s(wall), 14944.04s(cpu)
        *  Thank you very much for using Q-Chem.  Have a nice day.  *
