 Q-Chem 5.4, Q-Chem, Inc., Pleasanton, CA (2021)
 Q-Chem 5.4.0 for Intel X86 EM64T Linux

User input:
--------------------------------------------------------------
$molecule
-2 1
C                 -1.6459860000      2.8552810000     -0.7337480000
C                 -2.8654560000      2.2053460000     -0.7183890000
C                 -2.9061990000      0.8007410000     -0.5040240000
C                 -0.4171340000      2.1819040000     -0.5228040000
C                 -0.4677890000      0.7560740000     -0.2477830000
C                 -1.7304370000      0.1096610000     -0.2756920000
C                  0.8257990000      2.9440520000     -0.5997960000
C                  2.0910800000      2.1805060000     -0.3870950000
C                  1.9547060000      0.7795750000     -0.0920660000
C                  0.7564590000      0.0734050000     -0.0083800000
O                  0.8280490000      4.1875300000     -0.8375700000
O                  3.2319460000      2.7355710000     -0.4483840000
H                 -1.5810350000      3.9235500000     -0.9174750000
H                 -3.7871260000      2.7600530000     -0.8859510000
H                 -3.8558440000      0.2689770000     -0.5184390000
H                 -1.7551040000     -0.9657900000     -0.1281770000
H                  2.8967680000      0.2685750000      0.0914340000
N                  0.7133290000     -1.3447420000      0.2836810000
C                  1.8513280000     -2.1245080000     -0.1642160000
C                  0.3903580000     -1.6541410000      1.6770340000
H                  2.0826790000     -1.8758740000     -1.2020360000
H                  1.6123590000     -3.1916560000     -0.1002800000
H                  2.7703110000     -1.9612880000      0.4360010000
H                 -0.4689010000     -1.0640320000      1.9956300000
H                  1.2336110000     -1.4320850000      2.3646300000
H                  0.1425080000     -2.7208730000      1.7859360000
$end

$rem
BASIS  =  6-311++G(d,p)
GUI  =  2
JOB_TYPE  =  SP
METHOD  =  B3LYP
SCF_CONVERGENCE  = 8
SOLVENT_METHOD = sm12
$end

$smx
solvent dimethylformamide
charges CM5
$end

--------------------------------------------------------------

             Standard Nuclear Orientation (Angstroms)
    I     Atom           X                Y                Z
 ----------------------------------------------------------------
    1      C      -1.6459860000     2.8552810000    -0.7337480000
    2      C      -2.8654560000     2.2053460000    -0.7183890000
    3      C      -2.9061990000     0.8007410000    -0.5040240000
    4      C      -0.4171340000     2.1819040000    -0.5228040000
    5      C      -0.4677890000     0.7560740000    -0.2477830000
    6      C      -1.7304370000     0.1096610000    -0.2756920000
    7      C       0.8257990000     2.9440520000    -0.5997960000
    8      C       2.0910800000     2.1805060000    -0.3870950000
    9      C       1.9547060000     0.7795750000    -0.0920660000
   10      C       0.7564590000     0.0734050000    -0.0083800000
   11      O       0.8280490000     4.1875300000    -0.8375700000
   12      O       3.2319460000     2.7355710000    -0.4483840000
   13      H      -1.5810350000     3.9235500000    -0.9174750000
   14      H      -3.7871260000     2.7600530000    -0.8859510000
   15      H      -3.8558440000     0.2689770000    -0.5184390000
   16      H      -1.7551040000    -0.9657900000    -0.1281770000
   17      H       2.8967680000     0.2685750000     0.0914340000
   18      N       0.7133290000    -1.3447420000     0.2836810000
   19      C       1.8513280000    -2.1245080000    -0.1642160000
   20      C       0.3903580000    -1.6541410000     1.6770340000
   21      H       2.0826790000    -1.8758740000    -1.2020360000
   22      H       1.6123590000    -3.1916560000    -0.1002800000
   23      H       2.7703110000    -1.9612880000     0.4360010000
   24      H      -0.4689010000    -1.0640320000     1.9956300000
   25      H       1.2336110000    -1.4320850000     2.3646300000
   26      H       0.1425080000    -2.7208730000     1.7859360000
 ----------------------------------------------------------------

   18    -669.2053817844      4.88e-09  Convergence criterion met
 Total energy in the final basis set =     -669.5096595426

                    Orbital Energies (a.u.)
 --------------------------------------------------------------

 Alpha MOs
 -- Occupied --
-19.0268 -19.0253 -14.3193 -10.2007 -10.1991 -10.1817 -10.1807 -10.1784
-10.1754 -10.1733 -10.1714 -10.1680 -10.1607 -10.1486 -10.1411  -0.9581
 -0.9334  -0.9308  -0.8464  -0.7836  -0.7465  -0.7207  -0.7079  -0.6785
 -0.6246  -0.6068  -0.5789  -0.5503  -0.5044  -0.4917  -0.4816  -0.4637
 -0.4522  -0.4388  -0.4236  -0.4194  -0.4045  -0.3937  -0.3910  -0.3840
 -0.3765  -0.3679  -0.3603  -0.3450  -0.3400  -0.3246  -0.3046  -0.2837
 -0.2486  -0.2350  -0.2117  -0.2030  -0.1841  -0.1208

          Ground-State Mulliken Net Atomic Charges

     Atom                 Charge (a.u.)
  ----------------------------------------
      1 C                    -0.776558
      2 C                     1.239858
      3 C                     1.866025
      4 C                    -1.659041
      5 C                    -1.944905
      6 C                     0.241861
      7 C                    -1.279236
      8 C                    -1.956782
      9 C                    -0.235350
     10 C                    -1.244558
     11 O                    -0.384050
     12 O                    -0.387197
     13 H                     0.053589
     14 H                     0.349916
     15 H                     0.421794
     16 H                     0.142421
     17 H                    -0.127555
     18 N                     0.842774
     19 C                     0.869845
     20 C                     0.534865
     21 H                     0.132847
     22 H                     0.420040
     23 H                     0.229988
     24 H                     0.066758
     25 H                     0.127634
     26 H                     0.455016
  ----------------------------------------
  Sum of atomic charges =    -2.000000

                    Cartesian Multipole Moments
 -----------------------------------------------------------------
    Charge (ESU x 10^10)
                -9.6064
    Dipole Moment (Debye)
         X      -8.2561      Y     -23.5641      Z       5.1154
       Tot      25.4872
    Quadrupole Moments (Debye-Ang)
        XX    -150.3664     XY     -30.9798     YY    -182.9388
        XZ       2.9642     YZ      15.6393     ZZ    -105.6883

 Total job time:  634.43s(wall), 4252.37s(cpu)
        *  Thank you very much for using Q-Chem.  Have a nice day.  *
