 Q-Chem 5.4, Q-Chem, Inc., Pleasanton, CA (2021)
 Q-Chem 5.4.0 for Intel X86 EM64T Linux

User input:
--------------------------------------------------------------
$molecule
-2 1
C                 -0.2300080000      3.9320580000      0.2258230000
C                 -1.4392280000      3.4560650000      0.7031240000
C                 -1.6598730000      2.0570200000      0.7695700000
C                  0.8020330000      3.0664970000     -0.2022310000
C                  0.5769830000      1.6463540000     -0.1414400000
C                 -0.6676870000      1.1876880000      0.3527010000
C                  2.0503330000      3.6373750000     -0.7049040000
C                  3.0114350000      2.6572530000     -1.1044040000
C                  2.8018210000      1.2424160000     -1.0344290000
C                  1.5806550000      0.6786310000     -0.5672160000
O                  2.2320170000      4.9104710000     -0.7564350000
O                  1.3501220000     -0.5968920000     -0.5027670000
H                 -0.0245570000      4.9963840000      0.1607680000
H                 -2.2144450000      4.1495400000      1.0265560000
H                 -2.6069850000      1.6702210000      1.1442580000
H                 -0.8021420000      0.1107060000      0.3866320000
S                  4.5566640000      3.2723670000     -1.7956090000
C                  5.1993020000      4.3372940000     -0.4419870000
C                  3.8704700000      0.2656950000     -1.4595320000
H                  6.0982860000      4.8387470000     -0.8195360000
H                  5.4597310000      3.7343420000      0.4336860000
H                  4.4199100000      5.0604580000     -0.1967300000
H                  4.0652960000      0.2940130000     -2.5436420000
H                  3.5254270000     -0.7383260000     -1.2002670000
H                  4.8345990000      0.4708240000     -0.9747610000
$end
$rem
MAX_SCF_CYCLES=200
BASIS  =  6-311++G(d,p)
GUI  =  2
JOB_TYPE  =  SP
METHOD  =  B3LYP
SOLVENT_METHOD = COSMO
$end
$solvent
dielectric 37.219
opticaldielectric 1.43
$end

--------------------------------------------------------------

             Standard Nuclear Orientation (Angstroms)
    I     Atom           X                Y                Z
 ----------------------------------------------------------------
    1      C       1.9965126897    -1.8529195547    -0.0847258768
    2      C       3.3572254877    -1.6218785111     0.0233449645
    3      C       3.8305752699    -0.2905689584     0.1415864869
    4      C       1.0531091141    -0.8005329556    -0.0821111328
    5      C       1.5326126032     0.5516379424     0.0312884049
    6      C       2.9285571047     0.7583893410     0.1424011592
    7      C      -0.3685710588    -1.1155740029    -0.2102101186
    8      C      -1.2167144168     0.0352131641    -0.1929422346
    9      C      -0.7498669650     1.3830440710    -0.0664370193
   10      C       0.6344952836     1.6998938380     0.0362046049
   11      O      -0.7787242801    -2.3309483482    -0.3154597314
   12      O       1.0947493819     2.9090257317     0.1383040159
   13      H       1.5968140121    -2.8584394323    -0.1763929026
   14      H       4.0587992945    -2.4550981035     0.0192785446
   15      H       4.8990601951    -0.0960218077     0.2282875543
   16      H       3.2545915909     1.7905797479     0.2284486215
   17      S      -2.9810961219    -0.2553328225    -0.4083545732
   18      C      -3.3656771409    -1.3997731210     0.9778991829
   19      C      -1.7071208438     2.5490801577    -0.0393812703
   20      H      -4.4100991207    -1.7130126502     0.8628586843
   21      H      -3.2411861156    -0.8954377430     1.9413956242
   22      H      -2.6888478952    -2.2516969148     0.8960635049
   23      H      -2.2196642680     2.7007346177    -1.0028924195
   24      H      -1.1289653824     3.4487580538     0.1856678940
   25      H      -2.5019879402     2.4142718605     0.7067008832
 ----------------------------------------------------------------

   13   -1012.1084532498      5.29e-06  Convergence criterion met
 Total energy in the final basis set =    -1012.1084532498
    6   -1012.3857871783      2.95e-06  Convergence criterion met
 Total energy in the final basis set =    -1012.3857871783

                    Orbital Energies (a.u.)
 --------------------------------------------------------------

 Alpha MOs
 -- Occupied --
-88.8166 -19.0239 -19.0193 -10.1791 -10.1709 -10.1659 -10.1522 -10.1516
-10.1514 -10.1480 -10.1469 -10.1418 -10.1412 -10.1338 -10.1331  -7.9024
 -5.8664  -5.8626  -5.8565  -0.9430  -0.9337  -0.8281  -0.7882  -0.7461
 -0.7247  -0.7209  -0.6719  -0.6333  -0.6153  -0.5682  -0.5561  -0.5211
 -0.4792  -0.4613  -0.4342  -0.4241  -0.4066  -0.4030  -0.3974  -0.3938
 -0.3814  -0.3728  -0.3661  -0.3589  -0.3547  -0.3380  -0.3267  -0.3209
 -0.3136  -0.3066  -0.2911  -0.2328  -0.2290  -0.2247  -0.2061  -0.1991
 -0.1926  -0.1180

          Ground-State Mulliken Net Atomic Charges

     Atom                 Charge (a.u.)
  ----------------------------------------
      1 C                     0.074156
      2 C                    -0.421452
      3 C                    -0.482713
      4 C                     0.285593
      5 C                     0.397348
      6 C                     0.102465
      7 C                    -0.685736
      8 C                     0.474851
      9 C                     0.270044
     10 C                    -0.740947
     11 O                    -0.680133
     12 O                    -0.733008
     13 H                     0.165344
     14 H                     0.178286
     15 H                     0.177913
     16 H                     0.159135
     17 S                    -0.670920
     18 C                    -0.621709
     19 C                    -0.235324
     20 H                     0.162793
     21 H                     0.166788
     22 H                     0.200283
     23 H                     0.153226
     24 H                     0.167364
     25 H                     0.136352
  ----------------------------------------
  Sum of atomic charges =    -2.000000

                    Cartesian Multipole Moments
 -----------------------------------------------------------------
    Charge (ESU x 10^10)
                -9.6064
    Dipole Moment (Debye)
         X      -0.9575      Y      -3.2321      Z       2.3254
       Tot       4.0952
    Quadrupole Moments (Debye-Ang)
        XX    -126.3915     XY     -14.4131     YY    -156.3668
        XZ      -6.8077     YZ      -5.9141     ZZ    -108.1586

 Total job time:  59.33s(wall), 450.55s(cpu)
        *  Thank you very much for using Q-Chem.  Have a nice day.  *
