 Q-Chem 5.4, Q-Chem, Inc., Pleasanton, CA (2021)
 Q-Chem 5.4.0 for Intel X86 EM64T Linux

User input:
--------------------------------------------------------------
$molecule
-3 2
C                  5.6384270000     -4.7109490000      0.8788730000
C                  6.6568300000     -4.6022080000     -0.0397470000
C                  6.5826620000     -3.6288670000     -1.0539250000
C                  4.5155590000     -3.8604560000      0.8229150000
C                  4.4238710000     -2.8613490000     -0.2054510000
C                  5.5035180000     -2.7674300000     -1.1562550000
C                  3.4950270000     -4.0920130000      1.8780310000
C                  2.3081490000     -3.2361640000      1.8690020000
C                  2.2163270000     -2.2372400000      0.8404670000
C                  3.2364280000     -2.0062880000     -0.2151980000
C                  1.2290780000     -3.3292650000      2.8205420000
C                  0.1501840000     -2.4674780000      2.7185260000
C                  0.0757410000     -1.4945230000      1.7040000000
C                  1.0937000000     -1.3864100000      0.7848130000
O                  3.6767030000     -4.9911920000      2.7248550000
O                  3.0545620000     -1.1073810000     -1.0622700000
S                  1.0476750000     -4.5146160000      4.2718610000
O                 -0.2746130000     -4.1155730000      4.8747830000
O                  2.1656790000     -4.2385090000      5.2104290000
O                  0.9849000000     -5.8901340000      3.7140780000
S                  5.6855700000     -1.5811160000     -2.6067080000
O                  7.0087650000     -1.9788340000     -3.2085160000
O                  4.5687470000     -1.8574800000     -3.5466160000
O                  5.7467510000     -0.2058850000     -2.0480620000
H                  5.6514160000     -5.4446280000      1.6767140000
H                  7.5211640000     -5.2629310000      0.0100960000
H                  7.3734030000     -3.5280560000     -1.7855730000
H                 -0.6400740000     -2.5676080000      3.4507910000
H                 -0.7883840000     -0.8335070000      1.6544230000
H                  1.0805350000     -0.6529820000     -0.0132550000
$end
$rem
MAX_SCF_CYCLES=200
BASIS  =  6-311++G(d,p)
GUI  =  2
JOB_TYPE  =  SP
METHOD  =  B3LYP
SOLVENT_METHOD = PCM
$end
$pcm
theory = CPCM
$end
$solvent
dielectric 37.219
opticaldielectric 1.43
$end
--------------------------------------------------------------

             Standard Nuclear Orientation (Angstroms)
    I     Atom           X                Y                Z
 ----------------------------------------------------------------
    1      C       5.6384270000    -4.7109490000     0.8788730000
    2      C       6.6568300000    -4.6022080000    -0.0397470000
    3      C       6.5826620000    -3.6288670000    -1.0539250000
    4      C       4.5155590000    -3.8604560000     0.8229150000
    5      C       4.4238710000    -2.8613490000    -0.2054510000
    6      C       5.5035180000    -2.7674300000    -1.1562550000
    7      C       3.4950270000    -4.0920130000     1.8780310000
    8      C       2.3081490000    -3.2361640000     1.8690020000
    9      C       2.2163270000    -2.2372400000     0.8404670000
   10      C       3.2364280000    -2.0062880000    -0.2151980000
   11      C       1.2290780000    -3.3292650000     2.8205420000
   12      C       0.1501840000    -2.4674780000     2.7185260000
   13      C       0.0757410000    -1.4945230000     1.7040000000
   14      C       1.0937000000    -1.3864100000     0.7848130000
   15      O       3.6767030000    -4.9911920000     2.7248550000
   16      O       3.0545620000    -1.1073810000    -1.0622700000
   17      S       1.0476750000    -4.5146160000     4.2718610000
   18      O      -0.2746130000    -4.1155730000     4.8747830000
   19      O       2.1656790000    -4.2385090000     5.2104290000
   20      O       0.9849000000    -5.8901340000     3.7140780000
   21      S       5.6855700000    -1.5811160000    -2.6067080000
   22      O       7.0087650000    -1.9788340000    -3.2085160000
   23      O       4.5687470000    -1.8574800000    -3.5466160000
   24      O       5.7467510000    -0.2058850000    -2.0480620000
   25      H       5.6514160000    -5.4446280000     1.6767140000
   26      H       7.5211640000    -5.2629310000     0.0100960000
   27      H       7.3734030000    -3.5280560000    -1.7855730000
   28      H      -0.6400740000    -2.5676080000     3.4507910000
   29      H      -0.7883840000    -0.8335070000     1.6544230000
   30      H       1.0805350000    -0.6529820000    -0.0132550000
 ----------------------------------------------------------------

    8   -1935.9990155021      8.68e-06  Convergence criterion met
 Total energy in the final basis set =    -1935.9990155021

                    Orbital Energies (a.u.)
 --------------------------------------------------------------

 Alpha MOs
 -- Occupied --
-89.0383 -89.0383 -19.0829 -19.0829 -19.0829 -19.0829 -19.0778 -19.0778
-19.0703 -19.0703 -10.2248 -10.2248 -10.1979 -10.1979 -10.1842 -10.1842
-10.1750 -10.1750 -10.1697 -10.1697 -10.1692 -10.1692 -10.1668 -10.1668
 -8.0966  -8.0966  -6.0593  -6.0593  -6.0592  -6.0592  -6.0584  -6.0584
 -1.0972  -1.0972  -1.0047  -1.0024  -0.9668  -0.9668  -0.9555  -0.9555
 -0.8597  -0.8508  -0.7826  -0.7557  -0.7544  -0.7373  -0.6685  -0.6453
 -0.6193  -0.6169  -0.5978  -0.5530  -0.5346  -0.5325  -0.5169  -0.4827
 -0.4732  -0.4652  -0.4592  -0.4499  -0.4494  -0.4444  -0.4442  -0.4388
 -0.4367  -0.4208  -0.4123  -0.4048  -0.4032  -0.3811  -0.3702  -0.3684
 -0.3662  -0.3563  -0.3435  -0.3418  -0.3276  -0.3270  -0.3232  -0.3217
 -0.3013  -0.2966  -0.2870  -0.2844  -0.2792  -0.2783  -0.2663  -0.2528
 -0.2517  -0.2486  -0.2456  -0.2445  -0.2367  -0.2312  -0.1383

 Beta MOs
 -- Occupied --
-89.0383 -89.0383 -19.0829 -19.0829 -19.0829 -19.0829 -19.0777 -19.0777
-19.0649 -19.0649 -10.2231 -10.2231 -10.1976 -10.1976 -10.1833 -10.1833
-10.1740 -10.1740 -10.1694 -10.1694 -10.1686 -10.1686 -10.1670 -10.1670
 -8.0966  -8.0966  -6.0593  -6.0593  -6.0592  -6.0592  -6.0584  -6.0584
 -1.0971  -1.0971  -0.9953  -0.9928  -0.9667  -0.9667  -0.9554  -0.9554
 -0.8572  -0.8496  -0.7786  -0.7534  -0.7532  -0.7353  -0.6612  -0.6441
 -0.6186  -0.6143  -0.5962  -0.5521  -0.5325  -0.5310  -0.5155  -0.4802
 -0.4728  -0.4642  -0.4581  -0.4491  -0.4488  -0.4442  -0.4441  -0.4385
 -0.4362  -0.4085  -0.4079  -0.4015  -0.4009  -0.3690  -0.3660  -0.3660
 -0.3580  -0.3546  -0.3422  -0.3323  -0.3271  -0.3249  -0.3231  -0.3215
 -0.2996  -0.2945  -0.2867  -0.2840  -0.2788  -0.2778  -0.2505  -0.2499
 -0.2467  -0.2438  -0.2416  -0.2392  -0.2321  -0.2264

          Ground-State Mulliken Net Atomic Charges

     Atom                 Charge (a.u.)    Spin (a.u.)
  --------------------------------------------------------
      1 C                    -0.228547       0.007933
      2 C                    -0.458894       0.051329
      3 C                     0.373882       0.015478
      4 C                     0.802942       0.047395
      5 C                     0.292782       0.066990
      6 C                    -1.055960       0.030573
      7 C                    -0.828234       0.070471
      8 C                     0.292595       0.066981
      9 C                     0.802683       0.047383
     10 C                    -0.828194       0.070469
     11 C                    -1.056269       0.030576
     12 C                     0.373973       0.015475
     13 C                    -0.458874       0.051332
     14 C                    -0.228664       0.007937
     15 O                    -0.396966       0.209518
     16 O                    -0.396972       0.209516
     17 S                     0.667510       0.005639
     18 O                    -0.438759       0.000764
     19 O                    -0.427332      -0.000070
     20 O                    -0.426323      -0.000034
     21 S                     0.667515       0.005639
     22 O                    -0.438784       0.000764
     23 O                    -0.427273      -0.000066
     24 O                    -0.426415      -0.000037
     25 H                     0.166922      -0.000797
     26 H                     0.213540      -0.003627
     27 H                     0.243821      -0.001552
     28 H                     0.243841      -0.001552
     29 H                     0.213534      -0.003627
     30 H                     0.166921      -0.000797
  --------------------------------------------------------
  Sum of atomic charges =    -3.000000

                    Cartesian Multipole Moments
 -----------------------------------------------------------------
    Charge (ESU x 10^10)
               -14.4096
    Dipole Moment (Debye)
         X     -48.5089      Y      43.9226      Z     -11.9932
       Tot      66.5293
    Quadrupole Moments (Debye-Ang)
        XX    -393.5664     XY      97.7249     YY    -353.3116
        XZ      54.9288     YZ     120.0889     ZZ    -356.3241

 Total job time:  158.61s(wall), 626.99s(cpu)
        *  Thank you very much for using Q-Chem.  Have a nice day.  *
