 Gaussian 16, Revision A.03,
 Gaussian 16:  ES64L-G16RevA.03 25-Dec-2016

 ----------------------------------------------------------------------
 #P UB3LYP/6-311++G(d,p) nosym opt freq SCRF=(PCM,Solvent=n,n-DiMethylF
 ormamide)
 ----------------------------------------------------------------------

 -------
 Reduced
 -------
 Symbolic Z-matrix:
 Charge = -2 Multiplicity = 1

 SCF Done:  E(UB3LYP) =  -914.953730149     A.U. after   16 cycles
 SCF Done:  E(UB3LYP) =  -914.954456708     A.U. after   13 cycles
 SCF Done:  E(UB3LYP) =  -914.954486934     A.U. after   13 cycles
 SCF Done:  E(UB3LYP) =  -914.954713411     A.U. after   12 cycles
 SCF Done:  E(UB3LYP) =  -914.954726008     A.U. after   11 cycles
 SCF Done:  E(UB3LYP) =  -914.954732044     A.U. after   11 cycles
 SCF Done:  E(UB3LYP) =  -914.954735022     A.U. after   10 cycles
 SCF Done:  E(UB3LYP) =  -914.954737166     A.U. after   10 cycles
 SCF Done:  E(UB3LYP) =  -914.954738790     A.U. after   10 cycles
 SCF Done:  E(UB3LYP) =  -914.954739165     A.U. after    9 cycles
 SCF Done:  E(UB3LYP) =  -914.954739326     A.U. after    9 cycles
 Optimization completed.
    -- Stationary point found.
 Normal termination of Gaussian 16 at Sat Feb 10 23:12:57 2024.

 ----------------------------------------------------------------------
 #P Geom=AllCheck Guess=TCheck SCRF=Check GenChk UB3LYP/6-311++G(d,p) F
 req
 ----------------------------------------------------------------------

 Structure from the checkpoint file:  "200-an.chk"
 -------
 Reduced
 -------
 Charge = -2 Multiplicity = 1

                          Input orientation:
 ---------------------------------------------------------------------
 Center     Atomic      Atomic             Coordinates (Angstroms)
 Number     Number       Type             X           Y           Z
 ---------------------------------------------------------------------
      1          8           0        4.410340   -1.511186   -0.396753
      2          6           0        3.268999   -0.735015   -0.305654
      3          6           0        3.355000    0.667020   -0.338983
      4          6           0        2.210884    1.437468   -0.248423
      5          8           0        2.346058    2.820763   -0.273693
      6          6           0        0.911658    0.843679   -0.121618
      7          6           0       -0.315616    1.625132   -0.039042
      8          8           0       -0.348707    2.902992   -0.104888
      9          6           0       -1.550323    0.875119    0.126846
     10          6           0       -2.779358    1.570100    0.243335
     11          6           0       -3.984511    0.919185    0.402948
     12          6           0       -4.008035   -0.502659    0.451460
     13          6           0       -2.842636   -1.219815    0.342139
     14          6           0       -1.575961   -0.567907    0.178162
     15          6           0       -0.381813   -1.283296    0.067068
     16          8           0       -0.427618   -2.669278    0.105381
     17          6           0        0.855425   -0.615361   -0.077254
     18          6           0        2.062534   -1.404356   -0.177305
     19          8           0        2.075063   -2.740263   -0.149427
     20          1           0        4.050457   -2.418580   -0.341672
     21          1           0        4.329150    1.139806   -0.432489
     22          1           0        3.288635    3.011354   -0.348304
     23          1           0       -2.740095    2.652657    0.204961
     24          1           0       -4.907956    1.481835    0.491818
     25          1           0       -4.953544   -1.021989    0.576346
     26          1           0       -2.861309   -2.302570    0.380199
     27          1           0        0.539680   -2.948231    0.012838
 ---------------------------------------------------------------------

 SCF Done:  E(UB3LYP) =  -914.954739326     A.U. after    1 cycles

 Alpha  occ. eigenvalues --  -19.12892 -19.12477 -19.09214 -19.04680 -19.02773
 Alpha  occ. eigenvalues --  -10.20823 -10.19430 -10.18922 -10.18214 -10.18200
 Alpha  occ. eigenvalues --  -10.15567 -10.15311 -10.15172 -10.15092 -10.14986
 Alpha  occ. eigenvalues --  -10.14852 -10.14812 -10.14457 -10.14055  -1.03651
 Alpha  occ. eigenvalues --   -1.03426  -1.00455  -0.94852  -0.93935  -0.83532
 Alpha  occ. eigenvalues --   -0.81230  -0.76291  -0.73100  -0.71269  -0.69875
 Alpha  occ. eigenvalues --   -0.64828  -0.61850  -0.60199  -0.56787  -0.55169
 Alpha  occ. eigenvalues --   -0.54704  -0.50888  -0.48603  -0.47932  -0.46542
 Alpha  occ. eigenvalues --   -0.44525  -0.43804  -0.41869  -0.41569  -0.41013
 Alpha  occ. eigenvalues --   -0.40175  -0.38962  -0.37911  -0.37672  -0.37329
 Alpha  occ. eigenvalues --   -0.36354  -0.35677  -0.34547  -0.34353  -0.34092
 Alpha  occ. eigenvalues --   -0.32418  -0.32209  -0.30993  -0.30596  -0.26774
 Alpha  occ. eigenvalues --   -0.24475  -0.23343  -0.23113  -0.21346  -0.19930
 Alpha  occ. eigenvalues --   -0.17342  -0.11569
 Alpha virt. eigenvalues --   -0.02414  -0.00004   0.00223   0.00615   0.01026
 Alpha virt. eigenvalues --    0.02220   0.02600   0.03551   0.04343   0.04540
 Alpha virt. eigenvalues --    0.04938   0.05204   0.06571   0.06710   0.06718

  Beta  occ. eigenvalues --  -19.12892 -19.12477 -19.09214 -19.04680 -19.02773
  Beta  occ. eigenvalues --  -10.20823 -10.19430 -10.18922 -10.18214 -10.18200
  Beta  occ. eigenvalues --  -10.15567 -10.15311 -10.15172 -10.15092 -10.14986
  Beta  occ. eigenvalues --  -10.14852 -10.14812 -10.14457 -10.14055  -1.03651
  Beta  occ. eigenvalues --   -1.03426  -1.00455  -0.94852  -0.93935  -0.83532
  Beta  occ. eigenvalues --   -0.81230  -0.76291  -0.73100  -0.71269  -0.69875
  Beta  occ. eigenvalues --   -0.64828  -0.61850  -0.60199  -0.56787  -0.55169
  Beta  occ. eigenvalues --   -0.54704  -0.50888  -0.48603  -0.47932  -0.46542
  Beta  occ. eigenvalues --   -0.44525  -0.43804  -0.41869  -0.41569  -0.41013
  Beta  occ. eigenvalues --   -0.40175  -0.38962  -0.37911  -0.37672  -0.37329
  Beta  occ. eigenvalues --   -0.36354  -0.35677  -0.34547  -0.34353  -0.34092
  Beta  occ. eigenvalues --   -0.32418  -0.32209  -0.30993  -0.30596  -0.26774
  Beta  occ. eigenvalues --   -0.24475  -0.23343  -0.23113  -0.21346  -0.19930
  Beta  occ. eigenvalues --   -0.17342  -0.11569
  Beta virt. eigenvalues --   -0.02414  -0.00004   0.00223   0.00615   0.01026
  Beta virt. eigenvalues --    0.02220   0.02600   0.03551   0.04343   0.04540
  Beta virt. eigenvalues --    0.04938   0.05204   0.06571   0.06710   0.06718

 Mulliken charges and spin densities:
               1          2
     1  O   -0.357178   0.000000
     2  C   -0.450479   0.000000
     3  C    0.122727   0.000000
     4  C   -0.208526  -0.000000
     5  O   -0.274548   0.000000
     6  C    0.489915  -0.000000
     7  C   -0.256809   0.000000
     8  O   -0.601467  -0.000000
     9  C   -0.207768  -0.000000
    10  C    0.000923   0.000000
    11  C   -0.565986   0.000000
    12  C   -0.441574  -0.000000
    13  C   -0.178362   0.000000
    14  C    0.221698   0.000000
    15  C    0.058026  -0.000000
    16  O   -0.527658   0.000000
    17  C    0.947795   0.000000
    18  C   -0.811459   0.000000
    19  O   -0.722024  -0.000000
    20  H    0.290346  -0.000000
    21  H    0.159877  -0.000000
    22  H    0.282686  -0.000000
    23  H    0.145795   0.000000
    24  H    0.157677   0.000000
    25  H    0.162059   0.000000
    26  H    0.146853  -0.000000
    27  H    0.417460  -0.000000
 Sum of Mulliken charges =  -2.00000  -0.00000

 Dipole moment (field-independent basis, Debye):
    X=             -3.3910    Y=              0.2840    Z=              0.5867  Tot=              3.4530
 Quadrupole moment (field-independent basis, Debye-Ang):
   XX=           -151.9892   YY=           -171.9296   ZZ=           -121.5207
   XY=             19.4614   XZ=              2.7351   YZ=             -0.0166

  Exact polarizability: 551.309 -20.167 364.586 -40.810  -4.458 154.935
 Approx polarizability: 609.967 -19.022 448.201 -45.085  -6.669 173.325

                      1                      2                      3
                      A                      A                      A
 Frequencies --     48.3939                68.8025               103.4655
 Red. masses --      7.2915                 6.9627                 9.6033
 Frc consts  --      0.0101                 0.0194                 0.0606
 IR Inten    --      8.2463                11.6749                 1.0664

                      4                      5                      6
                      A                      A                      A
 Frequencies --    130.3684               167.2803               198.9672
 Red. masses --      4.9698                 7.5594                 5.7936
 Frc consts  --      0.0498                 0.1246                 0.1351
 IR Inten    --      1.0159                 0.1099                 4.6424

                      7                      8                      9
                      A                      A                      A
 Frequencies --    202.9107               279.1311               293.6660
 Red. masses --      6.1161                 5.3641                 5.5208
 Frc consts  --      0.1484                 0.2462                 0.2805
 IR Inten    --     14.1831                17.3055                 0.9039

                     10                     11                     12
                      A                      A                      A
 Frequencies --    313.3690               315.9447               347.3389
 Red. masses --      6.3144                 1.2633                 9.4079
 Frc consts  --      0.3653                 0.0743                 0.6687
 IR Inten    --      6.3388                97.5193                46.8795

                     13                     14                     15
                      A                      A                      A
 Frequencies --    351.7459               372.8047               374.9520
 Red. masses --      9.9326                 8.1222                 4.8947
 Frc consts  --      0.7241                 0.6651                 0.4054
 IR Inten    --     24.0530                12.6698                14.3632

                     16                     17                     18
                      A                      A                      A
 Frequencies --    396.5476               415.7966               443.8884
 Red. masses --      6.7184                 8.9773                 3.3424
 Frc consts  --      0.6225                 0.9144                 0.3880
 IR Inten    --     41.5062                35.4775                13.1959

                     19                     20                     21
                      A                      A                      A
 Frequencies --    476.6312               506.5777               509.1830
 Red. masses --     10.6120                 8.6325                 3.0507
 Frc consts  --      1.4204                 1.3052                 0.4660
 IR Inten    --     15.4529                 2.1451                63.5376

                     22                     23                     24
                      A                      A                      A
 Frequencies --    524.3014               574.0352               575.2170
 Red. masses --      8.8394                 6.7108                 1.4121
 Frc consts  --      1.4316                 1.3029                 0.2753
 IR Inten    --      7.6140               119.3542                97.7028

                     25                     26                     27
                      A                      A                      A
 Frequencies --    607.5337               629.7896               645.3428
 Red. masses --      2.9306                 6.2282                 6.4135
 Frc consts  --      0.6373                 1.4555                 1.5737
 IR Inten    --      2.3775                30.1249                 7.9265

                     28                     29                     30
                      A                      A                      A
 Frequencies --    711.8095               715.1974               716.2443
 Red. masses --      5.4490                 3.6448                 6.2074
 Frc consts  --      1.6266                 1.0984                 1.8762
 IR Inten    --     27.9036                22.2167                36.2546

                     31                     32                     33
                      A                      A                      A
 Frequencies --    742.9900               752.2865               764.5731
 Red. masses --      5.4973                 1.8317                 1.5995
 Frc consts  --      1.7880                 0.6108                 0.5509
 IR Inten    --     13.3754               106.4419                34.7755

                     34                     35                     36
                      A                      A                      A
 Frequencies --    795.0350               824.5546               839.6913
 Red. masses --      3.8002                 7.1726                 1.6700
 Frc consts  --      1.4152                 2.8732                 0.6938
 IR Inten    --      1.6000               105.0646                 8.4023

                     37                     38                     39
                      A                      A                      A
 Frequencies --    877.9293               889.4074               928.8274
 Red. masses --      1.0553                 9.2820                 6.6072
 Frc consts  --      0.4792                 4.3260                 3.3584
 IR Inten    --    122.7739               393.8980               328.6989

                     40                     41                     42
                      A                      A                      A
 Frequencies --    968.9254               976.2391              1018.5784
 Red. masses --      1.3547                 1.2643                 2.7082
 Frc consts  --      0.7493                 0.7100                 1.6555
 IR Inten    --      1.5373                 0.3438                69.1997

                     43                     44                     45
                      A                      A                      A
 Frequencies --   1042.1062              1095.3824              1108.2528
 Red. masses --      4.4196                 3.3761                 5.4087
 Frc consts  --      2.8278                 2.3867                 3.9140
 IR Inten    --    305.3477                 0.2009               185.4354

                     46                     47                     48
                      A                      A                      A
 Frequencies --   1139.1508              1161.3009              1188.1372
 Red. masses --      1.6741                 1.8005                 1.4207
 Frc consts  --      1.2799                 1.4307                 1.1816
 IR Inten    --    179.7124                34.9593                49.3886

                     49                     50                     51
                      A                      A                      A
 Frequencies --   1206.4157              1218.1443              1232.7810
 Red. masses --      1.7200                 2.8389                 2.3609
 Frc consts  --      1.4750                 2.4820                 2.1139
 IR Inten    --     96.3378               217.9178               814.7382

                     52                     53                     54
                      A                      A                      A
 Frequencies --   1262.0172              1288.5043              1346.2897
 Red. masses --      2.2878                 3.8882                 5.2864
 Frc consts  --      2.1469                 3.8034                 5.6453
 IR Inten    --     52.8993               166.7132               303.3895

                     55                     56                     57
                      A                      A                      A
 Frequencies --   1357.9736              1375.3390              1394.3053
 Red. masses --      5.2329                 4.6813                 3.4055
 Frc consts  --      5.6856                 5.2172                 3.9008
 IR Inten    --    207.4023               184.2570              1686.1794

                     58                     59                     60
                      A                      A                      A
 Frequencies --   1407.6931              1447.9458              1473.4080
 Red. masses --      2.4226                 2.9280                 4.0455
 Frc consts  --      2.8284                 3.6168                 5.1745
 IR Inten    --    527.1854               141.4191               748.5249

                     61                     62                     63
                      A                      A                      A
 Frequencies --   1487.4660              1500.8627              1548.7271
 Red. masses --      3.2887                 2.3776                 5.4913
 Frc consts  --      4.2871                 3.1555                 7.7603
 IR Inten    --    307.6675                68.9687               133.0284

                     64                     65                     66
                      A                      A                      A
 Frequencies --   1588.2456              1601.4362              1620.9749
 Red. masses --      3.9987                 5.8830                 3.7195
 Frc consts  --      5.9430                 8.8894                 5.7581
 IR Inten    --    126.5736               752.3827                51.4893

                     67                     68                     69
                      A                      A                      A
 Frequencies --   1653.8636              2850.8066              3140.7072
 Red. masses --      2.9901                 1.0763                 1.0902
 Frc consts  --      4.8188                 5.1536                 6.3358
 IR Inten    --     56.4607              1357.9447                48.6541

                     70                     71                     72
                      A                      A                      A
 Frequencies --   3143.3468              3159.4547              3176.3625
 Red. masses --      1.0853                 1.0888                 1.0929
 Frc consts  --      6.3182                 6.4035                 6.4965
 IR Inten    --     25.5551                23.1926                52.1865

                     73                     74                     75
                      A                      A                      A
 Frequencies --   3184.5663              3571.1980              3797.9076
 Red. masses --      1.0929                 1.0641                 1.0658
 Frc consts  --      6.5300                 7.9961                 9.0576
 IR Inten    --     52.0899               124.3078                58.6956

 - Thermochemistry -
 -------------------
 Temperature   298.150 Kelvin.  Pressure   1.00000 Atm.
 Atom     1 has atomic number  8 and mass  15.99491

 Molecular mass:   256.03717 amu.
 Principal axes and moments of inertia in atomic units:
                           1         2         3
     Eigenvalues --  2699.387075803.396748501.75625
           X            0.98562   0.13547   0.10102
           Y           -0.13886   0.98994   0.02730
           Z           -0.09630  -0.04093   0.99451
 This molecule is an asymmetric top.
 Rotational symmetry number  1.
 Warning -- assumption of classical behavior for rotation
           may cause significant error
 Rotational temperatures (Kelvin)      0.03209     0.01492     0.01019
 Rotational constants (GHZ):           0.66857     0.31098     0.21228
 Zero-point vibrational energy     491469.9 (Joules/Mol)
                                  117.46412 (Kcal/Mol)
 Warning -- explicit consideration of  25 degrees of freedom as
           vibrations may cause significant error
 Vibrational temperatures:     69.63    98.99   148.86   187.57   240.68
          (Kelvin)            286.27   291.94   401.61   422.52   450.87
                              454.57   499.74   506.08   536.38   539.47
                              570.54   598.24   638.66   685.77   728.85
                              732.60   754.35   825.91   827.61   874.11
                              906.13   928.50  1024.14  1029.01  1030.52
                             1069.00  1082.37  1100.05  1143.88  1186.35
                             1208.13  1263.14  1279.66  1336.38  1394.07
                             1404.59  1465.51  1499.36  1576.01  1594.53
                             1638.98  1670.85  1709.46  1735.76  1752.64
                             1773.70  1815.76  1853.87  1937.01  1953.82
                             1978.81  2006.09  2025.36  2083.27  2119.91
                             2140.13  2159.41  2228.27  2285.13  2304.11
                             2332.22  2379.54  4101.67  4518.78  4522.58
                             4545.75  4570.08  4581.88  5138.16  5464.34

 Zero-point correction=                           0.187191 (Hartree/Particle)
 Thermal correction to Energy=                    0.201806
 Thermal correction to Enthalpy=                  0.202750
 Thermal correction to Gibbs Free Energy=         0.146142
 Sum of electronic and zero-point Energies=           -914.767548
 Sum of electronic and thermal Energies=              -914.752933
 Sum of electronic and thermal Enthalpies=            -914.751989
 Sum of electronic and thermal Free Energies=         -914.808597

                     E (Thermal)             CV                S
                      KCal/Mol        Cal/Mol-Kelvin    Cal/Mol-Kelvin
 Total                  126.635             59.359            119.142
 Electronic               0.000              0.000              0.000
 Translational            0.889              2.981             42.520
 Rotational               0.889              2.981             33.254
 Vibrational            124.858             53.398             43.368
 Vibration     1          0.595              1.978              4.882
 Vibration     2          0.598              1.969              4.187
 Vibration     3          0.605              1.946              3.388
 Vibration     4          0.612              1.923              2.941
 Vibration     5          0.624              1.883              2.466
 Vibration     6          0.637              1.841              2.143
 Vibration     7          0.639              1.836              2.107
 Vibration     8          0.679              1.712              1.539
 Vibration     9          0.688              1.686              1.453
 Vibration    10          0.701              1.648              1.344
 Vibration    11          0.703              1.643              1.331
 Vibration    12          0.725              1.581              1.178
 Vibration    13          0.728              1.572              1.158
 Vibration    14          0.744              1.528              1.068
 Vibration    15          0.746              1.523              1.059
 Vibration    16          0.763              1.478              0.975
 Vibration    17          0.779              1.436              0.906
 Vibration    18          0.803              1.374              0.814
 Vibration    19          0.833              1.302              0.719
 Vibration    20          0.862              1.235              0.642
 Vibration    21          0.864              1.230              0.636
 Vibration    22          0.879              1.196              0.600
 Vibration    23          0.930              1.087              0.497
 Vibration    24          0.932              1.085              0.494
 Vibration    25          0.966              1.016              0.437

                           ! Non-Optimized Parameters !
 Normal termination of Gaussian 16 at Sun Feb 11 00:40:33 2024.
