 Gaussian 16, Revision A.03,
 Gaussian 16:  ES64L-G16RevA.03 25-Dec-2016

 ----------------------------------------------------------------------
 #P UB3LYP/6-311++G(d,p) nosym opt freq SCRF=(PCM,Solvent=n,n-DiMethylF
 ormamide)
 ----------------------------------------------------------------------

 -------
 Radical
 -------
 Symbolic Z-matrix:
 Charge = -1 Multiplicity = 2

 SCF Done:  E(UB3LYP) =  -693.661101519     A.U. after   18 cycles
 SCF Done:  E(UB3LYP) =  -693.661430514     A.U. after   13 cycles
 SCF Done:  E(UB3LYP) =  -693.661474345     A.U. after   13 cycles
 SCF Done:  E(UB3LYP) =  -693.661475543     A.U. after   10 cycles
 SCF Done:  E(UB3LYP) =  -693.661475772     A.U. after    9 cycles
 Optimization completed.
    -- Stationary point found.
 Normal termination of Gaussian 16 at Sun Feb 11 15:42:24 2024.

 ----------------------------------------------------------------------
 #P Geom=AllCheck Guess=TCheck SCRF=Check GenChk UB3LYP/6-311++G(d,p) F
 req
 ----------------------------------------------------------------------

 Structure from the checkpoint file:  "341-rad.chk"
 -------
 Radical
 -------
 Charge = -1 Multiplicity = 2

                          Input orientation:
 ---------------------------------------------------------------------
 Center     Atomic      Atomic             Coordinates (Angstroms)
 Number     Number       Type             X           Y           Z
 ---------------------------------------------------------------------
      1          6           0       -0.337479   -2.053052    0.922365
      2          6           0       -0.231687   -0.951371   -0.168529
      3          6           0       -0.545264   -1.578764   -1.555078
      4          6           0       -1.275229    0.137958    0.129486
      5          6           0       -2.628340   -0.205776    0.165328
      6          6           0       -3.633581    0.731685    0.433667
      7          6           0       -3.273455    2.061419    0.676527
      8          6           0       -1.937648    2.430665    0.647984
      9          6           0       -0.907988    1.489905    0.375472
     10          6           0        0.474033    1.939887    0.356528
     11          8           0        0.775483    3.170047    0.584878
     12          6           0        1.504882    0.956476    0.068240
     13          6           0        2.864137    1.369655    0.035732
     14          6           0        3.890853    0.477986   -0.232827
     15          6           0        3.597629   -0.867206   -0.480429
     16          6           0        2.261901   -1.287307   -0.451953
     17          6           0        1.207759   -0.411169   -0.184668
     18          1           0        0.371147   -2.862909    0.732933
     19          1           0       -1.340928   -2.484654    0.948594
     20          1           0       -0.121069   -1.636609    1.909828
     21          1           0       -1.552307   -2.001774   -1.576734
     22          1           0       -0.477507   -0.822906   -2.342090
     23          1           0        0.158695   -2.379826   -1.792434
     24          1           0       -2.923708   -1.233024   -0.019412
     25          1           0       -4.673556    0.424902    0.452090
     26          1           0       -4.037323    2.803908    0.887141
     27          1           0       -1.642854    3.455904    0.834817
     28          1           0        3.074579    2.414055    0.229914
     29          1           0        4.919827    0.824453   -0.250386
     30          1           0        4.388043   -1.578987   -0.691662
     31          1           0        2.050954   -2.333571   -0.645325
 ---------------------------------------------------------------------

 SCF Done:  E(UB3LYP) =  -693.661475772     A.U. after    1 cycles

 Alpha  occ. eigenvalues --  -19.04636 -10.19055 -10.18925 -10.16926 -10.16923
 Alpha  occ. eigenvalues --  -10.16031 -10.16030 -10.15890 -10.15890 -10.15825
 Alpha  occ. eigenvalues --  -10.15820 -10.15748 -10.15747 -10.15461 -10.15453
 Alpha  occ. eigenvalues --  -10.15268 -10.15263  -0.96223  -0.85978  -0.83782
 Alpha  occ. eigenvalues --   -0.80068  -0.75427  -0.73559  -0.72670  -0.71468
 Alpha  occ. eigenvalues --   -0.68247  -0.63650  -0.62024  -0.59966  -0.57708
 Alpha  occ. eigenvalues --   -0.54773  -0.52449  -0.51345  -0.47048  -0.45001
 Alpha  occ. eigenvalues --   -0.44716  -0.44298  -0.42869  -0.42311  -0.42268
 Alpha  occ. eigenvalues --   -0.40767  -0.39466  -0.39226  -0.38345  -0.38030
 Alpha  occ. eigenvalues --   -0.37321  -0.36194  -0.35139  -0.35104  -0.34423
 Alpha  occ. eigenvalues --   -0.33636  -0.32640  -0.31016  -0.30148  -0.24496
 Alpha  occ. eigenvalues --   -0.24423  -0.24043  -0.23945  -0.21917  -0.10776
 Alpha virt. eigenvalues --   -0.00924  -0.00681  -0.00501   0.00034   0.00512
 Alpha virt. eigenvalues --    0.00967   0.01975   0.02007   0.02293   0.03208
 Alpha virt. eigenvalues --    0.04217   0.04263   0.04730   0.05502   0.05795

  Beta  occ. eigenvalues --  -19.04071 -10.18943 -10.18616 -10.16777 -10.16775
  Beta  occ. eigenvalues --  -10.16116 -10.16114 -10.15944 -10.15944 -10.15877
  Beta  occ. eigenvalues --  -10.15873 -10.15529 -10.15527 -10.15433 -10.15426
  Beta  occ. eigenvalues --  -10.15084 -10.15079  -0.95132  -0.85745  -0.83587
  Beta  occ. eigenvalues --   -0.79913  -0.74978  -0.73356  -0.72433  -0.71322
  Beta  occ. eigenvalues --   -0.68193  -0.62853  -0.61975  -0.59734  -0.57562
  Beta  occ. eigenvalues --   -0.54576  -0.52168  -0.51224  -0.46828  -0.44898
  Beta  occ. eigenvalues --   -0.44634  -0.44117  -0.42739  -0.42195  -0.42017
  Beta  occ. eigenvalues --   -0.40699  -0.39331  -0.39122  -0.37916  -0.37266
  Beta  occ. eigenvalues --   -0.36849  -0.36130  -0.34883  -0.34626  -0.33913
  Beta  occ. eigenvalues --   -0.33543  -0.31189  -0.30899  -0.30052  -0.23929
  Beta  occ. eigenvalues --   -0.23440  -0.23296  -0.22487  -0.21414
  Beta virt. eigenvalues --   -0.04696  -0.00503  -0.00249  -0.00162   0.00503
  Beta virt. eigenvalues --    0.00794   0.00963   0.01979   0.02023   0.02274
  Beta virt. eigenvalues --    0.03210   0.04206   0.04254   0.04780   0.05558

 Mulliken charges and spin densities:
               1          2
     1  C   -0.786558   0.017887
     2  C    0.385226  -0.097731
     3  C   -0.785181   0.018049
     4  C    0.226523   0.133587
     5  C   -0.135935  -0.062131
     6  C   -0.503924   0.181135
     7  C   -0.419570  -0.068143
     8  C    0.044022   0.177578
     9  C    0.327546  -0.068158
    10  C   -0.489345   0.276169
    11  O   -0.578121   0.214418
    12  C    0.327552  -0.068152
    13  C    0.045122   0.177397
    14  C   -0.419411  -0.068071
    15  C   -0.504159   0.180893
    16  C   -0.135783  -0.062033
    17  C    0.226578   0.133407
    18  H    0.142873   0.004338
    19  H    0.142907   0.004338
    20  H    0.162741   0.001004
    21  H    0.141772   0.004277
    22  H    0.164180   0.001025
    23  H    0.141808   0.004281
    24  H    0.127104   0.002887
    25  H    0.169948  -0.013143
    26  H    0.164049   0.004045
    27  H    0.178504  -0.011478
    28  H    0.178477  -0.011472
    29  H    0.164039   0.004039
    30  H    0.169939  -0.013125
    31  H    0.127080   0.002882
 Sum of Mulliken charges =  -1.00000   1.00000

 Dipole moment (field-independent basis, Debye):
    X=             -2.7492    Y=            -11.2597    Z=             -2.0540  Tot=             11.7711
 Quadrupole moment (field-independent basis, Debye-Ang):
   XX=           -116.4669   YY=           -134.4486   ZZ=           -112.4114
   XY=             -4.7701   XZ=             -0.5762   YZ=             -4.3082

  Exact polarizability: 537.921 -44.736 330.109 -38.757  35.140 185.743
 Approx polarizability: 529.005 -31.598 374.460 -33.897  39.607 203.536

                      1                      2                      3
                      A                      A                      A
 Frequencies --     37.5631               101.5741               105.6396
 Red. masses --      4.3487                 3.6552                 3.9792
 Frc consts  --      0.0036                 0.0222                 0.0262
 IR Inten    --      2.0131                 0.3302                 5.1446

                      4                      5                      6
                      A                      A                      A
 Frequencies --    161.1497               190.9057               223.3841
 Red. masses --      5.7527                 1.9591                 3.9411
 Frc consts  --      0.0880                 0.0421                 0.1159
 IR Inten    --      2.0897                 0.0041                 2.0006

                      7                      8                      9
                      A                      A                      A
 Frequencies --    256.6035               271.0257               300.9052
 Red. masses --      1.4196                 1.0557                 3.4115
 Frc consts  --      0.0551                 0.0457                 0.1820
 IR Inten    --      0.0104                 0.0155                 8.1754

                     10                     11                     12
                      A                      A                      A
 Frequencies --    306.1939               341.4839               343.5537
 Red. masses --      3.2880                 3.0098                 4.3755
 Frc consts  --      0.1816                 0.2068                 0.3043
 IR Inten    --      6.7410                 0.1069                 0.8006

                     13                     14                     15
                      A                      A                      A
 Frequencies --    355.2171               368.2547               389.1058
 Red. masses --      4.6004                 5.6316                 3.5699
 Frc consts  --      0.3420                 0.4500                 0.3185
 IR Inten    --      0.7806                 0.1483                 0.0037

                     16                     17                     18
                      A                      A                      A
 Frequencies --    427.5577               471.7091               503.6899
 Red. masses --      7.3622                 3.2344                 4.3917
 Frc consts  --      0.7930                 0.4240                 0.6565
 IR Inten    --     14.7228                 0.0071                 5.8323

                     19                     20                     21
                      A                      A                      A
 Frequencies --    552.7354               580.0981               600.5483
 Red. masses --      3.7051                 3.4374                 5.5725
 Frc consts  --      0.6669                 0.6815                 1.1841
 IR Inten    --      0.0043                19.6996                 0.2352

                     22                     23                     24
                      A                      A                      A
 Frequencies --    622.2515               629.6940               645.0159
 Red. masses --      4.8985                 3.6169                 5.3388
 Frc consts  --      1.1175                 0.8450                 1.3087
 IR Inten    --      0.1621                79.1971                18.2141

                     25                     26                     27
                      A                      A                      A
 Frequencies --    677.6496               740.5504               747.3385
 Red. masses --      5.9707                 1.5327                 1.3980
 Frc consts  --      1.6154                 0.4952                 0.4600
 IR Inten    --      0.1719                 0.0360               181.4409

                     28                     29                     30
                      A                      A                      A
 Frequencies --    752.3527               774.0851               775.3838
 Red. masses --      2.5140                 5.5187                 3.6013
 Frc consts  --      0.8384                 1.9483                 1.2757
 IR Inten    --      0.1209                 9.8765                 6.4254

                     31                     32                     33
                      A                      A                      A
 Frequencies --    813.9757               858.7684               861.0482
 Red. masses --      2.7507                 1.4264                 1.5525
 Frc consts  --      1.0738                 0.6198                 0.6782
 IR Inten    --     90.2610                 0.0138                 7.0783

                     34                     35                     36
                      A                      A                      A
 Frequencies --    914.7301               927.3786               931.9979
 Red. masses --      2.7621                 1.6099                 6.4866
 Frc consts  --      1.3617                 0.8157                 3.3197
 IR Inten    --      2.5808                 0.6474                 3.3922

                     37                     38                     39
                      A                      A                      A
 Frequencies --    939.6284               941.5678               976.7616
 Red. masses --      1.3450                 1.3611                 1.2732
 Frc consts  --      0.6996                 0.7109                 0.7157
 IR Inten    --      9.8846                 0.1351                 0.0740

                     40                     41                     42
                      A                      A                      A
 Frequencies --    977.2402              1029.7576              1040.1749
 Red. masses --      1.2787                 1.2834                 2.5819
 Frc consts  --      0.7195                 0.8018                 1.6459
 IR Inten    --      0.9951                 0.2132               362.6656

                     43                     44                     45
                      A                      A                      A
 Frequencies --   1048.2323              1092.8014              1093.9952
 Red. masses --      2.5254                 2.4105                 2.5312
 Frc consts  --      1.6349                 1.6961                 1.7848
 IR Inten    --      6.5180                18.6542                46.1739

                     46                     47                     48
                      A                      A                      A
 Frequencies --   1103.2925              1130.1404              1134.5673
 Red. masses --      1.6408                 1.7024                 3.3928
 Frc consts  --      1.1768                 1.2811                 2.5732
 IR Inten    --     88.7378                21.4923                 6.5966

                     49                     50                     51
                      A                      A                      A
 Frequencies --   1154.4152              1164.8254              1188.0091
 Red. masses --      1.2424                 1.1433                 2.8457
 Frc consts  --      0.9755                 0.9140                 2.3663
 IR Inten    --    126.9209                 0.0630                 4.3675

                     52                     53                     54
                      A                      A                      A
 Frequencies --   1203.6464              1216.4320              1275.7520
 Red. masses --      1.9671                 2.9379                 2.4347
 Frc consts  --      1.6791                 2.5613                 2.3347
 IR Inten    --    539.8473                 4.6239               342.9531

                     55                     56                     57
                      A                      A                      A
 Frequencies --   1281.7229              1320.7620              1327.4329
 Red. masses --      1.6631                 2.7881                 8.4512
 Frc consts  --      1.6097                 2.8655                 8.7739
 IR Inten    --      8.5812               285.2885                 4.1543

                     58                     59                     60
                      A                      A                      A
 Frequencies --   1336.7651              1389.4363              1411.8101
 Red. masses --      7.0243                 1.1930                 1.2140
 Frc consts  --      7.3954                 1.3569                 1.4257
 IR Inten    --      0.0698                 8.5479                 0.2781

                     61                     62                     63
                      A                      A                      A
 Frequencies --   1440.0894              1445.4920              1462.8195
 Red. masses --      2.1160                 4.9531                 2.2563
 Frc consts  --      2.5855                 6.0976                 2.8446
 IR Inten    --    503.6042               531.7765                43.9427

                     64                     65                     66
                      A                      A                      A
 Frequencies --   1476.7364              1478.5112              1482.9540
 Red. masses --      1.0565                 1.9364                 1.0497
 Frc consts  --      1.3574                 2.4940                 1.3601
 IR Inten    --      0.7593                33.8526                 3.4328

                     67                     68                     69
                      A                      A                      A
 Frequencies --   1492.5912              1500.7856              1515.7650
 Red. masses --      1.0582                 1.2513                 3.0445
 Frc consts  --      1.3890                 1.6606                 4.1213
 IR Inten    --     27.6559                36.8111               175.5488

                     70                     71                     72
                      A                      A                      A
 Frequencies --   1554.9887              1573.8849              1584.1656
 Red. masses --      4.7285                 6.2603                 4.4075
 Frc consts  --      6.7364                 9.1367                 6.5169
 IR Inten    --     20.7268                25.5790               468.3279

                     73                     74                     75
                      A                      A                      A
 Frequencies --   1623.6992              3024.1573              3028.2505
 Red. masses --      5.7775                 1.0336                 1.0345
 Frc consts  --      8.9743                 5.5696                 5.5892
 IR Inten    --      1.4081                60.8851                44.4644

                     76                     77                     78
                      A                      A                      A
 Frequencies --   3092.1288              3093.0314              3093.4811
 Red. masses --      1.1026                 1.1019                 1.1021
 Frc consts  --      6.2114                 6.2112                 6.2138
 IR Inten    --     28.3675                 7.6533                64.8971

                     79                     80                     81
                      A                      A                      A
 Frequencies --   3096.4815              3146.3953              3146.8164
 Red. masses --      1.1013                 1.0855                 1.0858
 Frc consts  --      6.2217                 6.3316                 6.3347
 IR Inten    --     77.5923                57.2397                 7.5916

                     82                     83                     84
                      A                      A                      A
 Frequencies --   3157.7119              3158.1003              3175.5252
 Red. masses --      1.0878                 1.0879                 1.0940
 Frc consts  --      6.3907                 6.3929                 6.5000
 IR Inten    --     16.7907                55.1997                61.6355

                     85                     86                     87
                      A                      A                      A
 Frequencies --   3175.8829              3187.6963              3188.2066
 Red. masses --      1.0939                 1.0917                 1.0919
 Frc consts  --      6.5008                 6.5361                 6.5395
 IR Inten    --     49.4775                32.3724                13.7909

 - Thermochemistry -
 -------------------
 Temperature   298.150 Kelvin.  Pressure   1.00000 Atm.
 Atom     1 has atomic number  6 and mass  12.00000

 Molecular mass:   222.10447 amu.
 Principal axes and moments of inertia in atomic units:
                           1         2         3
     Eigenvalues --  2103.091044317.210276029.91246
           X            0.96903   0.23352   0.08025
           Y           -0.21421   0.95667  -0.19723
           Z           -0.12283   0.17394   0.97707
 This molecule is an asymmetric top.
 Rotational symmetry number  1.
 Warning -- assumption of classical behavior for rotation
           may cause significant error
 Rotational temperatures (Kelvin)      0.04118     0.02006     0.01436
 Rotational constants (GHZ):           0.85814     0.41803     0.29930
 Zero-point vibrational energy     656370.8 (Joules/Mol)
                                  156.87640 (Kcal/Mol)
 Warning -- explicit consideration of  21 degrees of freedom as
           vibrations may cause significant error
 Vibrational temperatures:     54.04   146.14   151.99   231.86   274.67
          (Kelvin)            321.40   369.20   389.95   432.94   440.54
                              491.32   494.30   511.08   529.84   559.84
                              615.16   678.68   724.70   795.26   834.63
                              864.06   895.28   905.99   928.03   974.99
                             1065.49  1075.25  1082.47  1113.74  1115.60
                             1171.13  1235.58  1238.86  1316.09  1334.29
                             1340.94  1351.92  1354.71  1405.34  1406.03
                             1481.59  1496.58  1508.17  1572.30  1574.02
                             1587.39  1626.02  1632.39  1660.95  1675.92
                             1709.28  1731.78  1750.17  1835.52  1844.11
                             1900.28  1909.88  1923.31  1999.09  2031.28
                             2071.97  2079.74  2104.67  2124.69  2127.25
                             2133.64  2147.51  2159.30  2180.85  2237.28
                             2264.47  2279.26  2336.14  4351.09  4356.98
                             4448.88  4450.18  4450.83  4455.15  4526.96
                             4527.57  4543.24  4543.80  4568.87  4569.39
                             4586.38  4587.12

 Zero-point correction=                           0.249998 (Hartree/Particle)
 Thermal correction to Energy=                    0.263630
 Thermal correction to Enthalpy=                  0.264574
 Thermal correction to Gibbs Free Energy=         0.209799
 Sum of electronic and zero-point Energies=           -693.411477
 Sum of electronic and thermal Energies=              -693.397846
 Sum of electronic and thermal Enthalpies=            -693.396902
 Sum of electronic and thermal Free Energies=         -693.451677

                     E (Thermal)             CV                S
                      KCal/Mol        Cal/Mol-Kelvin    Cal/Mol-Kelvin
 Total                  165.430             56.729            115.285
 Electronic               0.000              0.000              1.377
 Translational            0.889              2.981             42.097
 Rotational               0.889              2.981             32.371
 Vibrational            163.653             50.767             39.440
 Vibration     1          0.594              1.982              5.384
 Vibration     2          0.604              1.948              3.424
 Vibration     3          0.605              1.945              3.348
 Vibration     4          0.622              1.890              2.536
 Vibration     5          0.634              1.852              2.219
 Vibration     6          0.649              1.805              1.931
 Vibration     7          0.666              1.752              1.685
 Vibration     8          0.675              1.727              1.590
 Vibration     9          0.693              1.672              1.412
 Vibration    10          0.697              1.662              1.383
 Vibration    11          0.721              1.593              1.205
 Vibration    12          0.722              1.588              1.196
 Vibration    13          0.731              1.565              1.143
 Vibration    14          0.741              1.538              1.087
 Vibration    15          0.757              1.493              1.004
 Vibration    16          0.789              1.410              0.867
 Vibration    17          0.829              1.313              0.733
 Vibration    18          0.859              1.242              0.649
 Vibration    19          0.908              1.134              0.539
 Vibration    20          0.937              1.074              0.485
 Vibration    21          0.959              1.031              0.449

                           ! Non-Optimized Parameters !
 Normal termination of Gaussian 16 at Sun Feb 11 16:24:33 2024.
