 Q-Chem 5.4, Q-Chem, Inc., Pleasanton, CA (2021)
 Q-Chem 5.4.0 for Intel X86 EM64T Linux

User input:
--------------------------------------------------------------
$molecule
-1 2
O                  4.8728980000     -0.8947290000      0.0190890000
C                  3.6514870000     -0.2648620000      0.0585130000
C                  3.5770730000      1.1310370000      0.1256070000
C                  2.3393530000      1.7539740000      0.1649160000
C                  1.1487720000      1.0095120000      0.1386880000
C                 -0.1462570000      1.7167670000      0.1824440000
O                 -0.1747300000      2.9582790000      0.2417220000
C                 -1.3609100000      0.8804300000      0.1517490000
C                 -2.6594320000      1.4492670000      0.1886510000
O                 -2.8166500000      2.8139140000      0.2549790000
C                 -3.7882940000      0.6391620000      0.1584140000
C                 -3.6864980000     -0.7553580000      0.0910310000
C                 -2.4426360000     -1.3594450000      0.0528740000
O                 -2.3815940000     -2.7118320000     -0.0121360000
C                 -1.2571140000     -0.5573600000      0.0823170000
C                  0.0238900000     -1.2077970000      0.0415740000
O                  0.1247440000     -2.5125000000     -0.0216090000
C                  1.2177030000     -0.4067440000      0.0706340000
C                  2.4909330000     -1.0291860000      0.0310790000
O                  2.6421060000     -2.3817180000     -0.0344220000
H                  4.6832750000     -1.8429090000     -0.0244030000
H                  4.4988760000      1.7020960000      0.1456740000
H                  2.2568800000      2.8322680000      0.2169220000
H                 -3.7638170000      2.9875430000      0.2702770000
H                 -4.7719330000      1.1033990000      0.1879880000
H                 -4.5716800000     -1.3804170000      0.0678040000
H                 -1.4068290000     -2.9341390000     -0.0297380000
H                  1.7003840000     -2.7386520000     -0.0437830000
$end
$rem
MAX_SCF_CYCLES=200
BASIS  =  6-311++G(d,p)
GUI  =  2
JOB_TYPE  =  SP
METHOD  =  B3LYP
SOLVENT_METHOD = COSMO
$end
$solvent
dielectric 37.219
opticaldielectric 1.43
$end

--------------------------------------------------------------

             Standard Nuclear Orientation (Angstroms)
    I     Atom           X                Y                Z
 ----------------------------------------------------------------
    1      O       4.8675906695    -0.1387714985    -0.0002123516
    2      C       3.5652334809     0.3016797146    -0.0001608381
    3      C       3.2817991824     1.6721679707    -0.0002293283
    4      C       1.9643570878     2.1033208542    -0.0000867980
    5      C       0.8990967866     1.1881076846     0.0001133841
    6      C      -0.4876853672     1.6941309790     0.0002428997
    7      O      -0.7024838391     2.9186873180     0.0000745846
    8      C      -1.5629303242     0.6843627140     0.0001757564
    9      C      -2.9323523804     1.0528459361     0.0000284801
   10      O      -3.2929615646     2.3800005440     0.0000527769
   11      C      -3.9267136978     0.0818879914    -0.0001771063
   12      C      -3.6164107962    -1.2831398574    -0.0002542245
   13      C      -2.2957341392    -1.6947013697    -0.0000975036
   14      O      -2.0320615204    -3.0241297330    -0.0001228137
   15      C      -1.2441451883    -0.7231920918     0.0001291633
   16      C       0.1202249698    -1.1750699496     0.0001947327
   17      O       0.4160947737    -2.4513436544     0.0000256058
   18      C       1.1801707174    -0.2033524590     0.0001512349
   19      C       2.5326486626    -0.6286954528     0.0000101399
   20      O       2.8854565471    -1.9447551143     0.0001884907
   21      H       4.8226467996    -1.1056601735     0.0000829871
   22      H       4.1073753832     2.3754856469    -0.0003696080
   23      H       1.7207030821     3.1582412736    -0.0001527325
   24      H      -4.2555671519     2.4099475226    -0.0001621822
   25      H      -4.9690726038     0.3940164914    -0.0002587364
   26      H      -4.3976554050    -2.0344335779    -0.0004178640
   27      H      -1.0348537139    -3.0981123770     0.0003208330
   28      H       2.0079891152    -2.4391036867     0.0006670082
 ----------------------------------------------------------------

   11    -990.0341317839      5.74e-06  Convergence criterion met
 Total energy in the final basis set =     -990.0341317839
    5    -990.1197350709      3.78e-06  Convergence criterion met
 Total energy in the final basis set =     -990.1197350709

                    Orbital Energies (a.u.)
 --------------------------------------------------------------

 Alpha MOs
 -- Occupied --
-19.1573 -19.1506 -19.1441 -19.1349 -19.1043 -19.0814 -10.2399 -10.2392
-10.2381 -10.2372 -10.2349 -10.2342 -10.1862 -10.1846 -10.1844 -10.1769
-10.1763 -10.1757 -10.1717 -10.1716  -1.0787  -1.0628  -1.0595  -1.0488
 -1.0146  -1.0077  -0.8667  -0.8500  -0.7934  -0.7539  -0.7468  -0.7397
 -0.6795  -0.6536  -0.6484  -0.6063  -0.5931  -0.5625  -0.5558  -0.5368
 -0.5264  -0.5008  -0.4930  -0.4829  -0.4669  -0.4528  -0.4514  -0.4335
 -0.4323  -0.4315  -0.4220  -0.4119  -0.4080  -0.4028  -0.3952  -0.3903
 -0.3820  -0.3790  -0.3654  -0.3646  -0.3624  -0.3553  -0.3286  -0.3148
 -0.2762  -0.2721  -0.2509  -0.2419  -0.2290  -0.2185  -0.1471

 Beta MOs
 -- Occupied --
-19.1571 -19.1504 -19.1436 -19.1342 -19.0998 -19.0771 -10.2384 -10.2382
-10.2364 -10.2364 -10.2340 -10.2338 -10.1866 -10.1848 -10.1837 -10.1763
-10.1755 -10.1742 -10.1718 -10.1710  -1.0777  -1.0623  -1.0574  -1.0479
 -1.0074  -1.0001  -0.8643  -0.8485  -0.7895  -0.7515  -0.7445  -0.7376
 -0.6728  -0.6521  -0.6464  -0.6049  -0.5910  -0.5611  -0.5551  -0.5353
 -0.5253  -0.4993  -0.4904  -0.4819  -0.4653  -0.4518  -0.4443  -0.4322
 -0.4296  -0.4270  -0.4198  -0.4098  -0.4019  -0.4000  -0.3896  -0.3864
 -0.3781  -0.3737  -0.3637  -0.3612  -0.3539  -0.3530  -0.3220  -0.3077
 -0.2687  -0.2612  -0.2466  -0.2380  -0.2187  -0.2109

          Ground-State Mulliken Net Atomic Charges

     Atom                 Charge (a.u.)    Spin (a.u.)
  --------------------------------------------------------
      1 O                    -0.329879       0.004648
      2 C                    -0.330497       0.023840
      3 C                    -0.044302       0.046157
      4 C                    -0.042754       0.015863
      5 C                     0.230440       0.051256
      6 C                    -0.414548       0.041907
      7 O                    -0.459350       0.156710
      8 C                     0.092105       0.057291
      9 C                    -0.203733       0.008900
     10 O                    -0.274988       0.005667
     11 C                    -0.211938       0.110933
     12 C                    -0.197114       0.032799
     13 C                    -0.187604       0.081915
     14 O                    -0.438014       0.019000
     15 C                     0.611423      -0.053058
     16 C                    -0.474270       0.212990
     17 O                    -0.605608       0.155745
     18 C                     0.485222      -0.047316
     19 C                    -0.039424       0.083344
     20 O                    -0.507411       0.014857
     21 H                     0.327630      -0.000133
     22 H                     0.233664      -0.003685
     23 H                     0.180299      -0.000968
     24 H                     0.313722      -0.000574
     25 H                     0.199144      -0.009267
     26 H                     0.217014      -0.003802
     27 H                     0.412543      -0.002596
     28 H                     0.458228      -0.002424
  --------------------------------------------------------
  Sum of atomic charges =    -1.000000

                    Cartesian Multipole Moments
 -----------------------------------------------------------------
    Charge (ESU x 10^10)
                -4.8032
    Dipole Moment (Debye)
         X      -2.5850      Y      -1.1102      Z       0.0020
       Tot       2.8133
    Quadrupole Moments (Debye-Ang)
        XX    -120.2139     XY      -3.2490     YY    -154.1482
        XZ       0.0060     YZ      -0.0061     ZZ    -120.6997

 Total job time:  123.09s(wall), 897.82s(cpu)
        *  Thank you very much for using Q-Chem.  Have a nice day.  *
