 Q-Chem 5.4, Q-Chem, Inc., Pleasanton, CA (2021)
 Q-Chem 5.4.0 for Intel X86 EM64T Linux

User input:
--------------------------------------------------------------
$molecule
-2 1
C                 -1.2654030000      2.4486610000     -2.9041900000
C                 -2.1493230000      2.2735940000     -1.7849460000
C                  0.0935600000      2.1633230000     -2.5365710000
C                  0.4621870000      1.4946140000     -1.3729600000
C                 -0.5343030000      0.9036790000     -0.4981930000
C                 -1.8013910000      1.6026930000     -0.6168280000
C                 -0.2865220000     -0.2204060000      0.4536370000
C                 -1.3145290000     -0.8241230000      1.2825340000
C                  0.9817110000     -0.9049080000      0.6279360000
C                  1.2841630000     -1.5709280000      1.8119840000
C                  0.3522620000     -1.7615170000      2.8883080000
C                 -0.9925270000     -1.4939520000      2.4587000000
O                 -1.6155290000      2.9535460000     -4.0223600000
O                  0.6566600000     -2.2645970000      4.0205920000
C                  1.9002690000      1.7601460000     -0.8792080000
C                  1.9484230000      3.1568710000     -0.2150550000
C                  3.0000500000      1.6838870000     -1.9547880000
C                  1.8666980000     -1.2657320000     -0.5840650000
C                  1.4265300000     -2.6455850000     -1.1286500000
C                  3.3831890000     -1.2984650000     -0.3167400000
C                 -2.7310080000     -1.0842160000      0.7254470000
C                 -3.8663310000     -1.0831870000      1.7658140000
C                 -2.7321040000     -2.4424090000     -0.0149420000
C                 -2.6321770000      1.9555650000      0.6360630000
C                 -2.1129520000      3.2922180000      1.2163200000
C                 -4.1526720000      2.0645550000      0.4181280000
H                 -3.0989600000      2.7967580000     -1.8518220000
H                  0.8539700000      2.6065510000     -3.1736940000
H                  2.2354200000     -2.0848510000      1.9196210000
H                 -1.7752910000     -1.9451880000      3.0617140000
H                  2.1421860000      1.0565500000     -0.0878430000
H                  2.9460170000      3.3539330000      0.2026250000
H                  1.2213170000      3.2189380000      0.5973020000
H                  1.7125620000      3.9425070000     -0.9395720000
H                  2.9782920000      0.7359770000     -2.4975460000
H                  3.9912930000      1.7893860000     -1.4962650000
H                  2.8920630000      2.4865000000     -2.6903820000
H                  1.6735130000     -0.5633920000     -1.3897920000
H                  1.5821200000     -3.4289010000     -0.3803170000
H                  1.9965230000     -2.9062550000     -2.0317760000
H                  0.3657540000     -2.6334790000     -1.3876620000
H                  3.6479300000     -2.1093170000      0.3683510000
H                  3.7424520000     -0.3656670000      0.1242210000
H                  3.9327800000     -1.4654420000     -1.2516210000
H                 -2.9624820000     -0.3409330000     -0.0326870000
H                 -4.8398610000     -1.1647990000      1.2664030000
H                 -3.8704890000     -0.1707620000      2.3666700000
H                 -3.7790650000     -1.9301640000      2.4530240000
H                 -3.7164090000     -2.6401360000     -0.4625380000
H                 -2.4903150000     -3.2607050000      0.6707640000
H                 -1.9894100000     -2.4413510000     -0.8154840000
H                 -2.4505620000      1.2142540000      1.4095910000
H                 -2.6537350000      3.5521700000      2.1373440000
H                 -2.2406040000      4.1063040000      0.4957240000
H                 -1.0503970000      3.2167750000      1.4565990000
H                 -4.6650920000      2.2077450000      1.3776920000
H                 -4.5641510000      1.1694410000     -0.0541290000
H                 -4.4046450000      2.9184440000     -0.2179630000
$end
$rem
MAX_SCF_CYCLES=200
BASIS  =  6-311++G(d,p)
GUI  =  2
JOB_TYPE  =  SP
METHOD  =  B3LYP
SOLVENT_METHOD = COSMO
$end
$solvent
dielectric 37.219
opticaldielectric 1.43
$end

--------------------------------------------------------------

             Standard Nuclear Orientation (Angstroms)
    I     Atom           X                Y                Z
 ----------------------------------------------------------------
    1      C       3.5249544730     0.0465946376    -1.0241016207
    2      C       2.8455341281     1.2135210241    -0.5328369710
    3      C       2.8686326183    -1.1538038120    -0.5863492661
    4      C       1.5835508309    -1.1893485333    -0.0531049286
    5      C       0.7461988604    -0.0036984732    -0.0309822911
    6      C       1.5592146969     1.1989749497    -0.0028980849
    7      C      -0.7461730247    -0.0045580954     0.0304040080
    8      C      -1.5607231027     1.1971420366     0.0026946617
    9      C      -1.5818857061    -1.1913282628     0.0527413226
   10      C      -2.8670318603    -1.1575619105     0.5859286394
   11      C      -3.5250246721     0.0418928068     1.0236395425
   12      C      -2.8470777543     1.2097673222     0.5326521593
   13      O       4.6519475613     0.0713186983    -1.6216604275
   14      O      -4.6520985910     0.0650592490     1.6211195694
   15      C       1.2674147352    -2.4060304728     0.8425072343
   16      C       1.9443520214    -2.2002258988     2.2186101115
   17      C       1.6910701944    -3.7762219909     0.2809938553
   18      C      -1.2636951826    -2.4080815157    -0.8420260692
   19      C      -1.9393688427    -2.2036985439    -2.2189820227
   20      C      -1.6867329966    -3.7783341317    -0.2801312085
   21      C      -1.2052150622     2.3747399996    -0.9307313517
   22      C      -1.6605633836     3.7654669125    -0.4512947786
   23      C      -1.8131102314     2.1030701823    -2.3269850075
   24      C       1.2015810096     2.3757232927     0.9308156651
   25      C       1.8096725938     2.1046557445     2.3271254584
   26      C       1.6546281492     3.7674165637     0.4520488554
   27      H       3.4409077827     2.1213513563    -0.4959899723
   28      H       3.4831294041    -2.0499027661    -0.5856351214
   29      H      -3.4802262303    -2.0545484020     0.5853350932
   30      H      -3.4436209279     2.1168279965     0.4960944411
   31      H       0.2009913195    -2.4317791704     1.0472212600
   32      H       1.6893957263    -3.0215538505     2.9033739295
   33      H       1.6118082324    -1.2640159825     2.6718042908
   34      H       3.0331216811    -2.1572608053     2.1160730545
   35      H       1.2858767391    -3.9534589531    -0.7180048176
   36      H       1.3409589075    -4.5831077176     0.9369615193
   37      H       2.7799700535    -3.8579237115     0.2133974169
   38      H      -0.1970783227    -2.4331423624    -1.0457374985
   39      H      -3.0283581544    -2.1629135736    -2.1178220106
   40      H      -1.6820128952    -3.0246333163    -2.9033148777
   41      H      -1.6081000492    -1.2668861273    -2.6718870636
   42      H      -2.7756651768    -3.8615069240    -0.2151124814
   43      H      -1.2837798261    -3.9539344384     0.7200797144
   44      H      -1.3339375067    -4.5854050065    -0.9344293173
   45      H      -0.1296891427     2.4019075972    -1.0834497552
   46      H      -1.2697467462     4.5443406082    -1.1179660983
   47      H      -1.3142950578     3.9831581528     0.5617567368
   48      H      -2.7514079556     3.8509061401    -0.4524063087
   49      H      -1.5425541974     2.9028623814    -3.0308502995
   50      H      -2.9046562283     2.0416927521    -2.2720020073
   51      H      -1.4409917215     1.1579900077    -2.7280015519
   52      H       0.1259670104     2.4007741762     1.0834542961
   53      H       1.5363534504     2.9029534641     3.0316280493
   54      H       2.9014446522     2.0466102219     2.2727735179
   55      H       1.4401751042     1.1580848931     2.7270304478
   56      H       1.2625431041     4.5453274641     1.1191055628
   57      H       1.3081401971     3.9851463089    -0.5609223049
   58      H       2.7453300600     3.8545730214     0.4533415425
 ----------------------------------------------------------------

   11   -1084.5139852305      4.84e-06  Convergence criterion met
 Total energy in the final basis set =    -1084.5139852305
    5   -1084.7611260986      9.66e-06  Convergence criterion met
 Total energy in the final basis set =    -1084.7611260986

                    Orbital Energies (a.u.)
 --------------------------------------------------------------

 Alpha MOs
 -- Occupied --
-19.0383 -19.0382 -10.1852 -10.1852 -10.1569 -10.1569 -10.1564 -10.1564
-10.1501 -10.1501 -10.1500 -10.1499 -10.1464 -10.1461 -10.1427 -10.1427
-10.1425 -10.1425 -10.1418 -10.1418 -10.1417 -10.1417 -10.1184 -10.1184
-10.1183 -10.1183  -0.9556  -0.9556  -0.8324  -0.8096  -0.7949  -0.7818
 -0.7577  -0.7488  -0.7084  -0.6903  -0.6873  -0.6696  -0.6690  -0.6677
 -0.6646  -0.6509  -0.6067  -0.5921  -0.5839  -0.5658  -0.5452  -0.5245
 -0.5141  -0.5109  -0.4785  -0.4670  -0.4397  -0.4383  -0.4349  -0.4275
 -0.4203  -0.4186  -0.4173  -0.4145  -0.4135  -0.3971  -0.3958  -0.3926
 -0.3867  -0.3839  -0.3816  -0.3756  -0.3735  -0.3734  -0.3676  -0.3664
 -0.3574  -0.3496  -0.3441  -0.3426  -0.3397  -0.3390  -0.3327  -0.3276
 -0.3244  -0.3239  -0.3216  -0.3132  -0.3106  -0.3079  -0.3030  -0.3019
 -0.2860  -0.2842  -0.2447  -0.2127  -0.2121  -0.1988  -0.1934  -0.1879
 -0.1251

          Ground-State Mulliken Net Atomic Charges

     Atom                 Charge (a.u.)
  ----------------------------------------
      1 C                    -0.447925
      2 C                    -0.410417
      3 C                    -0.403227
      4 C                     0.439251
      5 C                     0.202996
      6 C                     0.460692
      7 C                     0.201759
      8 C                     0.461615
      9 C                     0.438541
     10 C                    -0.401353
     11 C                    -0.448683
     12 C                    -0.410720
     13 O                    -0.693987
     14 O                    -0.694293
     15 C                     0.016169
     16 C                    -0.644017
     17 C                    -0.739394
     18 C                     0.015181
     19 C                    -0.643400
     20 C                    -0.741518
     21 C                    -0.011391
     22 C                    -0.731235
     23 C                    -0.667868
     24 C                    -0.010180
     25 C                    -0.668027
     26 C                    -0.733161
     27 H                     0.156552
     28 H                     0.155075
     29 H                     0.155166
     30 H                     0.156560
     31 H                     0.264433
     32 H                     0.153491
     33 H                     0.116588
     34 H                     0.171220
     35 H                     0.140594
     36 H                     0.171053
     37 H                     0.140290
     38 H                     0.264175
     39 H                     0.170893
     40 H                     0.153431
     41 H                     0.116994
     42 H                     0.140230
     43 H                     0.140940
     44 H                     0.171188
     45 H                     0.263507
     46 H                     0.172016
     47 H                     0.140990
     48 H                     0.139729
     49 H                     0.151103
     50 H                     0.171266
     51 H                     0.125042
     52 H                     0.262332
     53 H                     0.151171
     54 H                     0.171195
     55 H                     0.124995
     56 H                     0.172255
     57 H                     0.140540
     58 H                     0.139581
  ----------------------------------------
  Sum of atomic charges =    -2.000000

                    Cartesian Multipole Moments
 -----------------------------------------------------------------
    Charge (ESU x 10^10)
                -9.6064
    Dipole Moment (Debye)
         X       0.0036      Y      -0.5165      Z       0.0030
       Tot       0.5165
    Quadrupole Moments (Debye-Ang)
        XX    -340.9989     XY      -0.1171     YY    -175.3145
        XZ      58.5156     YZ       0.0391     ZZ    -198.0004

 Total job time:  379.59s(wall), 2921.52s(cpu)
        *  Thank you very much for using Q-Chem.  Have a nice day.  *
