 Gaussian 16, Revision A.03,
 Gaussian 16:  ES64L-G16RevA.03 25-Dec-2016

 --------------------------------------
 #P UB3LYP/6-311++G(d,p) nosym opt freq
 --------------------------------------

 --------
 Oxidized
 --------
 Symbolic Z-matrix:
 Charge =  0 Multiplicity = 1

 SCF Done:  E(UB3LYP) =  -649.838236565     A.U. after   16 cycles
 SCF Done:  E(UB3LYP) =  -649.848581270     A.U. after   14 cycles
 SCF Done:  E(UB3LYP) =  -649.849336562     A.U. after   13 cycles
 SCF Done:  E(UB3LYP) =  -649.849389709     A.U. after   12 cycles
 SCF Done:  E(UB3LYP) =  -649.849393669     A.U. after   11 cycles
 Optimization completed.
    -- Stationary point found.
 Normal termination of Gaussian 16 at Tue Dec 26 20:20:02 2023.

 ----------------------------------------------------------------------
 #P Geom=AllCheck Guess=TCheck SCRF=Check GenChk UB3LYP/6-311++G(d,p) F
 req
 ----------------------------------------------------------------------

 Structure from the checkpoint file:  "281.chk"
 --------
 Oxidized
 --------
 Charge =  0 Multiplicity = 1

                          Input orientation:
 ---------------------------------------------------------------------
 Center     Atomic      Atomic             Coordinates (Angstroms)
 Number     Number       Type             X           Y           Z
 ---------------------------------------------------------------------
      1          6           0        3.312662   -0.275258   -0.104511
      2          6           0        1.821520   -0.430605   -0.153091
      3          6           0        0.962054    0.734835    0.145325
      4          8           0        1.445498    1.820996    0.430774
      5          6           0       -0.530974    0.567074    0.093635
      6          6           0       -1.354264    1.656547    0.372481
      7          6           0       -2.739988    1.514063    0.327892
      8          6           0       -3.313648    0.283180    0.004683
      9          6           0       -2.500444   -0.810743   -0.275405
     10          6           0       -1.111469   -0.670210   -0.231302
     11          6           0       -0.236752   -1.819872   -0.525637
     12          8           0       -0.644801   -2.938113   -0.818491
     13          6           0        1.237125   -1.613013   -0.463742
     14          8           0        1.959713   -2.709050   -0.744745
     15          1           0        3.750448   -0.961011    0.626969
     16          1           0        3.574279    0.747078    0.162749
     17          1           0        3.759746   -0.519026   -1.072841
     18          1           0       -0.892987    2.604164    0.621401
     19          1           0       -3.374867    2.365366    0.545799
     20          1           0       -4.391875    0.178335   -0.028453
     21          1           0       -2.921599   -1.775949   -0.528752
     22          1           0        1.315984   -3.418659   -0.932759
 ---------------------------------------------------------------------

 SCF Done:  E(UB3LYP) =  -649.849393669     A.U. after    1 cycles

 Alpha  occ. eigenvalues --  -19.18076 -19.15070 -19.12723 -10.29478 -10.27967
 Alpha  occ. eigenvalues --  -10.26794 -10.21647 -10.21491 -10.20858 -10.20852
 Alpha  occ. eigenvalues --  -10.20840 -10.20711 -10.20373 -10.17400  -1.11058
 Alpha  occ. eigenvalues --   -1.06875  -1.06022  -0.89866  -0.84498  -0.79247
 Alpha  occ. eigenvalues --   -0.78617  -0.72814  -0.68898  -0.65942  -0.62973
 Alpha  occ. eigenvalues --   -0.60956  -0.57852  -0.54524  -0.52273  -0.50124
 Alpha  occ. eigenvalues --   -0.48427  -0.47714  -0.46761  -0.45939  -0.44825
 Alpha  occ. eigenvalues --   -0.43123  -0.42596  -0.42236  -0.41079  -0.39513
 Alpha  occ. eigenvalues --   -0.39412  -0.38178  -0.38042  -0.37632  -0.30465
 Alpha  occ. eigenvalues --   -0.29486  -0.28592  -0.27791  -0.26075
 Alpha virt. eigenvalues --   -0.12744  -0.06098  -0.03201  -0.01372  -0.00570
 Alpha virt. eigenvalues --    0.00855   0.01695   0.02164   0.02294   0.03343
 Alpha virt. eigenvalues --    0.03743   0.04616   0.04981   0.05329   0.06122

  Beta  occ. eigenvalues --  -19.18076 -19.15070 -19.12723 -10.29478 -10.27967
  Beta  occ. eigenvalues --  -10.26794 -10.21647 -10.21491 -10.20858 -10.20852
  Beta  occ. eigenvalues --  -10.20840 -10.20711 -10.20373 -10.17400  -1.11058
  Beta  occ. eigenvalues --   -1.06875  -1.06022  -0.89866  -0.84498  -0.79247
  Beta  occ. eigenvalues --   -0.78617  -0.72814  -0.68898  -0.65942  -0.62973
  Beta  occ. eigenvalues --   -0.60956  -0.57852  -0.54524  -0.52273  -0.50124
  Beta  occ. eigenvalues --   -0.48427  -0.47714  -0.46761  -0.45939  -0.44825
  Beta  occ. eigenvalues --   -0.43123  -0.42596  -0.42236  -0.41079  -0.39513
  Beta  occ. eigenvalues --   -0.39412  -0.38178  -0.38042  -0.37632  -0.30465
  Beta  occ. eigenvalues --   -0.29486  -0.28592  -0.27791  -0.26075
  Beta virt. eigenvalues --   -0.12744  -0.06098  -0.03201  -0.01372  -0.00570
  Beta virt. eigenvalues --    0.00855   0.01695   0.02164   0.02294   0.03343
  Beta virt. eigenvalues --    0.03743   0.04616   0.04981   0.05329   0.06122

 Mulliken charges and spin densities:
               1          2
     1  C   -0.177914   0.000000
     2  C    1.527285   0.000000
     3  C   -1.533977  -0.000000
     4  O   -0.220334   0.000000
     5  C    0.392156  -0.000000
     6  C    0.031946   0.000000
     7  C   -0.348013   0.000000
     8  C   -0.279215  -0.000000
     9  C   -0.026200   0.000000
    10  C    0.819495  -0.000000
    11  C   -1.041862   0.000000
    12  O   -0.274324   0.000000
    13  C   -0.261487   0.000000
    14  O   -0.196293  -0.000000
    15  H    0.181308  -0.000000
    16  H    0.210940   0.000000
    17  H    0.181298  -0.000000
    18  H    0.180839  -0.000000
    19  H    0.186233   0.000000
    20  H    0.181724  -0.000000
    21  H    0.181894   0.000000
    22  H    0.284503  -0.000000
 Sum of Mulliken charges =   0.00000   0.00000

 Dipole moment (field-independent basis, Debye):
    X=             -2.3117    Y=              0.0025    Z=             -0.0127  Tot=              2.3117
 Quadrupole moment (field-independent basis, Debye-Ang):
   XX=            -72.5777   YY=            -85.7683   ZZ=            -82.0918
   XY=             -6.6615   XZ=             -1.5650   YZ=             -1.0677

  Exact polarizability: 180.210  -4.132 165.065  -0.481  24.415  77.444
 Approx polarizability: 267.457  23.654 325.428   6.999  55.593 126.666

 ******    1 imaginary frequencies (negative Signs) ******

                      1                      2                      3
                      A                      A                      A
 Frequencies --    -54.7425                63.5083               106.2630
 Red. masses --      1.0186                 7.2773                 4.2767
 Frc consts  --      0.0018                 0.0173                 0.0285
 IR Inten    --      0.0236                 5.0134                 0.0902

                      4                      5                      6
                      A                      A                      A
 Frequencies --    125.9272               167.0025               248.5285
 Red. masses --      6.0484                 6.3529                 4.1185
 Frc consts  --      0.0565                 0.1044                 0.1499
 IR Inten    --      0.0746                 0.4978                 0.3360

                      7                      8                      9
                      A                      A                      A
 Frequencies --    285.0219               286.9066               337.8143
 Red. masses --      4.6118                 3.6408                 5.5966
 Frc consts  --      0.2207                 0.1766                 0.3763
 IR Inten    --      0.0292                 4.6172                 6.8801

                     10                     11                     12
                      A                      A                      A
 Frequencies --    387.6078               418.5217               421.6501
 Red. masses --      9.0641                 8.8926                 3.4716
 Frc consts  --      0.8023                 0.9177                 0.3636
 IR Inten    --      9.5660                24.0669                 0.0319

                     13                     14                     15
                      A                      A                      A
 Frequencies --    424.4311               443.2636               510.8138
 Red. masses --      8.1395                 4.9737                10.0142
 Frc consts  --      0.8639                 0.5758                 1.5395
 IR Inten    --      6.5233                 1.8527                 0.0509

                     16                     17                     18
                      A                      A                      A
 Frequencies --    543.0082               631.5488               648.8075
 Red. masses --      5.1496                 7.0667                 1.1225
 Frc consts  --      0.8946                 1.6607                 0.2784
 IR Inten    --      8.1944                 0.9736                72.9246

                     19                     20                     21
                      A                      A                      A
 Frequencies --    673.7139               693.2732               715.9733
 Red. masses --      6.5573                 4.5800                 5.7514
 Frc consts  --      1.7536                 1.2969                 1.7371
 IR Inten    --      3.8314                 9.3336                 2.7423

                     22                     23                     24
                      A                      A                      A
 Frequencies --    728.4079               744.0269               802.8879
 Red. masses --      3.1345                 4.6264                 1.7286
 Frc consts  --      0.9799                 1.5089                 0.6565
 IR Inten    --     63.5341                13.6117                17.3406

                     25                     26                     27
                      A                      A                      A
 Frequencies --    848.9630               912.1696               950.5495
 Red. masses --      3.5796                 1.3161                 5.6745
 Frc consts  --      1.5201                 0.6452                 3.0209
 IR Inten    --      7.7480                 0.0236                36.3106

                     28                     29                     30
                      A                      A                      A
 Frequencies --    996.8123               997.3384              1015.9368
 Red. masses --      1.3729                 2.9179                 1.3251
 Frc consts  --      0.8038                 1.7100                 0.8058
 IR Inten    --      1.6014                 0.9455                 0.1539

                     31                     32                     33
                      A                      A                      A
 Frequencies --   1046.3168              1051.2695              1097.5552
 Red. masses --      1.4467                 2.2296                 2.2666
 Frc consts  --      0.9331                 1.4518                 1.6087
 IR Inten    --      0.0417                10.4460                92.4612

                     34                     35                     36
                      A                      A                      A
 Frequencies --   1112.5274              1181.3931              1194.6224
 Red. masses --      2.1800                 1.2323                 2.2341
 Frc consts  --      1.5898                 1.0133                 1.8785
 IR Inten    --      7.1081                27.8999                39.0123

                     37                     38                     39
                      A                      A                      A
 Frequencies --   1234.7826              1292.3778              1308.4474
 Red. masses --      2.7730                 2.1786                 1.9522
 Frc consts  --      2.4911                 2.1439                 1.9692
 IR Inten    --     92.4156                41.9176                76.4768

                     40                     41                     42
                      A                      A                      A
 Frequencies --   1323.4620              1365.8497              1387.2641
 Red. masses --      5.4376                 6.5520                 1.9844
 Frc consts  --      5.6115                 7.2016                 2.2501
 IR Inten    --    233.3571                76.5317               251.9969

                     43                     44                     45
                      A                      A                      A
 Frequencies --   1411.1348              1480.3512              1488.3347
 Red. masses --      1.4045                 1.5005                 1.0435
 Frc consts  --      1.6478                 1.9373                 1.3619
 IR Inten    --     75.4150                14.9882                 9.6883

                     46                     47                     48
                      A                      A                      A
 Frequencies --   1489.8967              1506.6217              1613.5301
 Red. masses --      1.5174                 2.6689                 6.6513
 Frc consts  --      1.9845                 3.5694                10.2026
 IR Inten    --     41.4757                 2.4757                 2.5793

                     49                     50                     51
                      A                      A                      A
 Frequencies --   1628.0834              1693.4026              1704.0059
 Red. masses --      5.9359                 8.2981                10.6333
 Frc consts  --      9.2703                14.0201                18.1911
 IR Inten    --     80.8104                50.2794                43.2349

                     52                     53                     54
                      A                      A                      A
 Frequencies --   1705.5406              3031.5333              3076.6008
 Red. masses --     11.6150                 1.0386                 1.0995
 Frc consts  --     19.9064                 5.6238                 6.1318
 IR Inten    --    435.4611                14.2862                10.6695

                     55                     56                     57
                      A                      A                      A
 Frequencies --   3140.6612              3171.9511              3185.9838
 Red. masses --      1.0988                 1.0871                 1.0915
 Frc consts  --      6.3860                 6.4440                 6.5276
 IR Inten    --      3.6931                 3.1575                 7.6599

                     58                     59                     60
                      A                      A                      A
 Frequencies --   3199.5968              3203.0167              3616.8759
 Red. masses --      1.0933                 1.0948                 1.0642
 Frc consts  --      6.5945                 6.6177                 8.2025
 IR Inten    --      1.4668                 7.8184               134.5042

 - Thermochemistry -
 -------------------
 Temperature   298.150 Kelvin.  Pressure   1.00000 Atm.
 Atom     1 has atomic number  6 and mass  12.00000

 Molecular mass:   188.04734 amu.
 Principal axes and moments of inertia in atomic units:
                           1         2         3
     Eigenvalues --  1602.534912777.903574369.33629
           X            0.91579   0.40162  -0.00528
           Y           -0.38991   0.88578  -0.25170
           Z           -0.09642   0.23256   0.96779
 This molecule is an asymmetric top.
 Rotational symmetry number  1.
 Warning -- assumption of classical behavior for rotation
           may cause significant error
 Rotational temperatures (Kelvin)      0.05405     0.03118     0.01982
 Rotational constants (GHZ):           1.12618     0.64968     0.41305
    1 imaginary frequencies ignored.
 Zero-point vibrational energy     431096.3 (Joules/Mol)
                                  103.03448 (Kcal/Mol)
 Warning -- explicit consideration of  15 degrees of freedom as
           vibrations may cause significant error
 Vibrational temperatures:     91.37   152.89   181.18   240.28   357.58
          (Kelvin)            410.08   412.79   486.04   557.68   602.16
                              606.66   610.66   637.76   734.95   781.27
                              908.66   933.49   969.32   997.47  1030.13
                             1048.02  1070.49  1155.18  1221.47  1312.41
                             1367.63  1434.19  1434.95  1461.71  1505.42
                             1512.54  1579.14  1600.68  1699.76  1718.80
                             1776.58  1859.44  1882.56  1904.17  1965.15
                             1995.96  2030.31  2129.90  2141.38  2143.63
                             2167.69  2321.51  2342.45  2436.43  2451.68
                             2453.89  4361.70  4426.54  4518.71  4563.73
                             4583.92  4603.51  4608.43  5203.88

 Zero-point correction=                           0.164196 (Hartree/Particle)
 Thermal correction to Energy=                    0.174885
 Thermal correction to Enthalpy=                  0.175829
 Thermal correction to Gibbs Free Energy=         0.127607
 Sum of electronic and zero-point Energies=           -649.685198
 Sum of electronic and thermal Energies=              -649.674509
 Sum of electronic and thermal Enthalpies=            -649.673564
 Sum of electronic and thermal Free Energies=         -649.721787

                     E (Thermal)             CV                S
                      KCal/Mol        Cal/Mol-Kelvin    Cal/Mol-Kelvin
 Total                  109.742             42.270            101.493
 Electronic               0.000              0.000              0.000
 Translational            0.889              2.981             41.600
 Rotational               0.889              2.981             31.342
 Vibrational            107.965             36.309             28.550
 Vibration     1          0.597              1.972              4.345
 Vibration     2          0.605              1.944              3.336
 Vibration     3          0.611              1.927              3.007
 Vibration     4          0.624              1.883              2.469
 Vibration     5          0.662              1.765              1.741
 Vibration     6          0.683              1.701              1.503
 Vibration     7          0.684              1.698              1.492
 Vibration     8          0.718              1.600              1.222
 Vibration     9          0.756              1.497              1.009
 Vibration    10          0.781              1.430              0.897
 Vibration    11          0.784              1.423              0.886
 Vibration    12          0.786              1.417              0.877
 Vibration    13          0.803              1.376              0.816
 Vibration    14          0.866              1.226              0.632
 Vibration    15          0.898              1.155              0.559

 Optimization completed.
    -- Stationary point found.
 Normal termination of Gaussian 16 at Tue Dec 26 20:53:14 2023.
