 Gaussian 16, Revision A.03,
 Gaussian 16:  ES64L-G16RevA.03 25-Dec-2016

 ----------------------------------------------------------------------
 #P UB3LYP/6-311++G(d,p) nosym opt freq SCRF=(PCM,Solvent=n,n-DiMethylF
 ormamide)
 ----------------------------------------------------------------------

 -------
 Reduced
 -------
 Symbolic Z-matrix:
 Charge = -2 Multiplicity = 1

 SCF Done:  E(UB3LYP) =  -771.449940400     A.U. after   18 cycles
 SCF Done:  E(UB3LYP) =  -771.452222296     A.U. after   13 cycles
 SCF Done:  E(UB3LYP) =  -771.452579536     A.U. after   13 cycles
 SCF Done:  E(UB3LYP) =  -771.452606069     A.U. after   13 cycles
 SCF Done:  E(UB3LYP) =  -771.452623590     A.U. after   12 cycles
 SCF Done:  E(UB3LYP) =  -771.452628693     A.U. after   11 cycles
 SCF Done:  E(UB3LYP) =  -771.452629337     A.U. after   11 cycles
 SCF Done:  E(UB3LYP) =  -771.452629652     A.U. after   10 cycles
 Optimization completed.
    -- Stationary point found.
 Normal termination of Gaussian 16 at Sun Feb 11 02:48:30 2024.

 ----------------------------------------------------------------------
 #P Geom=AllCheck Guess=TCheck SCRF=Check GenChk UB3LYP/6-311++G(d,p) F
 req
 ----------------------------------------------------------------------

 Structure from the checkpoint file:  "248-an.chk"
 -------
 Reduced
 -------
 Charge = -2 Multiplicity = 1

                          Input orientation:
 ---------------------------------------------------------------------
 Center     Atomic      Atomic             Coordinates (Angstroms)
 Number     Number       Type             X           Y           Z
 ---------------------------------------------------------------------
      1          6           0        5.859954   -5.573263    0.902968
      2          6           0        6.402439   -5.578675   -0.367026
      3          6           0        6.002283   -4.593122   -1.303341
      4          6           0        4.903482   -4.608160    1.315268
      5          6           0        4.496022   -3.605110    0.361705
      6          6           0        5.073583   -3.639852   -0.934415
      7          6           0        4.366335   -4.640306    2.661123
      8          6           0        3.409424   -3.640003    2.964182
      9          6           0        3.004633   -2.644936    2.019529
     10          6           0        3.523386   -2.585232    0.701990
     11          8           0        4.764832   -5.551416    3.522990
     12          8           0        3.168063   -1.672215   -0.174357
     13          1           0        7.131482   -6.333043   -0.648570
     14          6           0        1.981794   -1.595833    2.409409
     15          1           0        6.424294   -4.589690   -2.304188
     16          6           0        2.826611   -3.635459    4.362929
     17          6           0        0.517475   -1.994080    2.129728
     18          6           0       -0.492009   -0.891282    2.468764
     19          6           0       -1.948589   -1.271574    2.178116
     20          6           0       -2.946681   -0.157449    2.509321
     21          1           0        6.157111   -6.320161    1.631035
     22          1           0        4.755444   -2.879333   -1.639141
     23          1           0        2.195309   -0.687002    1.837963
     24          1           0        2.073040   -1.338760    3.471070
     25          1           0        3.113369   -4.554382    4.875510
     26          1           0        1.733788   -3.561803    4.365959
     27          1           0        3.195185   -2.794658    4.968387
     28          1           0        0.268366   -2.899369    2.697670
     29          1           0        0.421453   -2.260351    1.070964
     30          1           0       -0.238479    0.015295    1.902638
     31          1           0       -0.395582   -0.623113    3.529859
     32          1           0       -2.206471   -2.172986    2.747827
     33          1           0       -2.044461   -1.542873    1.119471
     34          1           0       -2.898700    0.113229    3.569231
     35          1           0       -3.974635   -0.461176    2.290167
     36          1           0       -2.735858    0.746084    1.927821
 ---------------------------------------------------------------------

 SCF Done:  E(UB3LYP) =  -771.452629652     A.U. after    1 cycles

 Alpha  occ. eigenvalues --  -19.00618 -19.00596 -10.15908 -10.15901 -10.15603
 Alpha  occ. eigenvalues --  -10.15134 -10.15043 -10.14551 -10.14505 -10.14469
 Alpha  occ. eigenvalues --  -10.14154 -10.14151 -10.13482 -10.13177 -10.13134
 Alpha  occ. eigenvalues --  -10.13117 -10.12191 -10.11887  -0.91497  -0.91046
 Alpha  occ. eigenvalues --   -0.81945  -0.79332  -0.77186  -0.73678  -0.71699
 Alpha  occ. eigenvalues --   -0.71521  -0.68079  -0.64493  -0.62156  -0.59492
 Alpha  occ. eigenvalues --   -0.56728  -0.56135  -0.54744  -0.51318  -0.47799
 Alpha  occ. eigenvalues --   -0.46137  -0.45648  -0.42739  -0.42541  -0.41842
 Alpha  occ. eigenvalues --   -0.40377  -0.40021  -0.39480  -0.38385  -0.37388
 Alpha  occ. eigenvalues --   -0.36564  -0.35937  -0.35773  -0.35358  -0.34514
 Alpha  occ. eigenvalues --   -0.34201  -0.33136  -0.32467  -0.31811  -0.31618
 Alpha  occ. eigenvalues --   -0.30796  -0.30232  -0.29973  -0.29162  -0.28678
 Alpha  occ. eigenvalues --   -0.22363  -0.21435  -0.19570  -0.18972  -0.18288
 Alpha  occ. eigenvalues --   -0.10675
 Alpha virt. eigenvalues --   -0.00241  -0.00079   0.00422   0.01020   0.01444
 Alpha virt. eigenvalues --    0.01563   0.01773   0.02322   0.03167   0.03697
 Alpha virt. eigenvalues --    0.03717   0.04575   0.04824   0.05360   0.05621

  Beta  occ. eigenvalues --  -19.00618 -19.00596 -10.15908 -10.15901 -10.15603
  Beta  occ. eigenvalues --  -10.15134 -10.15043 -10.14551 -10.14505 -10.14469
  Beta  occ. eigenvalues --  -10.14154 -10.14151 -10.13482 -10.13177 -10.13134
  Beta  occ. eigenvalues --  -10.13117 -10.12191 -10.11887  -0.91497  -0.91046
  Beta  occ. eigenvalues --   -0.81945  -0.79332  -0.77186  -0.73678  -0.71699
  Beta  occ. eigenvalues --   -0.71521  -0.68079  -0.64493  -0.62156  -0.59492
  Beta  occ. eigenvalues --   -0.56728  -0.56135  -0.54744  -0.51318  -0.47799
  Beta  occ. eigenvalues --   -0.46137  -0.45648  -0.42739  -0.42541  -0.41842
  Beta  occ. eigenvalues --   -0.40377  -0.40021  -0.39480  -0.38385  -0.37388
  Beta  occ. eigenvalues --   -0.36564  -0.35937  -0.35773  -0.35358  -0.34514
  Beta  occ. eigenvalues --   -0.34201  -0.33136  -0.32467  -0.31811  -0.31618
  Beta  occ. eigenvalues --   -0.30796  -0.30232  -0.29973  -0.29162  -0.28678
  Beta  occ. eigenvalues --   -0.22363  -0.21435  -0.19570  -0.18972  -0.18288
  Beta  occ. eigenvalues --   -0.10675
  Beta virt. eigenvalues --   -0.00241  -0.00079   0.00422   0.01020   0.01444
  Beta virt. eigenvalues --    0.01563   0.01773   0.02322   0.03167   0.03697
  Beta virt. eigenvalues --    0.03717   0.04575   0.04824   0.05360   0.05621

 Mulliken charges and spin densities:
               1          2
     1  C    0.068050   0.000000
     2  C   -0.474628   0.000000
     3  C   -0.438012  -0.000000
     4  C    0.310519  -0.000000
     5  C   -0.040240   0.000000
     6  C   -0.037979   0.000000
     7  C   -0.726629   0.000000
     8  C    0.896382  -0.000000
     9  C    1.002725  -0.000000
    10  C   -1.078394   0.000000
    11  O   -0.721816  -0.000000
    12  O   -0.704665  -0.000000
    13  H    0.149445   0.000000
    14  C   -0.426794  -0.000000
    15  H    0.150745  -0.000000
    16  C   -0.569222  -0.000000
    17  C   -0.546629  -0.000000
    18  C   -0.203760   0.000000
    19  C   -0.177948  -0.000000
    20  C   -0.660333  -0.000000
    21  H    0.147967  -0.000000
    22  H    0.145537   0.000000
    23  H    0.193153  -0.000000
    24  H    0.143091   0.000000
    25  H    0.165381  -0.000000
    26  H    0.132840  -0.000000
    27  H    0.143970  -0.000000
    28  H    0.108896  -0.000000
    29  H    0.165009   0.000000
    30  H    0.102186  -0.000000
    31  H    0.104547  -0.000000
    32  H    0.128913   0.000000
    33  H    0.126164  -0.000000
    34  H    0.139232   0.000000
    35  H    0.142056   0.000000
    36  H    0.140240   0.000000
 Sum of Mulliken charges =  -2.00000  -0.00000

 Dipole moment (field-independent basis, Debye):
    X=            -39.4181    Y=             35.6641    Z=            -14.4549  Tot=             55.0878
 Quadrupole moment (field-independent basis, Debye-Ang):
   XX=           -294.2403   YY=           -284.8893   ZZ=           -172.5668
   XY=            161.3680   XZ=            -66.4939   YZ=             77.6745

  Exact polarizability: 324.002 -94.395 320.584 -69.906  -5.021 376.759
 Approx polarizability: 336.274 -97.428 352.399 -72.070 -12.456 419.108

                      1                      2                      3
                      A                      A                      A
 Frequencies --     29.3628                43.0977                62.7851
 Red. masses --      4.0577                 4.9878                 1.5949
 Frc consts  --      0.0021                 0.0055                 0.0037
 IR Inten    --      1.3366                 4.0674                 0.8364

                      4                      5                      6
                      A                      A                      A
 Frequencies --     92.6495               107.2945               112.3050
 Red. masses --      4.0016                 2.8976                 1.6519
 Frc consts  --      0.0202                 0.0197                 0.0123
 IR Inten    --     24.7379                 4.1032                 0.2827

                      7                      8                      9
                      A                      A                      A
 Frequencies --    127.7548               154.2619               164.7262
 Red. masses --      1.7715                 3.1941                 2.0081
 Frc consts  --      0.0170                 0.0448                 0.0321
 IR Inten    --      0.1435                 0.7886                 1.6060

                     10                     11                     12
                      A                      A                      A
 Frequencies --    168.7894               197.6237               243.4952
 Red. masses --      3.9452                 5.8386                 1.1293
 Frc consts  --      0.0662                 0.1343                 0.0394
 IR Inten    --      2.3648                 3.3898                 0.2961

                     13                     14                     15
                      A                      A                      A
 Frequencies --    258.0528               288.0322               334.9405
 Red. masses --      4.0716                 4.2675                 3.6496
 Frc consts  --      0.1597                 0.2086                 0.2412
 IR Inten    --     21.0327                 4.8204                 3.8235

                     16                     17                     18
                      A                      A                      A
 Frequencies --    342.0928               346.8807               370.6128
 Red. masses --      2.6525                 3.3334                 7.2013
 Frc consts  --      0.1829                 0.2363                 0.5828
 IR Inten    --      0.7305                 2.3290                14.9275

                     19                     20                     21
                      A                      A                      A
 Frequencies --    397.3141               431.0962               432.2885
 Red. masses --      5.0860                 4.8723                 4.6116
 Frc consts  --      0.4730                 0.5335                 0.5078
 IR Inten    --      0.3409                 1.6555                 8.1069

                     22                     23                     24
                      A                      A                      A
 Frequencies --    458.8273               486.9421               524.3314
 Red. masses --      3.5556                 5.2574                 6.7271
 Frc consts  --      0.4410                 0.7345                 1.0897
 IR Inten    --      4.1215                 1.4045                 0.3530

                     25                     26                     27
                      A                      A                      A
 Frequencies --    561.1641               625.9556               664.3653
 Red. masses --      4.7046                 4.9956                 3.4358
 Frc consts  --      0.8729                 1.1532                 0.8935
 IR Inten    --     13.4094                66.5616                 7.0522

                     28                     29                     30
                      A                      A                      A
 Frequencies --    667.1861               683.6305               711.7699
 Red. masses --      5.4343                 3.2632                 3.2217
 Frc consts  --      1.4252                 0.8985                 0.9616
 IR Inten    --      2.4812                47.2955                62.6754

                     31                     32                     33
                      A                      A                      A
 Frequencies --    729.1681               752.9328               773.6434
 Red. masses --      1.1021                 1.2674                 1.9730
 Frc consts  --      0.3452                 0.4233                 0.6958
 IR Inten    --      7.6705                 1.5844                51.0092

                     34                     35                     36
                      A                      A                      A
 Frequencies --    792.7281               816.2254               853.5845
 Red. masses --      3.6880                 1.8879                 1.9233
 Frc consts  --      1.3655                 0.7410                 0.8256
 IR Inten    --      0.8538                12.0806                17.0053

                     37                     38                     39
                      A                      A                      A
 Frequencies --    857.0009               887.5875               909.4864
 Red. masses --      1.7147                 2.2355                 2.2820
 Frc consts  --      0.7420                 1.0376                 1.1122
 IR Inten    --      1.5227                 2.9142                13.2967

                     40                     41                     42
                      A                      A                      A
 Frequencies --    968.2709               972.5615               975.9866
 Red. masses --      1.3708                 1.4195                 1.2446
 Frc consts  --      0.7572                 0.7911                 0.6985
 IR Inten    --      4.5420                 0.9933                 0.1635

                     43                     44                     45
                      A                      A                      A
 Frequencies --    985.5296              1000.6550              1021.9153
 Red. masses --      3.4777                 3.5664                 2.0704
 Frc consts  --      1.9901                 2.1040                 1.2739
 IR Inten    --     62.5153                 3.5613                83.6196

                     46                     47                     48
                      A                      A                      A
 Frequencies --   1025.2557              1042.0888              1045.0236
 Red. masses --      2.7320                 1.4928                 1.9930
 Frc consts  --      1.6920                 0.9551                 1.2824
 IR Inten    --     15.5744                11.4485               171.0466

                     49                     50                     51
                      A                      A                      A
 Frequencies --   1059.1254              1097.9195              1116.8436
 Red. masses --      2.3514                 2.2448                 1.7853
 Frc consts  --      1.5540                 1.5943                 1.3120
 IR Inten    --      0.8892                66.9472               235.8188

                     52                     53                     54
                      A                      A                      A
 Frequencies --   1120.9603              1124.7209              1167.2716
 Red. masses --      2.0791                 1.9741                 2.1382
 Frc consts  --      1.5393                 1.4713                 1.7165
 IR Inten    --     45.1918                87.2350                 4.9196

                     55                     56                     57
                      A                      A                      A
 Frequencies --   1183.0198              1217.9789              1235.1452
 Red. masses --      1.7068                 1.9427                 2.3239
 Frc consts  --      1.4074                 1.6980                 2.0889
 IR Inten    --    237.5341               101.1820               140.7511

                     58                     59                     60
                      A                      A                      A
 Frequencies --   1256.0441              1272.6968              1294.7740
 Red. masses --      1.3093                 2.1796                 1.3265
 Frc consts  --      1.2171                 2.0801                 1.3102
 IR Inten    --      1.0890                15.0988                27.9901

                     61                     62                     63
                      A                      A                      A
 Frequencies --   1320.5136              1322.6205              1324.1083
 Red. masses --      1.7308                 1.3221                 1.6965
 Frc consts  --      1.7782                 1.3626                 1.7524
 IR Inten    --    245.9493                66.2623               149.5854

                     64                     65                     66
                      A                      A                      A
 Frequencies --   1327.3453              1343.3999              1363.7619
 Red. masses --      1.5478                 2.5342                 1.5928
 Frc consts  --      1.6067                 2.6946                 1.7454
 IR Inten    --    132.7432              1161.7363                37.1358

                     67                     68                     69
                      A                      A                      A
 Frequencies --   1374.2321              1385.6452              1387.1177
 Red. masses --      3.5359                 1.6149                 1.7921
 Frc consts  --      3.9344                 1.8269                 2.0316
 IR Inten    --    278.6435                 3.4996               288.9354

                     70                     71                     72
                      A                      A                      A
 Frequencies --   1401.5867              1428.7272              1432.5230
 Red. masses --      1.2390                 2.9006                 2.6293
 Frc consts  --      1.4341                 3.4884                 3.1791
 IR Inten    --      2.0165                21.8831                13.0104

                     73                     74                     75
                      A                      A                      A
 Frequencies --   1461.9187              1470.8605              1474.1004
 Red. masses --      1.1916                 1.0718                 1.1094
 Frc consts  --      1.5005                 1.3662                 1.4204
 IR Inten    --     11.2747                 0.5115                 7.5001

                     76                     77                     78
                      A                      A                      A
 Frequencies --   1481.6067              1487.4446              1489.5080
 Red. masses --      1.0741                 1.0405                 1.1244
 Frc consts  --      1.3892                 1.3563                 1.4697
 IR Inten    --      1.5296                 9.9824                 6.8091

                     79                     80                     81
                      A                      A                      A
 Frequencies --   1495.4652              1501.7916              1504.5879
 Red. masses --      1.1147                 2.5999                 1.1040
 Frc consts  --      1.4688                 3.4548                 1.4725
 IR Inten    --      1.4323                17.7772                20.4090

                     82                     83                     84
                      A                      A                      A
 Frequencies --   1523.1007              1578.2141              1603.2779
 Red. masses --      4.4462                 7.2245                 5.3638
 Frc consts  --      6.0771                10.6020                 8.1234
 IR Inten    --    165.4344                 6.1586                 2.5198

                     85                     86                     87
                      A                      A                      A
 Frequencies --   2970.0214              2983.0981              2997.2340
 Red. masses --      1.0564                 1.0577                 1.0614
 Frc consts  --      5.4905                 5.5454                 5.6180
 IR Inten    --    195.7406                35.6223                22.8469

                     88                     89                     90
                      A                      A                      A
 Frequencies --   3000.6255              3003.5413              3008.4813
 Red. masses --      1.0712                 1.0786                 1.0694
 Frc consts  --      5.6827                 5.7327                 5.7026
 IR Inten    --     42.7872                46.7294               215.2777

                     91                     92                     93
                      A                      A                      A
 Frequencies --   3011.2287              3026.5298              3026.7782
 Red. masses --      1.0354                 1.0942                 1.0851
 Frc consts  --      5.5317                 5.9051                 5.8571
 IR Inten    --     64.8051                71.6774                78.1275

                     94                     95                     96
                      A                      A                      A
 Frequencies --   3035.9217              3053.9268              3069.7809
 Red. masses --      1.1000                 1.1040                 1.1025
 Frc consts  --      5.9732                 6.0667                 6.1215
 IR Inten    --     43.7921               146.3998               123.9348

                     97                     98                     99
                      A                      A                      A
 Frequencies --   3073.7167              3094.4992              3133.7285
 Red. masses --      1.1011                 1.0958                 1.0845
 Frc consts  --      6.1293                 6.1823                 6.2746
 IR Inten    --     77.3976                22.3602                19.3930

                    100                    101                    102
                      A                      A                      A
 Frequencies --   3149.8889              3169.2423              3173.5368
 Red. masses --      1.0895                 1.0907                 1.0929
 Frc consts  --      6.3690                 6.4544                 6.4851
 IR Inten    --     42.3132                46.9827                67.3124

 - Thermochemistry -
 -------------------
 Temperature   298.150 Kelvin.  Pressure   1.00000 Atm.
 Atom     1 has atomic number  6 and mass  12.00000

 Molecular mass:   242.13068 amu.
 Principal axes and moments of inertia in atomic units:
                           1         2         3
     Eigenvalues --  2210.127629006.43546**********
           X            0.83974   0.03809   0.54166
           Y           -0.48636  -0.39080   0.78149
           Z           -0.24144   0.91969   0.30965
 This molecule is an asymmetric top.
 Rotational symmetry number  1.
 Warning -- assumption of classical behavior for rotation
           may cause significant error
 Rotational temperatures (Kelvin)      0.03919     0.00962     0.00812
 Rotational constants (GHZ):           0.81658     0.20038     0.16913
 Zero-point vibrational energy     778236.7 (Joules/Mol)
                                  186.00303 (Kcal/Mol)
 Warning -- explicit consideration of  25 degrees of freedom as
           vibrations may cause significant error
 Vibrational temperatures:     42.25    62.01    90.33   133.30   154.37
          (Kelvin)            161.58   183.81   221.95   237.00   242.85
                              284.34   350.34   371.28   414.41   481.90
                              492.20   499.08   533.23   571.65   620.25
                              621.97   660.15   700.60   754.40   807.39
                              900.61   955.87   959.93   983.59  1024.08
                             1049.11  1083.30  1113.10  1140.56  1174.37
                             1228.12  1233.03  1277.04  1308.55  1393.13
                             1399.30  1404.23  1417.96  1439.72  1470.31
                             1475.11  1499.33  1503.56  1523.85  1579.66
                             1606.89  1612.81  1618.22  1679.44  1702.10
                             1752.40  1777.10  1807.17  1831.13  1862.89
                             1899.92  1902.96  1905.10  1909.75  1932.85
                             1962.15  1977.21  1993.63  1995.75  2016.57
                             2055.62  2061.08  2103.38  2116.24  2120.90
                             2131.70  2140.10  2143.07  2151.64  2160.74
                             2164.77  2191.40  2270.70  2306.76  4273.20
                             4292.01  4312.35  4317.23  4321.43  4328.53
                             4332.49  4354.50  4354.86  4368.01  4393.92
                             4416.73  4422.39  4452.29  4508.74  4531.99
                             4559.83  4566.01

 Zero-point correction=                           0.296415 (Hartree/Particle)
 Thermal correction to Energy=                    0.313704
 Thermal correction to Enthalpy=                  0.314649
 Thermal correction to Gibbs Free Energy=         0.250766
 Sum of electronic and zero-point Energies=           -771.156215
 Sum of electronic and thermal Energies=              -771.138925
 Sum of electronic and thermal Enthalpies=            -771.137981
 Sum of electronic and thermal Free Energies=         -771.201864

                     E (Thermal)             CV                S
                      KCal/Mol        Cal/Mol-Kelvin    Cal/Mol-Kelvin
 Total                  196.853             66.339            134.452
 Electronic               0.000              0.000              0.000
 Translational            0.889              2.981             42.354
 Rotational               0.889              2.981             33.718
 Vibrational            195.075             60.377             58.381
 Vibration     1          0.593              1.984              5.872
 Vibration     2          0.595              1.980              5.111
 Vibration     3          0.597              1.972              4.368
 Vibration     4          0.602              1.954              3.603
 Vibration     5          0.606              1.943              3.317
 Vibration     6          0.607              1.939              3.229
 Vibration     7          0.611              1.925              2.980
 Vibration     8          0.620              1.898              2.619
 Vibration     9          0.623              1.886              2.495
 Vibration    10          0.625              1.881              2.449
 Vibration    11          0.637              1.843              2.155
 Vibration    12          0.659              1.774              1.777
 Vibration    13          0.667              1.749              1.675
 Vibration    14          0.685              1.696              1.485
 Vibration    15          0.716              1.606              1.236
 Vibration    16          0.721              1.591              1.202
 Vibration    17          0.725              1.582              1.180
 Vibration    18          0.743              1.533              1.077
 Vibration    19          0.764              1.476              0.973
 Vibration    20          0.792              1.403              0.855
 Vibration    21          0.793              1.400              0.851
 Vibration    22          0.817              1.341              0.770
 Vibration    23          0.843              1.279              0.692
 Vibration    24          0.879              1.196              0.600
 Vibration    25          0.917              1.115              0.522

 Optimization completed.
    -- Stationary point found.
 Normal termination of Gaussian 16 at Sun Feb 11 03:48:19 2024.
