 Gaussian 16, Revision A.03,
 Gaussian 16:  ES64L-G16RevA.03 25-Dec-2016

 ----------------------------------------------------------------------
 #P UB3LYP/6-311++G(d,p) nosym opt freq SCRF=(PCM,Solvent=n,n-DiMethylF
 ormamide)
 ----------------------------------------------------------------------

 --------
 Oxidized
 --------
 Symbolic Z-matrix:
 Charge =  0 Multiplicity = 1

 SCF Done:  E(UB3LYP) =  -846.266514997     A.U. after   14 cycles
 SCF Done:  E(UB3LYP) =  -846.266525838     A.U. after   10 cycles
 SCF Done:  E(UB3LYP) =  -846.266515839     A.U. after   10 cycles
 SCF Done:  E(UB3LYP) =  -846.266529023     A.U. after   10 cycles
 SCF Done:  E(UB3LYP) =  -846.266531146     A.U. after    9 cycles
 SCF Done:  E(UB3LYP) =  -846.266531218     A.U. after    8 cycles
 SCF Done:  E(UB3LYP) =  -846.266531329     A.U. after    8 cycles
 SCF Done:  E(UB3LYP) =  -846.266531673     A.U. after    9 cycles
 SCF Done:  E(UB3LYP) =  -846.266532926     A.U. after   11 cycles
 SCF Done:  E(UB3LYP) =  -846.266560920     A.U. after   12 cycles
 SCF Done:  E(UB3LYP) =  -846.266574652     A.U. after   11 cycles
 SCF Done:  E(UB3LYP) =  -846.266515746     A.U. after   11 cycles
 SCF Done:  E(UB3LYP) =  -846.266574162     A.U. after   12 cycles
 SCF Done:  E(UB3LYP) =  -846.266577361     A.U. after   11 cycles
 SCF Done:  E(UB3LYP) =  -846.266577697     A.U. after   11 cycles
 SCF Done:  E(UB3LYP) =  -846.266578350     A.U. after   11 cycles
 SCF Done:  E(UB3LYP) =  -846.266578532     A.U. after    9 cycles
 SCF Done:  E(UB3LYP) =  -846.266578623     A.U. after    9 cycles
 SCF Done:  E(UB3LYP) =  -846.266578652     A.U. after    8 cycles
 Optimization completed.
    -- Stationary point found.
 Normal termination of Gaussian 16 at Sun Feb 11 06:28:41 2024.

 ----------------------------------------------------------------------
 #P Geom=AllCheck Guess=TCheck SCRF=Check GenChk UB3LYP/6-311++G(d,p) F
 req
 ----------------------------------------------------------------------

 Structure from the checkpoint file:  "131.chk"
 --------
 Oxidized
 --------
 Charge =  0 Multiplicity = 1

                          Input orientation:
 ---------------------------------------------------------------------
 Center     Atomic      Atomic             Coordinates (Angstroms)
 Number     Number       Type             X           Y           Z
 ---------------------------------------------------------------------
      1          6           0       -4.836024    1.025967   -1.651538
      2          6           0       -3.615527    0.553349   -0.904957
      3          6           0       -3.734671   -0.304639    0.192269
      4          6           0       -2.638616   -0.747156    0.937907
      5          6           0       -2.907345   -1.669261    2.101843
      6          6           0       -1.346332   -0.313630    0.546961
      7          6           0       -0.125055   -0.721958    1.279423
      8          8           0       -0.175352   -1.337913    2.339471
      9          6           0        1.210837   -0.374912    0.691836
     10          6           0        2.335814   -0.914750    1.312932
     11          6           0        3.616846   -0.651497    0.831164
     12          6           0        4.834645   -1.263037    1.474036
     13          6           0        3.738096    0.182203   -0.284360
     14          6           0        2.640516    0.756807   -0.931207
     15          6           0        2.912471    1.642267   -2.122431
     16          6           0        1.344774    0.466977   -0.433061
     17          6           0        0.120951    1.032412   -1.047865
     18          8           0        0.167669    1.874995   -1.938706
     19          6           0       -1.213122    0.542005   -0.567528
     20          6           0       -2.337080    0.969144   -1.272650
     21          1           0       -5.587453    0.236583   -1.723942
     22          1           0       -5.300091    1.870349   -1.130594
     23          1           0       -4.581539    1.358836   -2.659151
     24          1           0       -4.723401   -0.646002    0.482141
     25          1           0       -2.325035   -2.589770    2.031245
     26          1           0       -2.630815   -1.204971    3.050687
     27          1           0       -3.968132   -1.924089    2.133343
     28          1           0        2.193263   -1.548051    2.179442
     29          1           0        5.146721   -2.159409    0.927372
     30          1           0        4.633938   -1.558009    2.505353
     31          1           0        5.677723   -0.568662    1.467289
     32          1           0        4.730124    0.398307   -0.668221
     33          1           0        3.981219    1.645281   -2.343622
     34          1           0        2.589470    2.668979   -1.939115
     35          1           0        2.370104    1.305203   -3.007753
     36          1           0       -2.195595    1.628054   -2.120008
 ---------------------------------------------------------------------

 SCF Done:  E(UB3LYP) =  -846.266578652     A.U. after    1 cycles

 Alpha  occ. eigenvalues --  -19.12286 -19.12281 -10.27744 -10.27739 -10.20867
 Alpha  occ. eigenvalues --  -10.20864 -10.20406 -10.20405 -10.20394 -10.20393
 Alpha  occ. eigenvalues --  -10.20265 -10.20260 -10.18707 -10.18707 -10.18694
 Alpha  occ. eigenvalues --  -10.18694 -10.17326 -10.17326 -10.16798 -10.16795
 Alpha  occ. eigenvalues --   -1.05804  -1.05613  -0.89125  -0.88221  -0.81947
 Alpha  occ. eigenvalues --   -0.80012  -0.79815  -0.77969  -0.72111  -0.71662
 Alpha  occ. eigenvalues --   -0.70246  -0.69928  -0.66082  -0.64846  -0.61223
 Alpha  occ. eigenvalues --   -0.58645  -0.56520  -0.55672  -0.53155  -0.50554
 Alpha  occ. eigenvalues --   -0.48646  -0.48266  -0.46610  -0.45672  -0.45266
 Alpha  occ. eigenvalues --   -0.43930  -0.43574  -0.43531  -0.42708  -0.42660
 Alpha  occ. eigenvalues --   -0.42511  -0.42505  -0.41038  -0.40518  -0.40329
 Alpha  occ. eigenvalues --   -0.40095  -0.38653  -0.38161  -0.37841  -0.36656
 Alpha  occ. eigenvalues --   -0.36175  -0.36115  -0.35503  -0.35058  -0.27780
 Alpha  occ. eigenvalues --   -0.27728  -0.26715  -0.26667  -0.26225  -0.26012
 Alpha virt. eigenvalues --   -0.11173  -0.06538  -0.03287  -0.02149  -0.00912
 Alpha virt. eigenvalues --   -0.00149   0.00499   0.01135   0.01768   0.02157
 Alpha virt. eigenvalues --    0.02382   0.03139   0.03165   0.03318   0.03421

  Beta  occ. eigenvalues --  -19.12286 -19.12281 -10.27744 -10.27739 -10.20867
  Beta  occ. eigenvalues --  -10.20864 -10.20406 -10.20405 -10.20394 -10.20393
  Beta  occ. eigenvalues --  -10.20265 -10.20260 -10.18707 -10.18707 -10.18694
  Beta  occ. eigenvalues --  -10.18694 -10.17326 -10.17326 -10.16798 -10.16795
  Beta  occ. eigenvalues --   -1.05804  -1.05613  -0.89125  -0.88221  -0.81947
  Beta  occ. eigenvalues --   -0.80012  -0.79815  -0.77969  -0.72111  -0.71662
  Beta  occ. eigenvalues --   -0.70246  -0.69928  -0.66082  -0.64846  -0.61223
  Beta  occ. eigenvalues --   -0.58645  -0.56520  -0.55672  -0.53155  -0.50554
  Beta  occ. eigenvalues --   -0.48646  -0.48266  -0.46610  -0.45672  -0.45266
  Beta  occ. eigenvalues --   -0.43930  -0.43574  -0.43531  -0.42708  -0.42660
  Beta  occ. eigenvalues --   -0.42511  -0.42505  -0.41038  -0.40518  -0.40329
  Beta  occ. eigenvalues --   -0.40095  -0.38653  -0.38161  -0.37841  -0.36656
  Beta  occ. eigenvalues --   -0.36175  -0.36115  -0.35503  -0.35058  -0.27780
  Beta  occ. eigenvalues --   -0.27728  -0.26715  -0.26667  -0.26225  -0.26012
  Beta virt. eigenvalues --   -0.11173  -0.06538  -0.03287  -0.02149  -0.00912
  Beta virt. eigenvalues --   -0.00149   0.00499   0.01135   0.01768   0.02157
  Beta virt. eigenvalues --    0.02382   0.03139   0.03165   0.03318   0.03421

 Mulliken charges and spin densities:
               1          2
     1  C   -0.307906   0.000000
     2  C    0.738936  -0.000000
     3  C   -0.381487   0.000000
     4  C    0.379668   0.000000
     5  C   -0.519011   0.000000
     6  C    0.188547   0.000000
     7  C   -1.248741  -0.000000
     8  O   -0.253579   0.000000
     9  C    0.240630  -0.000000
    10  C   -0.157759   0.000000
    11  C    0.695753   0.000000
    12  C   -0.315094   0.000000
    13  C   -0.388014   0.000000
    14  C    0.299554   0.000000
    15  C   -0.516442   0.000000
    16  C    0.158583   0.000000
    17  C   -1.206406  -0.000000
    18  O   -0.252983   0.000000
    19  C    0.306649  -0.000000
    20  C   -0.122299   0.000000
    21  H    0.161348  -0.000000
    22  H    0.191094   0.000000
    23  H    0.175138  -0.000000
    24  H    0.136198   0.000000
    25  H    0.167758  -0.000000
    26  H    0.182722  -0.000000
    27  H    0.163951   0.000000
    28  H    0.158185  -0.000000
    29  H    0.189649  -0.000000
    30  H    0.169385  -0.000000
    31  H    0.164262   0.000000
    32  H    0.134383  -0.000000
    33  H    0.164551  -0.000000
    34  H    0.179321  -0.000000
    35  H    0.168350  -0.000000
    36  H    0.155107   0.000000
 Sum of Mulliken charges =  -0.00000  -0.00000

 Dipole moment (field-independent basis, Debye):
    X=              0.0079    Y=             -0.9248    Z=             -0.6860  Tot=              1.1515
 Quadrupole moment (field-independent basis, Debye-Ang):
   XX=            -80.2495   YY=           -122.4239   ZZ=           -125.1078
   XY=             -2.4733   XZ=              3.1530   YZ=              3.5162

  Exact polarizability: 431.492 -12.042 236.755  18.486 -97.462 289.980
 Approx polarizability: 448.787 -11.112 285.789  17.119-122.426 353.115

                      1                      2                      3
                      A                      A                      A
 Frequencies --     14.8342                20.0278                32.5176
 Red. masses --      3.2638                 1.1687                 1.0490
 Frc consts  --      0.0004                 0.0003                 0.0007
 IR Inten    --      8.6231                 1.3800                 0.5717

                      4                      5                      6
                      A                      A                      A
 Frequencies --     43.9095                59.8755               125.0448
 Red. masses --      3.2545                 4.9136                 4.9835
 Frc consts  --      0.0037                 0.0104                 0.0459
 IR Inten    --      0.5768                 0.2546                 0.3236

                      7                      8                      9
                      A                      A                      A
 Frequencies --    152.9301               160.5139               194.7282
 Red. masses --      3.8372                 3.7720                 2.3043
 Frc consts  --      0.0529                 0.0573                 0.0515
 IR Inten    --      0.1416                 1.7452                 0.2453

                     10                     11                     12
                      A                      A                      A
 Frequencies --    197.1860               220.6974               225.1980
 Red. masses --      2.8752                 1.1155                 1.2240
 Frc consts  --      0.0659                 0.0320                 0.0366
 IR Inten    --      7.7411                 0.0652                 0.1629

                     13                     14                     15
                      A                      A                      A
 Frequencies --    237.5002               261.4314               286.8312
 Red. masses --      3.3033                 4.2817                 3.8823
 Frc consts  --      0.1098                 0.1724                 0.1882
 IR Inten    --      0.0458                 1.6218                 0.0245

                     16                     17                     18
                      A                      A                      A
 Frequencies --    303.6830               307.1858               337.1321
 Red. masses --      2.7915                 4.6534                 5.2369
 Frc consts  --      0.1517                 0.2587                 0.3507
 IR Inten    --      1.2475                 0.8058                 0.0248

                     19                     20                     21
                      A                      A                      A
 Frequencies --    378.0763               385.8424               428.7309
 Red. masses --      5.9942                 7.1070                 4.7590
 Frc consts  --      0.5048                 0.6234                 0.5154
 IR Inten    --      0.0319                24.5938                21.7963

                     22                     23                     24
                      A                      A                      A
 Frequencies --    463.1898               478.6433               497.6093
 Red. masses --      6.4485                 5.3452                 3.9375
 Frc consts  --      0.8151                 0.7215                 0.5744
 IR Inten    --      0.0267                 1.4680                 2.3741

                     25                     26                     27
                      A                      A                      A
 Frequencies --    502.2283               531.0201               547.0062
 Red. masses --      4.4676                 4.5168                 3.2641
 Frc consts  --      0.6639                 0.7504                 0.5754
 IR Inten    --      4.7565                 5.4941                 0.1730

                     28                     29                     30
                      A                      A                      A
 Frequencies --    553.5837               556.6818               579.2165
 Red. masses --      4.6330                 3.4025                 4.3675
 Frc consts  --      0.8365                 0.6212                 0.8633
 IR Inten    --      0.7130                 9.5481                11.2057

                     31                     32                     33
                      A                      A                      A
 Frequencies --    650.1863               665.9708               688.6551
 Red. masses --      5.5131                 3.8536                 4.9651
 Frc consts  --      1.3732                 1.0070                 1.3873
 IR Inten    --      0.2291                 9.1643                21.0421

                     34                     35                     36
                      A                      A                      A
 Frequencies --    725.1255               772.1111               801.4550
 Red. masses --      3.8817                 6.3466                 6.0431
 Frc consts  --      1.2025                 2.2292                 2.2870
 IR Inten    --     26.3890                23.7930                 0.4710

                     37                     38                     39
                      A                      A                      A
 Frequencies --    811.4741               850.3625               890.7169
 Red. masses --      6.3972                 7.1471                 1.3080
 Frc consts  --      2.4819                 3.0450                 0.6114
 IR Inten    --      0.3349                72.2100                 0.0652

                     40                     41                     42
                      A                      A                      A
 Frequencies --    897.1427               940.4133               941.1117
 Red. masses --      1.3675                 1.4359                 1.5357
 Frc consts  --      0.6485                 0.7482                 0.8014
 IR Inten    --     35.8325                 4.1779                 0.4546

                     43                     44                     45
                      A                      A                      A
 Frequencies --    943.1176               983.2907               995.0140
 Red. masses --      2.6858                 4.5225                 1.6560
 Frc consts  --      1.4075                 2.5763                 0.9660
 IR Inten    --      0.0641                 7.7443                62.3925

                     46                     47                     48
                      A                      A                      A
 Frequencies --   1002.0291              1033.4669              1037.6555
 Red. masses --      4.3794                 1.7173                 1.5545
 Frc consts  --      2.5907                 1.0806                 0.9862
 IR Inten    --      0.0053                 0.0424                 2.0975

                     49                     50                     51
                      A                      A                      A
 Frequencies --   1044.3656              1055.0368              1055.7266
 Red. masses --      1.4538                 1.5596                 1.5661
 Frc consts  --      0.9343                 1.0228                 1.0284
 IR Inten    --      0.0632                 0.4489                 8.2977

                     52                     53                     54
                      A                      A                      A
 Frequencies --   1058.4121              1058.8677              1076.8315
 Red. masses --      1.6101                 1.5836                 3.7539
 Frc consts  --      1.0627                 1.0461                 2.5647
 IR Inten    --     34.7404                 4.4108               138.1760

                     55                     56                     57
                      A                      A                      A
 Frequencies --   1154.4566              1181.2564              1210.4338
 Red. masses --      1.8984                 1.7093                 2.7501
 Frc consts  --      1.4907                 1.4053                 2.3740
 IR Inten    --     46.6672                 0.0046                 0.2916

                     58                     59                     60
                      A                      A                      A
 Frequencies --   1251.0641              1264.3636              1277.2275
 Red. masses --      2.5132                 1.7157                 2.1333
 Frc consts  --      2.3175                 1.6160                 2.0504
 IR Inten    --    334.0234               202.8350                 0.3078

                     61                     62                     63
                      A                      A                      A
 Frequencies --   1303.4289              1320.7472              1344.8912
 Red. masses --      7.0213                 4.3511                 7.1934
 Frc consts  --      7.0282                 4.4719                 7.6658
 IR Inten    --    666.6392                 0.0948               260.2119

                     64                     65                     66
                      A                      A                      A
 Frequencies --   1351.8491              1407.1567              1407.5357
 Red. masses --      6.5618                 1.2382                 1.2386
 Frc consts  --      7.0653                 1.4446                 1.4457
 IR Inten    --      0.1029                 8.7753                22.5286

                     67                     68                     69
                      A                      A                      A
 Frequencies --   1410.2821              1410.5741              1427.5506
 Red. masses --      1.2935                 1.2819                 2.0955
 Frc consts  --      1.5158                 1.5027                 2.5161
 IR Inten    --      9.1219                 1.1078                85.2607

                     70                     71                     72
                      A                      A                      A
 Frequencies --   1430.8483              1458.9775              1465.0876
 Red. masses --      2.0553                 1.9361                 1.3100
 Frc consts  --      2.4792                 2.4281                 1.6567
 IR Inten    --      0.0030                89.6632                 8.1792

                     73                     74                     75
                      A                      A                      A
 Frequencies --   1466.7178              1467.9060              1478.7143
 Red. masses --      1.0897                 1.1962                 1.0704
 Frc consts  --      1.3812                 1.5186                 1.3790
 IR Inten    --      3.2970                11.4026                16.1868

                     76                     77                     78
                      A                      A                      A
 Frequencies --   1479.1370              1482.6371              1486.0067
 Red. masses --      1.0746                 1.2647                 1.4010
 Frc consts  --      1.3852                 1.6380                 1.8227
 IR Inten    --      7.3716                17.4717                 0.3695

                     79                     80                     81
                      A                      A                      A
 Frequencies --   1492.5603              1498.0138              1583.8727
 Red. masses --      1.4785                 1.7600                 6.5378
 Frc consts  --      1.9406                 2.3270                 9.6633
 IR Inten    --     21.9743                 0.1916               150.9781

                     82                     83                     84
                      A                      A                      A
 Frequencies --   1594.1012              1623.1497              1631.5051
 Red. masses --      6.7978                 5.8820                 5.9616
 Frc consts  --     10.1777                 9.1304                 9.3496
 IR Inten    --      1.5366               673.8819                 0.2366

                     85                     86                     87
                      A                      A                      A
 Frequencies --   1680.3376              1690.2613              3026.1749
 Red. masses --     11.7066                11.0282                 1.0408
 Frc consts  --     19.4749                18.5637                 5.6158
 IR Inten    --     17.0553               615.8554                48.0903

                     88                     89                     90
                      A                      A                      A
 Frequencies --   3026.2221              3040.7076              3040.7423
 Red. masses --      1.0408                 1.0352                 1.0353
 Frc consts  --      5.6160                 5.6395                 5.6397
 IR Inten    --      7.6099                21.3433                34.1766

                     91                     92                     93
                      A                      A                      A
 Frequencies --   3082.0302              3082.0464              3098.4639
 Red. masses --      1.0946                 1.0946                 1.0994
 Frc consts  --      6.1259                 6.1260                 6.2188
 IR Inten    --     40.9174                 8.1338                10.7585

                     94                     95                     96
                      A                      A                      A
 Frequencies --   3098.4912              3110.7852              3110.8465
 Red. masses --      1.0994                 1.1037                 1.1037
 Frc consts  --      6.2191                 6.2927                 6.2929
 IR Inten    --     20.6317                77.1132                 7.0220

                     97                     98                     99
                      A                      A                      A
 Frequencies --   3112.5788              3112.6397              3160.6781
 Red. masses --      1.1029                 1.1029                 1.0903
 Frc consts  --      6.2955                 6.2957                 6.4175
 IR Inten    --     23.0531                21.5482                58.6675

                    100                    101                    102
                      A                      A                      A
 Frequencies --   3160.7953              3195.1623              3195.7988
 Red. masses --      1.0903                 1.0904                 1.0903
 Frc consts  --      6.4178                 6.5587                 6.5609
 IR Inten    --      4.0217                 8.5110                 4.7745

 - Thermochemistry -
 -------------------
 Temperature   298.150 Kelvin.  Pressure   1.00000 Atm.
 Atom     1 has atomic number  6 and mass  12.00000

 Molecular mass:   264.11503 amu.
 Principal axes and moments of inertia in atomic units:
                           1         2         3
     Eigenvalues --  2846.130387450.26220**********
           X            0.99615  -0.08695  -0.01079
           Y           -0.04405  -0.60350   0.79614
           Z            0.07574   0.79261   0.60501
 This molecule is an asymmetric top.
 Rotational symmetry number  1.
 Warning -- assumption of classical behavior for rotation
           may cause significant error
 Rotational temperatures (Kelvin)      0.03043     0.01163     0.00848
 Rotational constants (GHZ):           0.63410     0.24224     0.17670
 Zero-point vibrational energy     756329.4 (Joules/Mol)
                                  180.76708 (Kcal/Mol)
 Warning -- explicit consideration of  30 degrees of freedom as
           vibrations may cause significant error
 Vibrational temperatures:     21.34    28.82    46.79    63.18    86.15
          (Kelvin)            179.91   220.03   230.94   280.17   283.71
                              317.53   324.01   341.71   376.14   412.69
                              436.93   441.97   485.06   543.97   555.14
                              616.85   666.43   688.66   715.95   722.59
                              764.02   787.02   796.48   800.94   833.36
                              935.47   958.18   990.82  1043.29  1110.90
                             1153.11  1167.53  1223.48  1281.54  1290.79
                             1353.05  1354.05  1356.94  1414.74  1431.60
                             1441.70  1486.93  1492.95  1502.61  1517.96
                             1518.96  1522.82  1523.47  1549.32  1661.01
                             1699.56  1741.54  1800.00  1819.14  1837.65
                             1875.34  1900.26  1935.00  1945.01  2024.58
                             2025.13  2029.08  2029.50  2053.93  2058.67
                             2099.14  2107.93  2110.28  2111.99  2127.54
                             2128.15  2133.18  2138.03  2147.46  2155.31
                             2278.84  2293.56  2335.35  2347.37  2417.63
                             2431.91  4353.99  4354.06  4374.90  4374.95
                             4434.35  4434.38  4458.00  4458.04  4475.73
                             4475.81  4478.31  4478.39  4547.51  4547.68
                             4597.13  4598.04

 Zero-point correction=                           0.288071 (Hartree/Particle)
 Thermal correction to Energy=                    0.306451
 Thermal correction to Enthalpy=                  0.307395
 Thermal correction to Gibbs Free Energy=         0.239237
 Sum of electronic and zero-point Energies=           -845.978508
 Sum of electronic and thermal Energies=              -845.960128
 Sum of electronic and thermal Enthalpies=            -845.959184
 Sum of electronic and thermal Free Energies=         -846.027341

                     E (Thermal)             CV                S
                      KCal/Mol        Cal/Mol-Kelvin    Cal/Mol-Kelvin
 Total                  192.301             69.745            143.450
 Electronic               0.000              0.000              0.000
 Translational            0.889              2.981             42.613
 Rotational               0.889              2.981             33.737
 Vibrational            190.523             63.784             67.100
 Vibration     1          0.593              1.986              7.228
 Vibration     2          0.593              1.986              6.631
 Vibration     3          0.594              1.983              5.670
 Vibration     4          0.595              1.980              5.074
 Vibration     5          0.597              1.973              4.461
 Vibration     6          0.610              1.928              3.021
 Vibration     7          0.619              1.899              2.635
 Vibration     8          0.622              1.891              2.544
 Vibration     9          0.635              1.847              2.182
 Vibration    10          0.637              1.844              2.159
 Vibration    11          0.647              1.810              1.953
 Vibration    12          0.650              1.803              1.917
 Vibration    13          0.656              1.783              1.822
 Vibration    14          0.669              1.743              1.652
 Vibration    15          0.684              1.698              1.493
 Vibration    16          0.695              1.667              1.397
 Vibration    17          0.697              1.660              1.377
 Vibration    18          0.718              1.601              1.226
 Vibration    19          0.748              1.517              1.047
 Vibration    20          0.755              1.500              1.016
 Vibration    21          0.790              1.408              0.863
 Vibration    22          0.821              1.332              0.757
 Vibration    23          0.835              1.297              0.714
 Vibration    24          0.853              1.255              0.664
 Vibration    25          0.858              1.245              0.653
 Vibration    26          0.886              1.181              0.585
 Vibration    27          0.902              1.146              0.550
 Vibration    28          0.909              1.132              0.537
 Vibration    29          0.912              1.125              0.530
 Vibration    30          0.936              1.076              0.487

                           ! Non-Optimized Parameters !
 Normal termination of Gaussian 16 at Sun Feb 11 07:29:51 2024.
