 Q-Chem 5.4, Q-Chem, Inc., Pleasanton, CA (2021)
 Q-Chem 5.4.0 for Intel X86 EM64T Linux

User input:
--------------------------------------------------------------
$molecule
-1 2
C                  0.8554270000      1.1714950000     -1.4985620000
C                 -0.3393570000      0.3917530000     -1.7633170000
C                 -0.6135220000     -0.7621530000     -1.1021200000
C                  0.2657010000     -1.3129950000     -0.0906220000
C                  1.4685020000     -0.5475190000      0.2228340000
C                  1.7012300000      0.6562170000     -0.4252130000
O                  1.1405580000      2.1911270000     -2.1674990000
O                  0.0021720000     -2.4031850000      0.4851510000
S                  3.0931600000      1.6992180000      0.0324940000
C                  4.2279830000      1.6385110000     -1.3770940000
C                  5.1478350000      0.5943350000     -1.4485960000
C                  4.1696720000      2.6336970000     -2.3484520000
C                  5.0679960000      2.5843750000     -3.4129030000
C                  6.0361900000      0.5539330000     -2.5215680000
C                  5.9989260000      1.5487820000     -3.4993990000
O                  3.7869660000      1.0293250000      1.1510630000
O                  2.6728820000      3.0932260000      0.2196820000
H                 -0.9951700000      0.7780030000     -2.5374230000
H                 -1.5056640000     -1.3422880000     -1.3183390000
H                  5.1566610000     -0.1685330000     -0.6793530000
H                  3.4185600000      3.4074060000     -2.2669190000
H                  5.0345680000      3.3515920000     -4.1789300000
H                  6.7562910000     -0.2540360000     -2.5919850000
H                  6.6926290000      1.5132570000     -4.3332080000
C                  2.4365880000     -1.2647800000      1.1675940000
O                  3.3360530000     -1.9133640000      0.6759510000
C                  2.1976850000     -1.2874360000      2.7017250000
C                  1.1451370000     -0.2579120000      3.1408590000
C                  1.7304580000     -2.7148030000      3.0774290000
C                  3.5373230000     -1.0111340000      3.4164040000
H                  0.1734510000     -0.4580140000      2.6836070000
H                  1.4506050000      0.7579760000      2.8799420000
H                  1.0195550000     -0.3030770000      4.2282510000
H                  0.7979160000     -2.9683940000      2.5744130000
H                  1.5916390000     -2.7716190000      4.1631620000
H                  2.4873360000     -3.4478070000      2.7866780000
H                  3.8809620000      0.0058490000      3.2311630000
H                  4.3054560000     -1.7032980000      3.0650920000
H                  3.4068540000     -1.1557210000      4.4947980000
$end
$rem
MAX_SCF_CYCLES=200
BASIS  =  6-311++G(d,p)
GUI  =  2
JOB_TYPE  =  SP
METHOD  =  B3LYP
SOLVENT_METHOD = PCM
$end
$pcm
theory = CPCM
$end
$solvent
dielectric 37.219
opticaldielectric 1.43
$end

--------------------------------------------------------------

             Standard Nuclear Orientation (Angstroms)
    I     Atom           X                Y                Z
 ----------------------------------------------------------------
    1      C       0.8554270000     1.1714950000    -1.4985620000
    2      C      -0.3393570000     0.3917530000    -1.7633170000
    3      C      -0.6135220000    -0.7621530000    -1.1021200000
    4      C       0.2657010000    -1.3129950000    -0.0906220000
    5      C       1.4685020000    -0.5475190000     0.2228340000
    6      C       1.7012300000     0.6562170000    -0.4252130000
    7      O       1.1405580000     2.1911270000    -2.1674990000
    8      O       0.0021720000    -2.4031850000     0.4851510000
    9      S       3.0931600000     1.6992180000     0.0324940000
   10      C       4.2279830000     1.6385110000    -1.3770940000
   11      C       5.1478350000     0.5943350000    -1.4485960000
   12      C       4.1696720000     2.6336970000    -2.3484520000
   13      C       5.0679960000     2.5843750000    -3.4129030000
   14      C       6.0361900000     0.5539330000    -2.5215680000
   15      C       5.9989260000     1.5487820000    -3.4993990000
   16      O       3.7869660000     1.0293250000     1.1510630000
   17      O       2.6728820000     3.0932260000     0.2196820000
   18      H      -0.9951700000     0.7780030000    -2.5374230000
   19      H      -1.5056640000    -1.3422880000    -1.3183390000
   20      H       5.1566610000    -0.1685330000    -0.6793530000
   21      H       3.4185600000     3.4074060000    -2.2669190000
   22      H       5.0345680000     3.3515920000    -4.1789300000
   23      H       6.7562910000    -0.2540360000    -2.5919850000
   24      H       6.6926290000     1.5132570000    -4.3332080000
   25      C       2.4365880000    -1.2647800000     1.1675940000
   26      O       3.3360530000    -1.9133640000     0.6759510000
   27      C       2.1976850000    -1.2874360000     2.7017250000
   28      C       1.1451370000    -0.2579120000     3.1408590000
   29      C       1.7304580000    -2.7148030000     3.0774290000
   30      C       3.5373230000    -1.0111340000     3.4164040000
   31      H       0.1734510000    -0.4580140000     2.6836070000
   32      H       1.4506050000     0.7579760000     2.8799420000
   33      H       1.0195550000    -0.3030770000     4.2282510000
   34      H       0.7979160000    -2.9683940000     2.5744130000
   35      H       1.5916390000    -2.7716190000     4.1631620000
   36      H       2.4873360000    -3.4478070000     2.7866780000
   37      H       3.8809620000     0.0058490000     3.2311630000
   38      H       4.3054560000    -1.7032980000     3.0650920000
   39      H       3.4068540000    -1.1557210000     4.4947980000
 ----------------------------------------------------------------

    8   -1432.1386220153      8.01e-06  Convergence criterion met
 Total energy in the final basis set =    -1432.1386220153

                    Orbital Energies (a.u.)
 --------------------------------------------------------------

 Alpha MOs
 -- Occupied --
-89.0559 -19.1233 -19.1230 -19.1204 -19.0951 -19.0949 -10.2758 -10.2471
-10.2424 -10.2133 -10.2127 -10.2079 -10.1934 -10.1913 -10.1884 -10.1882
-10.1866 -10.1861 -10.1806 -10.1791 -10.1523 -10.1504 -10.1492  -8.1198
 -6.0828  -6.0815  -6.0807  -1.1164  -1.0602  -1.0241  -1.0192  -1.0109
 -0.8773  -0.8509  -0.8138  -0.7897  -0.7722  -0.7634  -0.7258  -0.6818
 -0.6792  -0.6780  -0.6458  -0.6226  -0.6197  -0.5915  -0.5780  -0.5418
 -0.5267  -0.5051  -0.5011  -0.4858  -0.4818  -0.4777  -0.4675  -0.4591
 -0.4558  -0.4541  -0.4378  -0.4346  -0.4294  -0.4264  -0.4220  -0.4119
 -0.3975  -0.3944  -0.3924  -0.3847  -0.3802  -0.3785  -0.3717  -0.3673
 -0.3597  -0.3589  -0.3461  -0.3348  -0.3267  -0.3226  -0.3158  -0.3072
 -0.3022  -0.2861  -0.2748  -0.2704  -0.2662  -0.2605  -0.2460  -0.1826

 Beta MOs
 -- Occupied --
-89.0559 -19.1230 -19.1229 -19.1204 -19.0890 -19.0880 -10.2759 -10.2460
-10.2411 -10.2127 -10.2121 -10.2053 -10.1933 -10.1913 -10.1883 -10.1882
-10.1866 -10.1861 -10.1801 -10.1783 -10.1523 -10.1504 -10.1492  -8.1198
 -6.0828  -6.0815  -6.0807  -1.1163  -1.0595  -1.0150  -1.0097  -1.0065
 -0.8772  -0.8446  -0.8135  -0.7884  -0.7705  -0.7633  -0.7190  -0.6816
 -0.6788  -0.6739  -0.6435  -0.6226  -0.6181  -0.5894  -0.5761  -0.5409
 -0.5249  -0.5033  -0.4986  -0.4850  -0.4809  -0.4774  -0.4656  -0.4580
 -0.4553  -0.4537  -0.4374  -0.4337  -0.4232  -0.4212  -0.4134  -0.4070
 -0.3942  -0.3909  -0.3869  -0.3797  -0.3786  -0.3712  -0.3683  -0.3634
 -0.3596  -0.3579  -0.3447  -0.3344  -0.3265  -0.3223  -0.3152  -0.3054
 -0.2854  -0.2745  -0.2682  -0.2660  -0.2626  -0.2545  -0.2421

          Ground-State Mulliken Net Atomic Charges

     Atom                 Charge (a.u.)    Spin (a.u.)
  --------------------------------------------------------
      1 C                    -0.281265       0.044525
      2 C                    -0.101335       0.055631
      3 C                    -0.195887       0.044170
      4 C                    -0.541654       0.091596
      5 C                     0.683962       0.179702
      6 C                     0.082972       0.127182
      7 O                    -0.395188       0.222991
      8 O                    -0.397282       0.271861
      9 S                     0.215001      -0.037534
     10 C                     0.723785       0.003622
     11 C                    -0.401340       0.003896
     12 C                     0.100037       0.017389
     13 C                    -0.509582      -0.001789
     14 C                    -0.586192      -0.001593
     15 C                    -0.367101       0.003091
     16 O                    -0.176579      -0.003231
     17 O                    -0.159041       0.008096
     18 H                     0.229235      -0.006118
     19 H                     0.223145      -0.004582
     20 H                     0.233450       0.001137
     21 H                     0.274204      -0.000304
     22 H                     0.230582       0.000176
     23 H                     0.236275       0.000035
     24 H                     0.208417      -0.000208
     25 C                    -0.131579      -0.026327
     26 O                    -0.267109       0.001661
     27 C                     0.249554       0.000810
     28 C                    -0.556894      -0.002015
     29 C                    -0.575533       0.006734
     30 C                    -0.583492      -0.000844
     31 H                     0.154019       0.000494
     32 H                     0.191906       0.000029
     33 H                     0.177736       0.000191
     34 H                     0.184592      -0.001833
     35 H                     0.159731       0.000190
     36 H                     0.172101       0.000481
     37 H                     0.160008       0.000067
     38 H                     0.164711       0.000093
     39 H                     0.171626       0.000530
  --------------------------------------------------------
  Sum of atomic charges =    -1.000000

                    Cartesian Multipole Moments
 -----------------------------------------------------------------
    Charge (ESU x 10^10)
                -4.8032
    Dipole Moment (Debye)
         X      -7.7856      Y      -1.4924      Z      -1.3048
       Tot       8.0340
    Quadrupole Moments (Debye-Ang)
        XX    -158.7524     XY      -7.3801     YY    -186.2148
        XZ     -16.5246     YZ       2.2208     ZZ    -142.6495

 Total job time:  141.05s(wall), 961.82s(cpu)
        *  Thank you very much for using Q-Chem.  Have a nice day.  *
