 Gaussian 16, Revision A.03,
 Gaussian 16:  ES64L-G16RevA.03 25-Dec-2016

 --------------------------------------
 #P UB3LYP/6-311++G(d,p) nosym opt freq
 --------------------------------------

 -------
 Reduced
 -------
 Symbolic Z-matrix:
 Charge = -2 Multiplicity = 1

 SCF Done:  E(UB3LYP) =  -764.309159573     A.U. after   40 cycles
 Optimization completed.
    -- Stationary point found.
 Normal termination of Gaussian 16 at Mon Jan  8 01:30:20 2024.

 ----------------------------------------------------------------------
 #P Geom=AllCheck Guess=TCheck SCRF=Check GenChk UB3LYP/6-311++G(d,p) F
 req
 ----------------------------------------------------------------------

 Structure from the checkpoint file:  "261-an.chk"
 -------
 Reduced
 -------
 Charge = -2 Multiplicity = 1

                          Input orientation:
 ---------------------------------------------------------------------
 Center     Atomic      Atomic             Coordinates (Angstroms)
 Number     Number       Type             X           Y           Z
 ---------------------------------------------------------------------
      1          6           0        2.876167    2.519875   -0.387154
      2          8           0        2.561469    1.158598   -0.251996
      3          6           0        1.236146    0.792703   -0.159633
      4          6           0        0.237103    1.745354   -0.200764
      5          6           0       -1.119567    1.365921   -0.106091
      6          6           0       -1.470401    0.033045   -0.018367
      7          8           0       -2.793236   -0.341627    0.074782
      8          6           0       -3.777644    0.659001    0.078205
      9          6           0       -0.476526   -1.004260   -0.012515
     10          6           0       -0.864580   -2.425783    0.015739
     11          8           0       -2.059577   -2.864974   -0.020231
     12          6           0        0.234824   -3.345709    0.095162
     13          6           0        1.556012   -2.968930    0.131788
     14          6           0        2.008350   -1.607298    0.080781
     15          8           0        3.254836   -1.349480    0.126007
     16          6           0        0.932981   -0.605391   -0.028094
     17          1           0        3.964438    2.571856   -0.478007
     18          1           0        2.565460    3.114650    0.485793
     19          1           0        2.427085    2.975071   -1.284445
     20          1           0        0.469908    2.798705   -0.286736
     21          1           0       -1.871715    2.143807   -0.123341
     22          1           0       -4.734220    0.142798    0.195652
     23          1           0       -3.659116    1.371834    0.909968
     24          1           0       -3.799395    1.234417   -0.860283
     25          1           0       -0.044058   -4.397948    0.128847
     26          1           0        2.345257   -3.716234    0.200607
 ---------------------------------------------------------------------

 SCF Done:  E(UB3LYP) =  -764.309159573     A.U. after    2 cycles

 Alpha  occ. eigenvalues --  -18.91694 -18.91694 -18.79288 -18.79287 -10.01075
 Alpha  occ. eigenvalues --  -10.01074  -9.99332  -9.99331  -9.95764  -9.95763
 Alpha  occ. eigenvalues --   -9.93252  -9.93204  -9.92835  -9.92801  -9.90651
 Alpha  occ. eigenvalues --   -9.90588  -0.83516  -0.83450  -0.71406  -0.71089
 Alpha  occ. eigenvalues --   -0.60691  -0.54614  -0.53074  -0.50810  -0.47903
 Alpha  occ. eigenvalues --   -0.45585  -0.41953  -0.36940  -0.36460  -0.32990
 Alpha  occ. eigenvalues --   -0.29528  -0.27811  -0.25882  -0.25261  -0.25052
 Alpha  occ. eigenvalues --   -0.24863  -0.21465  -0.20568  -0.18974  -0.18349
 Alpha  occ. eigenvalues --   -0.17861  -0.15998  -0.15665  -0.12838  -0.12304
 Alpha  occ. eigenvalues --   -0.11357  -0.11188  -0.10808  -0.10164  -0.09466
 Alpha  occ. eigenvalues --   -0.08268  -0.06105   0.00027   0.00293   0.02641
 Alpha  occ. eigenvalues --    0.03921   0.04047   0.12657
 Alpha virt. eigenvalues --    0.14246   0.14485   0.16744   0.17880   0.18148
 Alpha virt. eigenvalues --    0.18247   0.18867   0.20343   0.20476   0.22420
 Alpha virt. eigenvalues --    0.22722   0.22939   0.23114   0.23687   0.26311

  Beta  occ. eigenvalues --  -18.91694 -18.91694 -18.79288 -18.79287 -10.01075
  Beta  occ. eigenvalues --  -10.01074  -9.99332  -9.99331  -9.95764  -9.95763
  Beta  occ. eigenvalues --   -9.93252  -9.93204  -9.92835  -9.92801  -9.90651
  Beta  occ. eigenvalues --   -9.90588  -0.83516  -0.83450  -0.71406  -0.71089
  Beta  occ. eigenvalues --   -0.60691  -0.54614  -0.53074  -0.50810  -0.47903
  Beta  occ. eigenvalues --   -0.45585  -0.41953  -0.36940  -0.36460  -0.32990
  Beta  occ. eigenvalues --   -0.29528  -0.27811  -0.25882  -0.25261  -0.25052
  Beta  occ. eigenvalues --   -0.24863  -0.21465  -0.20568  -0.18974  -0.18349
  Beta  occ. eigenvalues --   -0.17861  -0.15998  -0.15665  -0.12838  -0.12304
  Beta  occ. eigenvalues --   -0.11357  -0.11188  -0.10808  -0.10164  -0.09466
  Beta  occ. eigenvalues --   -0.08268  -0.06105   0.00027   0.00293   0.02641
  Beta  occ. eigenvalues --    0.03921   0.04047   0.12657
  Beta virt. eigenvalues --    0.14246   0.14485   0.16744   0.17880   0.18148
  Beta virt. eigenvalues --    0.18247   0.18867   0.20343   0.20476   0.22420
  Beta virt. eigenvalues --    0.22722   0.22939   0.23114   0.23687   0.26311

 Mulliken charges and spin densities:
               1          2
     1  C    0.640053   0.000000
     2  O   -0.114955  -0.000000
     3  C    0.053390  -0.000000
     4  C   -0.074897  -0.000000
     5  C   -0.077182   0.000000
     6  C    0.048728   0.000000
     7  O   -0.114924   0.000000
     8  C    0.640063  -0.000000
     9  C    0.015164   0.000000
    10  C   -0.271911   0.000000
    11  O   -0.492039   0.000000
    12  C    0.059783  -0.000000
    13  C    0.060437  -0.000000
    14  C   -0.273203  -0.000000
    15  O   -0.492011  -0.000000
    16  C    0.016264  -0.000000
    17  H   -0.317180  -0.000000
    18  H   -0.036331  -0.000000
    19  H   -0.336661  -0.000000
    20  H   -0.211342   0.000000
    21  H   -0.211040   0.000000
    22  H   -0.318166   0.000000
    23  H   -0.335881   0.000000
    24  H   -0.036537   0.000000
    25  H    0.090205   0.000000
    26  H    0.090171  -0.000000
 Sum of Mulliken charges =  -2.00000  -0.00000

 Dipole moment (field-independent basis, Debye):
    X=             -1.4892    Y=              5.2584    Z=              0.3345  Tot=              5.4754
 Quadrupole moment (field-independent basis, Debye-Ang):
   XX=           -199.9470   YY=           -170.1121   ZZ=           -116.1866
   XY=             -8.7583   XZ=              6.0971   YZ=              4.2716

  Exact polarizability:3995.470 775.8851388.281-415.555-153.233 562.770
 Approx polarizability:4882.093 -39.3224865.424-612.411-417.621 572.734

                      1                      2                      3
                      A                      A                      A
 Frequencies --     25.0141                47.6692                71.3803
 Red. masses --      7.4948                 4.2655                 4.4575
 Frc consts  --      0.0028                 0.0057                 0.0134
 IR Inten    --      0.5344                 8.8155                 4.8895

                      4                      5                      6
                      A                      A                      A
 Frequencies --     76.1882                97.3625               201.1206
 Red. masses --      3.4599                 4.1567                 3.2647
 Frc consts  --      0.0118                 0.0232                 0.0778
 IR Inten    --      3.0707                 1.5538                 0.1984

                      7                      8                      9
                      A                      A                      A
 Frequencies --    206.7358               231.9153               265.0430
 Red. masses --      5.3748                 6.3289                 1.1025
 Frc consts  --      0.1353                 0.2006                 0.0456
 IR Inten    --     89.2944                11.3520                 0.1494

                     10                     11                     12
                      A                      A                      A
 Frequencies --    290.5493               317.3192               337.4654
 Red. masses --      1.1117                 5.6628                 8.3340
 Frc consts  --      0.0553                 0.3359                 0.5592
 IR Inten    --    102.9325                 0.6168                23.8155

                     13                     14                     15
                      A                      A                      A
 Frequencies --    341.1440               353.8125               376.4426
 Red. masses --      6.3309                 3.8034                 8.8986
 Frc consts  --      0.4341                 0.2805                 0.7430
 IR Inten    --      0.2529                 2.7312                11.1338

                     16                     17                     18
                      A                      A                      A
 Frequencies --    392.1444               434.8298               475.2070
 Red. masses --      4.7852                11.0635                 4.4053
 Frc consts  --      0.4336                 1.2325                 0.5861
 IR Inten    --      0.8955               516.5844                 0.6476

                     19                     20                     21
                      A                      A                      A
 Frequencies --    494.7369               527.9831               547.9475
 Red. masses --      6.3760                 5.0530                 2.5063
 Frc consts  --      0.9195                 0.8299                 0.4434
 IR Inten    --     51.3425                 1.6749                23.9668

                     22                     23                     24
                      A                      A                      A
 Frequencies --    640.1683               666.0530               670.4527
 Red. masses --      5.8097                 4.1250                 2.1554
 Frc consts  --      1.4028                 1.0782                 0.5708
 IR Inten    --     22.5292                 4.9174                 5.7311

                     25                     26                     27
                      A                      A                      A
 Frequencies --    675.0370               731.4217               757.1718
 Red. masses --      4.2813                 6.1412                 5.3227
 Frc consts  --      1.1494                 1.9357                 1.7979
 IR Inten    --     53.1517                24.8778                11.8758

                     28                     29                     30
                      A                      A                      A
 Frequencies --    768.9413               784.8480               800.5859
 Red. masses --      1.8194                 4.1075                 1.7264
 Frc consts  --      0.6338                 1.4907                 0.6519
 IR Inten    --     11.7972                 0.4088                 1.3849

                     31                     32                     33
                      A                      A                      A
 Frequencies --    825.0054               874.3337               906.7950
 Red. masses --      2.3127                 7.5896                 1.3028
 Frc consts  --      0.9274                 3.4184                 0.6312
 IR Inten    --     33.8028                14.2132                 4.4052

                     34                     35                     36
                      A                      A                      A
 Frequencies --    921.4609              1048.0957              1084.3675
 Red. masses --      6.4168                 4.8866                 7.6365
 Frc consts  --      3.2101                 3.1627                 5.2905
 IR Inten    --    132.1421               152.2730               917.1628

                     37                     38                     39
                      A                      A                      A
 Frequencies --   1086.0874              1127.9614              1156.8182
 Red. masses --      2.2846                 3.1740                 1.2890
 Frc consts  --      1.5878                 2.3793                 1.0164
 IR Inten    --    615.2429               321.7848                 5.1377

                     40                     41                     42
                      A                      A                      A
 Frequencies --   1158.4884              1163.4919              1183.7039
 Red. masses --      1.2880                 1.5295                 1.6477
 Frc consts  --      1.0185                 1.2199                 1.3602
 IR Inten    --     19.0448               119.6108               146.8199

                     43                     44                     45
                      A                      A                      A
 Frequencies --   1189.5473              1200.6617              1242.8041
 Red. masses --      1.4094                 2.2209                 3.2334
 Frc consts  --      1.1750                 1.8863                 2.9425
 IR Inten    --    589.6406                81.5176              1017.3892

                     46                     47                     48
                      A                      A                      A
 Frequencies --   1244.8684              1284.6887              1299.5225
 Red. masses --      3.8453                 6.3147                 2.0293
 Frc consts  --      3.5110                 6.1404                 2.0191
 IR Inten    --     95.4029                91.2517                98.8462

                     49                     50                     51
                      A                      A                      A
 Frequencies --   1384.6582              1403.2384              1411.5843
 Red. masses --      4.7634                 6.8931                 2.3756
 Frc consts  --      5.3808                 7.9970                 2.7889
 IR Inten    --    328.8058                 8.0931               200.1687

                     52                     53                     54
                      A                      A                      A
 Frequencies --   1436.7612              1456.8385              1460.6278
 Red. masses --     11.1956                 1.1912                 1.1883
 Frc consts  --     13.6165                 1.4896                 1.4937
 IR Inten    --   1655.2925              3475.9889                17.5621

                     55                     56                     57
                      A                      A                      A
 Frequencies --   1474.9647              1478.3296              1494.4285
 Red. masses --      1.0523                 1.0512                 1.0932
 Frc consts  --      1.3489                 1.3536                 1.4385
 IR Inten    --      2.9549               407.1820               440.6986

                     58                     59                     60
                      A                      A                      A
 Frequencies --   1494.6113              1522.1357              1542.9713
 Red. masses --      1.0823                 4.5519                 4.7057
 Frc consts  --      1.4245                 6.2136                 6.6006
 IR Inten    --     58.5737               149.6941                57.5136

                     61                     62                     63
                      A                      A                      A
 Frequencies --   1579.7499              1583.2946              2931.1935
 Red. masses --      6.0620                 4.6021                 1.0388
 Frc consts  --      8.9134                 6.7971                 5.2584
 IR Inten    --   3096.6904               509.4237                26.5068

                     64                     65                     66
                      A                      A                      A
 Frequencies --   2932.3749              2973.1329              2973.6420
 Red. masses --      1.0387                 1.1008                 1.1011
 Frc consts  --      5.2626                 5.7330                 5.7364
 IR Inten    --     17.9348                20.1138                 0.4497

                     67                     68                     69
                      A                      A                      A
 Frequencies --   3066.2081              3066.5718              3094.0960
 Red. masses --      1.0940                 1.0941                 1.0834
 Frc consts  --      6.0599                 6.0618                 6.1108
 IR Inten    --      0.4693                93.7200                 8.6196

                     70                     71                     72
                      A                      A                      A
 Frequencies --   3120.9624              3168.1811              3189.1291
 Red. masses --      1.0933                 1.0854                 1.0915
 Frc consts  --      6.2741                 6.4189                 6.5408
 IR Inten    --    426.2148               564.7716                71.4102

 - Thermochemistry -
 -------------------
 Temperature   298.150 Kelvin.  Pressure   1.00000 Atm.
 Atom     1 has atomic number  6 and mass  12.00000

 Molecular mass:   218.05791 amu.
 Principal axes and moments of inertia in atomic units:
                           1         2         3
     Eigenvalues --  2498.392143608.548106071.82574
           X            0.96198  -0.27247   0.01879
           Y            0.27089   0.96064   0.06164
           Z           -0.03485  -0.05420   0.99792
 This molecule is an asymmetric top.
 Rotational symmetry number  1.
 Warning -- assumption of classical behavior for rotation
           may cause significant error
 Rotational temperatures (Kelvin)      0.03467     0.02400     0.01426
 Rotational constants (GHZ):           0.72236     0.50013     0.29723
 Zero-point vibrational energy     501504.9 (Joules/Mol)
                                  119.86256 (Kcal/Mol)
 Warning -- explicit consideration of  21 degrees of freedom as
           vibrations may cause significant error
 Vibrational temperatures:     35.99    68.59   102.70   109.62   140.08
          (Kelvin)            289.37   297.45   333.67   381.34   418.04
                              456.55   485.54   490.83   509.06   541.62
                              564.21   625.62   683.72   711.82   759.65
                              788.37   921.06   958.30   964.63   971.23
                             1052.35  1089.40  1106.33  1129.22  1151.86
                             1187.00  1257.97  1304.68  1325.78  1507.98
                             1560.16  1562.64  1622.88  1664.40  1666.81
                             1674.01  1703.09  1711.49  1727.48  1788.12
                             1791.09  1848.38  1869.72  1992.21  2018.95
                             2030.95  2067.18  2096.07  2101.52  2122.15
                             2126.99  2150.15  2150.41  2190.01  2219.99
                             2272.91  2278.01  4217.33  4219.03  4277.68
                             4278.41  4411.59  4412.11  4451.71  4490.37
                             4558.31  4588.45

 Zero-point correction=                           0.191013 (Hartree/Particle)
 Thermal correction to Energy=                    0.205235
 Thermal correction to Enthalpy=                  0.206179
 Thermal correction to Gibbs Free Energy=         0.148852
 Sum of electronic and zero-point Energies=           -764.118146
 Sum of electronic and thermal Energies=              -764.103924
 Sum of electronic and thermal Enthalpies=            -764.102980
 Sum of electronic and thermal Free Energies=         -764.160308

                     E (Thermal)             CV                S
                      KCal/Mol        Cal/Mol-Kelvin    Cal/Mol-Kelvin
 Total                  128.787             53.948            120.656
 Electronic               0.000              0.000              0.000
 Translational            0.889              2.981             42.042
 Rotational               0.889              2.981             32.371
 Vibrational            127.010             47.986             46.244
 Vibration     1          0.593              1.985              6.190
 Vibration     2          0.595              1.978              4.912
 Vibration     3          0.598              1.968              4.115
 Vibration     4          0.599              1.965              3.987
 Vibration     5          0.603              1.951              3.506
 Vibration     6          0.638              1.838              2.123
 Vibration     7          0.641              1.830              2.072
 Vibration     8          0.653              1.792              1.864
 Vibration     9          0.671              1.737              1.628
 Vibration    10          0.687              1.691              1.471
 Vibration    11          0.704              1.641              1.324
 Vibration    12          0.718              1.601              1.224
 Vibration    13          0.721              1.593              1.207
 Vibration    14          0.730              1.567              1.149
 Vibration    15          0.747              1.520              1.053
 Vibration    16          0.760              1.487              0.992
 Vibration    17          0.795              1.394              0.843
 Vibration    18          0.832              1.305              0.723
 Vibration    19          0.850              1.262              0.671
 Vibration    20          0.883              1.188              0.592
 Vibration    21          0.903              1.144              0.548

 Optimization completed.
    -- Stationary point found.
 Normal termination of Gaussian 16 at Mon Jan  8 02:07:36 2024.
