 Q-Chem 5.4, Q-Chem, Inc., Pleasanton, CA (2021)
 Q-Chem 5.4.0 for Intel X86 EM64T Linux

User input:
--------------------------------------------------------------
$molecule
-2 1
C                  2.8761670000      2.5198750000     -0.3871540000
O                  2.5614690000      1.1585980000     -0.2519960000
C                  1.2361460000      0.7927030000     -0.1596330000
C                  0.2371030000      1.7453540000     -0.2007640000
C                 -1.1195670000      1.3659210000     -0.1060910000
C                 -1.4704010000      0.0330450000     -0.0183670000
O                 -2.7932360000     -0.3416270000      0.0747820000
C                 -3.7776440000      0.6590010000      0.0782050000
C                 -0.4765260000     -1.0042600000     -0.0125150000
C                 -0.8645800000     -2.4257830000      0.0157390000
O                 -2.0595770000     -2.8649740000     -0.0202310000
C                  0.2348240000     -3.3457090000      0.0951620000
C                  1.5560120000     -2.9689300000      0.1317880000
C                  2.0083500000     -1.6072980000      0.0807810000
O                  3.2548360000     -1.3494800000      0.1260070000
C                  0.9329810000     -0.6053910000     -0.0280940000
H                  3.9644380000      2.5718560000     -0.4780070000
H                  2.5654600000      3.1146500000      0.4857930000
H                  2.4270850000      2.9750710000     -1.2844450000
H                  0.4699080000      2.7987050000     -0.2867360000
H                 -1.8717150000      2.1438070000     -0.1233410000
H                 -4.7342200000      0.1427980000      0.1956520000
H                 -3.6591160000      1.3718340000      0.9099680000
H                 -3.7993950000      1.2344170000     -0.8602830000
H                 -0.0440580000     -4.3979480000      0.1288470000
H                  2.3452570000     -3.7162340000      0.2006070000
$end

$rem
BASIS  =  6-311++G(d,p)
GUI  =  2
JOB_TYPE  =  SP
METHOD  =  B3LYP
SCF_CONVERGENCE  = 8
SOLVENT_METHOD = sm12
$end

$smx
solvent dimethylformamide
charges CM5
$end

--------------------------------------------------------------

             Standard Nuclear Orientation (Angstroms)
    I     Atom           X                Y                Z
 ----------------------------------------------------------------
    1      C       2.8761670000     2.5198750000    -0.3871540000
    2      O       2.5614690000     1.1585980000    -0.2519960000
    3      C       1.2361460000     0.7927030000    -0.1596330000
    4      C       0.2371030000     1.7453540000    -0.2007640000
    5      C      -1.1195670000     1.3659210000    -0.1060910000
    6      C      -1.4704010000     0.0330450000    -0.0183670000
    7      O      -2.7932360000    -0.3416270000     0.0747820000
    8      C      -3.7776440000     0.6590010000     0.0782050000
    9      C      -0.4765260000    -1.0042600000    -0.0125150000
   10      C      -0.8645800000    -2.4257830000     0.0157390000
   11      O      -2.0595770000    -2.8649740000    -0.0202310000
   12      C       0.2348240000    -3.3457090000     0.0951620000
   13      C       1.5560120000    -2.9689300000     0.1317880000
   14      C       2.0083500000    -1.6072980000     0.0807810000
   15      O       3.2548360000    -1.3494800000     0.1260070000
   16      C       0.9329810000    -0.6053910000    -0.0280940000
   17      H       3.9644380000     2.5718560000    -0.4780070000
   18      H       2.5654600000     3.1146500000     0.4857930000
   19      H       2.4270850000     2.9750710000    -1.2844450000
   20      H       0.4699080000     2.7987050000    -0.2867360000
   21      H      -1.8717150000     2.1438070000    -0.1233410000
   22      H      -4.7342200000     0.1427980000     0.1956520000
   23      H      -3.6591160000     1.3718340000     0.9099680000
   24      H      -3.7993950000     1.2344170000    -0.8602830000
   25      H      -0.0440580000    -4.3979480000     0.1288470000
   26      H       2.3452570000    -3.7162340000     0.2006070000
 ----------------------------------------------------------------

   25    -764.0044971746      4.61e-09  Convergence criterion met
 Total energy in the final basis set =     -764.5823858796

                    Orbital Energies (a.u.)
 --------------------------------------------------------------

 Alpha MOs
 -- Occupied --
-19.2525 -19.2524 -19.2257 -19.2256 -10.3833 -10.3832 -10.3619 -10.3619
-10.3520 -10.3515 -10.3178 -10.3175 -10.2939 -10.2933 -10.2773 -10.2772
 -1.1656  -1.1643  -1.1342  -1.1327  -0.9884  -0.9571  -0.8833  -0.8758
 -0.8366  -0.7977  -0.7737  -0.7527  -0.7443  -0.6685  -0.6502  -0.6467
 -0.6386  -0.6024  -0.6000  -0.5811  -0.5670  -0.5591  -0.5448  -0.5416
 -0.5379  -0.5322  -0.5135  -0.5034  -0.5014  -0.4845  -0.4816  -0.4695
 -0.4250  -0.4230  -0.4208  -0.4151  -0.3816  -0.3739  -0.3684  -0.3645
 -0.3210  -0.3139

          Ground-State Mulliken Net Atomic Charges

     Atom                 Charge (a.u.)
  ----------------------------------------
      1 C                     0.220107
      2 O                    -0.238458
      3 C                    10.154085
      4 C                    10.057855
      5 C                    10.059589
      6 C                    10.151231
      7 O                    -0.240610
      8 C                     0.218264
      9 C                    -8.520151
     10 C                     0.070382
     11 O                     0.140464
     12 C                    -6.951216
     13 C                    -6.991984
     14 C                     0.041356
     15 O                     0.141667
     16 C                    -8.517090
     17 H                     0.267034
     18 H                     0.418471
     19 H                     0.395677
     20 H                     0.876062
     21 H                     0.877823
     22 H                     0.266599
     23 H                     0.395975
     24 H                     0.418927
     25 H                    -7.940334
     26 H                    -7.771725
  ----------------------------------------
  Sum of atomic charges =    -2.000000

                    Cartesian Multipole Moments
 -----------------------------------------------------------------
    Charge (ESU x 10^10)
                -9.6064
    Dipole Moment (Debye)
         X     -19.2387      Y      68.5881      Z      -3.1913
       Tot      71.3067
    Quadrupole Moments (Debye-Ang)
        XX    -179.6351     XY      78.8335     YY    -440.7247
        XZ      -6.6872     YZ      10.8144     ZZ    -148.8713

 Total job time:  889.34s(wall), 6289.24s(cpu)
        *  Thank you very much for using Q-Chem.  Have a nice day.  *
