 Q-Chem 5.4, Q-Chem, Inc., Pleasanton, CA (2021)
 Q-Chem 5.4.0 for Intel X86 EM64T Linux

User input:
--------------------------------------------------------------
$molecule
0 1
Cl                -2.4169860000      2.8513900000      1.6220970000
C                 -2.3790520000      1.2268120000      0.9749910000
C                 -3.6143960000      0.6225780000      0.7458130000
C                 -3.6834590000     -0.6588070000      0.2081360000
C                 -2.5179840000     -1.3319240000     -0.1318510000
C                 -1.2806980000     -0.7203760000      0.0704690000
C                 -0.0571910000     -1.4559520000     -0.3650570000
O                 -0.1165010000     -2.6181810000     -0.7276230000
C                  1.2277710000     -0.6980730000     -0.4113660000
C                  2.3123840000     -1.2889030000     -1.0597140000
C                  3.5092450000     -0.5948860000     -1.1731400000
C                  3.6224430000      0.6867000000     -0.6434900000
C                  2.5497090000      1.2703800000      0.0290030000
Cl                 2.7970020000      2.8972980000      0.6218030000
C                  1.3299150000      0.5844710000      0.1666570000
C                  0.1754190000      1.1156590000      0.9652300000
O                  0.3412210000      1.9100220000      1.8656270000
C                 -1.1834560000      0.5622480000      0.6491620000
H                 -4.5167560000      1.1662830000      0.9946910000
H                 -4.6506190000     -1.1205060000      0.0474470000
H                 -2.5395720000     -2.3248570000     -0.5620100000
H                  2.1900850000     -2.2826390000     -1.4707620000
H                  4.3558320000     -1.0404290000     -1.6822220000
H                  4.5434420000      1.2464930000     -0.7444920000
$end
$rem
MAX_SCF_CYCLES=200
BASIS  =  6-311++G(d,p)
GUI  =  2
JOB_TYPE  =  SP
METHOD  =  B3LYP
SOLVENT_METHOD = PCM
$end
$pcm
theory = CPCM
$end
$solvent
dielectric 37.219
opticaldielectric 1.43
$end

--------------------------------------------------------------

             Standard Nuclear Orientation (Angstroms)
    I     Atom           X                Y                Z
 ----------------------------------------------------------------
    1      Cl     -2.4169860000     2.8513900000     1.6220970000
    2      C      -2.3790520000     1.2268120000     0.9749910000
    3      C      -3.6143960000     0.6225780000     0.7458130000
    4      C      -3.6834590000    -0.6588070000     0.2081360000
    5      C      -2.5179840000    -1.3319240000    -0.1318510000
    6      C      -1.2806980000    -0.7203760000     0.0704690000
    7      C      -0.0571910000    -1.4559520000    -0.3650570000
    8      O      -0.1165010000    -2.6181810000    -0.7276230000
    9      C       1.2277710000    -0.6980730000    -0.4113660000
   10      C       2.3123840000    -1.2889030000    -1.0597140000
   11      C       3.5092450000    -0.5948860000    -1.1731400000
   12      C       3.6224430000     0.6867000000    -0.6434900000
   13      C       2.5497090000     1.2703800000     0.0290030000
   14      Cl      2.7970020000     2.8972980000     0.6218030000
   15      C       1.3299150000     0.5844710000     0.1666570000
   16      C       0.1754190000     1.1156590000     0.9652300000
   17      O       0.3412210000     1.9100220000     1.8656270000
   18      C      -1.1834560000     0.5622480000     0.6491620000
   19      H      -4.5167560000     1.1662830000     0.9946910000
   20      H      -4.6506190000    -1.1205060000     0.0474470000
   21      H      -2.5395720000    -2.3248570000    -0.5620100000
   22      H       2.1900850000    -2.2826390000    -1.4707620000
   23      H       4.3558320000    -1.0404290000    -1.6822220000
   24      H       4.5434420000     1.2464930000    -0.7444920000
 ----------------------------------------------------------------

    8   -1608.1896584675      8.86e-06  Convergence criterion met
 Total energy in the final basis set =    -1608.1896584675

                    Orbital Energies (a.u.)
 --------------------------------------------------------------

 Alpha MOs
 -- Occupied --
********-101.5674 -19.1403 -19.1379 -10.2971 -10.2908 -10.2657 -10.2657
-10.2263 -10.2263 -10.2182 -10.2182 -10.2079 -10.2079 -10.2046 -10.2046
-10.2022 -10.2022  -9.4823  -9.4823  -7.2470  -7.2469  -7.2373  -7.2373
 -7.2365  -7.2364  -1.0803  -1.0736  -0.9203  -0.9162  -0.8708  -0.8606
 -0.8206  -0.7822  -0.7695  -0.7630  -0.6972  -0.6752  -0.6567  -0.6141
 -0.5876  -0.5710  -0.5632  -0.5152  -0.5030  -0.5012  -0.4980  -0.4716
 -0.4667  -0.4624  -0.4588  -0.4582  -0.4499  -0.4286  -0.4187  -0.4067
 -0.3977  -0.3944  -0.3880  -0.3829  -0.3559  -0.3507  -0.3411  -0.3287
 -0.2980  -0.2949  -0.2836  -0.2736  -0.2717  -0.2709

          Ground-State Mulliken Net Atomic Charges

     Atom                 Charge (a.u.)
  ----------------------------------------
      1 Cl                    0.488936
      2 C                     0.469144
      3 C                    -0.297402
      4 C                    -0.742689
      5 C                     0.406247
      6 C                     0.454693
      7 C                    -0.896237
      8 O                    -0.265590
      9 C                     0.458558
     10 C                     0.407643
     11 C                    -0.742772
     12 C                    -0.297355
     13 C                     0.468032
     14 Cl                    0.489014
     15 C                     0.346150
     16 C                    -2.316448
     17 O                    -0.173826
     18 C                     0.351466
     19 H                     0.249111
     20 H                     0.229025
     21 H                     0.218215
     22 H                     0.217986
     23 H                     0.229044
     24 H                     0.249054
  ----------------------------------------
  Sum of atomic charges =     0.000000

                    Cartesian Multipole Moments
 -----------------------------------------------------------------
    Charge (ESU x 10^10)
                 0.0000
    Dipole Moment (Debye)
         X      -0.6278      Y      -2.3457      Z      -3.3841
       Tot       4.1651
    Quadrupole Moments (Debye-Ang)
        XX     -83.3885     XY      -0.9290     YY    -131.3359
        XZ      -7.6738     YZ      -7.1807     ZZ    -122.2518

 Total job time:  48.72s(wall), 322.69s(cpu)
        *  Thank you very much for using Q-Chem.  Have a nice day.  *
