 Q-Chem 5.4, Q-Chem, Inc., Pleasanton, CA (2021)
 Q-Chem 5.4.0 for Intel X86 EM64T Linux

User input:
--------------------------------------------------------------
$molecule
-1 2
C                 -3.0088010000      3.7297910000      0.4086100000
C                 -4.2505510000      3.1550530000      0.4958090000
C                 -4.4342930000      1.7626250000      0.4200090000
C                 -1.8636420000      2.9192460000      0.2426300000
C                 -2.0242600000      1.5057670000      0.1655770000
C                 -3.3231380000      0.9612550000      0.2590200000
C                 -0.5535600000      3.5610880000      0.1465390000
C                  0.5852790000      2.6610230000     -0.0278580000
C                  0.4307010000      1.2468970000     -0.1054420000
C                 -0.8830500000      0.6052970000     -0.0149110000
C                  1.8811090000      3.2142190000     -0.1316480000
C                  2.9666520000      2.3940740000     -0.3013580000
C                  2.8387590000      0.9957360000     -0.3829590000
C                  1.5783630000      0.4444030000     -0.2820060000
O                 -0.4152120000      4.8090020000      0.2077370000
O                 -1.0226260000     -0.6384940000     -0.0911430000
H                 -3.4172520000     -0.1165390000      0.1976370000
H                  1.4328370000     -0.6279790000     -0.3375700000
H                 -2.8798690000      4.8040750000      0.4547980000
H                  1.9893490000      4.2906960000     -0.0834480000
H                  3.7163410000      0.3745520000     -0.5133970000
O                  4.2275150000      3.0072320000     -0.5027500000
C                  5.2439310000      2.7919100000      0.3645770000
C                  6.4597720000      3.5800550000     -0.0681390000
O                  5.1897500000      2.0856240000      1.3383860000
O                 -5.3708760000      4.0195280000      0.5577800000
H                  6.2367800000      4.6490680000     -0.0251960000
H                  6.7165580000      3.3408320000     -1.1023530000
H                  7.2951450000      3.3505960000      0.5907480000
C                 -6.1986430000      3.9979160000      1.6283300000
C                 -7.2888840000      5.0307640000      1.4514680000
O                 -6.0833690000      3.2723130000      2.5824250000
H                 -5.4280490000      1.3387400000      0.4961090000
H                 -6.8455240000      6.0293760000      1.4266790000
H                 -7.9936620000      4.9605880000      2.2779060000
H                 -7.8037890000      4.8778380000      0.5005740000
$end
$rem
MAX_SCF_CYCLES=200
BASIS  =  6-311++G(d,p)
GUI  =  2
JOB_TYPE  =  SP
METHOD  =  B3LYP
SOLVENT_METHOD = COSMO
$end
$solvent
dielectric 37.219
opticaldielectric 1.43
$end

--------------------------------------------------------------

             Standard Nuclear Orientation (Angstroms)
    I     Atom           X                Y                Z
 ----------------------------------------------------------------
    1      C       2.4732698738    -0.8289136965    -0.3589247914
    2      C       3.6504136794    -0.1286508342    -0.2969983712
    3      C       3.6786538530     1.2717972837    -0.1692875283
    4      C       1.2386330187    -0.1457382678    -0.2891762258
    5      C       1.2416834008     1.2727983145    -0.1572563632
    6      C       2.4791325859     1.9493029265    -0.0992047007
    7      C      -0.0000371941    -0.9187771946    -0.3641188794
    8      C      -1.2386753871    -0.1457060625    -0.2891386331
    9      C      -1.2417212091     1.2728206642    -0.1570832368
   10      C      -0.0000059652     2.0468726895    -0.0879831120
   11      C      -2.4733363357    -0.8288632533    -0.3590111036
   12      C      -3.6504481460    -0.1285822156    -0.2969050324
   13      C      -3.6786664153     1.2718336684    -0.1688285468
   14      C      -2.4791490713     1.9493355022    -0.0987780744
   15      O      -0.0000593277    -2.1697457221    -0.4876197238
   16      O       0.0000180948     3.2961341256     0.0199737913
   17      H       2.4531373188     3.0279437898     0.0014102002
   18      H      -2.4531219889     3.0279640877     0.0019755567
   19      H       2.4628210183    -1.9060556307    -0.4707236265
   20      H      -2.4628820333    -1.9059764959    -0.4710809006
   21      H      -4.6251759925     1.7958817565    -0.1185590535
   22      O      -4.8549515929    -0.8521901659    -0.4753986063
   23      C      -5.7874500922    -0.8889862295     0.5048124793
   24      C      -6.9544706773    -1.7452765287     0.0671883342
   25      O      -5.7011599473    -0.3310826836     1.5684746002
   26      O       4.8547639889    -0.8525738744    -0.4752153739
   27      H      -6.6179318599    -2.7746572890    -0.0793558647
   28      H      -7.3461814823    -1.3900941793    -0.8884127516
   29      H      -7.7322355696    -1.7160955751     0.8280180160
   30      C       5.7876966313    -0.8885916707     0.5046223628
   31      C       6.9537751388    -1.7465928862     0.0678439010
   32      O       5.7023075542    -0.3291172807     1.5675344901
   33      H       4.6251552951     1.7958645619    -0.1191956246
   34      H       6.6168640710    -2.7766855732    -0.0728987691
   35      H       7.7334098903    -1.7139981931     0.8266216737
   36      H       7.3430050409    -1.3959797067    -0.8904271470
 ----------------------------------------------------------------

   10   -1144.9155136924      8.70e-06  Convergence criterion met
 Total energy in the final basis set =    -1144.9155136924
    4   -1145.0061623139      8.48e-06  Convergence criterion met
 Total energy in the final basis set =    -1145.0061623139

                    Orbital Energies (a.u.)
 --------------------------------------------------------------

 Alpha MOs
 -- Occupied --
-19.1863 -19.1862 -19.1290 -19.1290 -19.0853 -19.0845 -10.3202 -10.3202
-10.2442 -10.2442 -10.2341 -10.2319 -10.1838 -10.1838 -10.1831 -10.1831
-10.1804 -10.1804 -10.1800 -10.1800 -10.1797 -10.1796 -10.1764 -10.1764
 -1.1257  -1.1257  -1.0447  -1.0447  -1.0136  -1.0105  -0.8740  -0.8650
 -0.8035  -0.7788  -0.7703  -0.7602  -0.7487  -0.7333  -0.6837  -0.6605
 -0.6533  -0.6108  -0.6102  -0.5839  -0.5658  -0.5261  -0.5239  -0.5053
 -0.5041  -0.5013  -0.4940  -0.4930  -0.4836  -0.4656  -0.4653  -0.4465
 -0.4400  -0.4337  -0.4321  -0.4272  -0.4237  -0.4197  -0.4158  -0.4124
 -0.4078  -0.3931  -0.3909  -0.3899  -0.3871  -0.3762  -0.3679  -0.3619
 -0.3576  -0.3441  -0.3327  -0.3298  -0.2996  -0.2995  -0.2741  -0.2671
 -0.2633  -0.2566  -0.2521  -0.2471  -0.1502

 Beta MOs
 -- Occupied --
-19.1862 -19.1862 -19.1290 -19.1290 -19.0801 -19.0787 -10.3202 -10.3202
-10.2438 -10.2438 -10.2325 -10.2300 -10.1830 -10.1830 -10.1826 -10.1826
-10.1804 -10.1804 -10.1795 -10.1795 -10.1793 -10.1793 -10.1764 -10.1764
 -1.1256  -1.1255  -1.0447  -1.0447  -1.0043  -1.0004  -0.8715  -0.8639
 -0.8001  -0.7781  -0.7681  -0.7588  -0.7473  -0.7323  -0.6775  -0.6585
 -0.6520  -0.6097  -0.6085  -0.5826  -0.5630  -0.5251  -0.5223  -0.5051
 -0.5038  -0.5003  -0.4935  -0.4916  -0.4831  -0.4648  -0.4640  -0.4448
 -0.4395  -0.4332  -0.4261  -0.4226  -0.4192  -0.4186  -0.4128  -0.4089
 -0.4072  -0.3919  -0.3906  -0.3866  -0.3745  -0.3668  -0.3664  -0.3605
 -0.3546  -0.3387  -0.3322  -0.3239  -0.2994  -0.2993  -0.2634  -0.2558
 -0.2524  -0.2515  -0.2471  -0.2420

          Ground-State Mulliken Net Atomic Charges

     Atom                 Charge (a.u.)    Spin (a.u.)
  --------------------------------------------------------
      1 C                    -0.014659       0.029004
      2 C                    -0.779563       0.025596
      3 C                     0.104496       0.047296
      4 C                     0.390735       0.049474
      5 C                     0.285310       0.032011
      6 C                     0.187032       0.019131
      7 C                    -0.809675       0.116571
      8 C                     0.391669       0.049471
      9 C                     0.284492       0.031955
     10 C                    -0.512932       0.085003
     11 C                    -0.013569       0.028983
     12 C                    -0.781036       0.025622
     13 C                     0.105638       0.047278
     14 C                     0.187225       0.019136
     15 O                    -0.473070       0.211854
     16 O                    -0.468840       0.192405
     17 H                     0.193804      -0.000658
     18 H                     0.193828      -0.000658
     19 H                     0.206472      -0.002065
     20 H                     0.206441      -0.002064
     21 H                     0.242667      -0.003694
     22 O                    -0.030900       0.000783
     23 C                     0.160497       0.000185
     24 C                    -0.569561       0.000655
     25 O                    -0.328692      -0.000686
     26 O                    -0.030997       0.000782
     27 H                     0.201904       0.000040
     28 H                     0.199775       0.000073
     29 H                     0.182406      -0.000028
     30 C                     0.160938       0.000186
     31 C                    -0.569996       0.000655
     32 O                    -0.328851      -0.000684
     33 H                     0.242648      -0.003695
     34 H                     0.202009       0.000040
     35 H                     0.182504      -0.000028
     36 H                     0.199832       0.000073
  --------------------------------------------------------
  Sum of atomic charges =    -1.000019

                    Cartesian Multipole Moments
 -----------------------------------------------------------------
    Charge (ESU x 10^10)
                -4.8033
    Dipole Moment (Debye)
         X      -0.0028      Y      -4.0795      Z      -3.5820
       Tot       5.4290
    Quadrupole Moments (Debye-Ang)
        XX    -126.2754     XY      -0.0273     YY    -164.9459
        XZ       0.0071     YZ      -3.5842     ZZ    -156.0547

 Total job time:  168.00s(wall), 1260.08s(cpu)
        *  Thank you very much for using Q-Chem.  Have a nice day.  *
