 Gaussian 16, Revision A.03,
 Gaussian 16:  ES64L-G16RevA.03 25-Dec-2016

 --------------------------------------
 #P UB3LYP/6-311++G(d,p) nosym opt freq
 --------------------------------------

 -------
 Reduced
 -------
 Symbolic Z-matrix:
 Charge = -4 Multiplicity = 1

 SCF Done:  E(UB3LYP) =  -1781.50113228     A.U. after  119 cycles
 SCF Done:  E(UB3LYP) =  -1781.54920861     A.U. after   31 cycles
 SCF Done:  E(UB3LYP) =  -1781.56976320     A.U. after   29 cycles
 SCF Done:  E(UB3LYP) =  -1781.57069285     A.U. after   28 cycles
 SCF Done:  E(UB3LYP) =  -1781.57085027     A.U. after   29 cycles
 SCF Done:  E(UB3LYP) =  -1781.57088708     A.U. after   27 cycles
 SCF Done:  E(UB3LYP) =  -1781.57099679     A.U. after   26 cycles
 SCF Done:  E(UB3LYP) =  -1781.57136615     A.U. after   32 cycles
 SCF Done:  E(UB3LYP) =  -1781.57153624     A.U. after   28 cycles
 SCF Done:  E(UB3LYP) =  -1781.57137183     A.U. after   27 cycles
 SCF Done:  E(UB3LYP) =  -1781.57113141     A.U. after   26 cycles
 SCF Done:  E(UB3LYP) =  -1781.57115046     A.U. after   27 cycles
 SCF Done:  E(UB3LYP) =  -1781.57154588     A.U. after   33 cycles
 SCF Done:  E(UB3LYP) =  -1781.57116514     A.U. after   27 cycles
 SCF Done:  E(UB3LYP) =  -1781.57117376     A.U. after   27 cycles
 SCF Done:  E(UB3LYP) =  -1781.57137919     A.U. after   32 cycles
 SCF Done:  E(UB3LYP) =  -1781.57117898     A.U. after   28 cycles
 SCF Done:  E(UB3LYP) =  -1781.57117915     A.U. after   27 cycles
 Optimization completed.
    -- Stationary point found.
 Normal termination of Gaussian 16 at Sat Jan  6 04:57:53 2024.

 ----------------------------------------------------------------------
 #P Geom=AllCheck Guess=TCheck SCRF=Check GenChk UB3LYP/6-311++G(d,p) F
 req
 ----------------------------------------------------------------------

 Structure from the checkpoint file:  "327-an.chk"
 -------
 Reduced
 -------
 Charge = -4 Multiplicity = 1

                          Input orientation:
 ---------------------------------------------------------------------
 Center     Atomic      Atomic             Coordinates (Angstroms)
 Number     Number       Type             X           Y           Z
 ---------------------------------------------------------------------
      1          6           0       -1.678207    2.950686   -0.710782
      2          6           0       -2.826125    2.264418   -0.380069
      3          6           0       -2.730707    0.904368    0.021646
      4          6           0       -0.381405    2.367804   -0.655709
      5          6           0       -0.280062    0.990258   -0.196001
      6          6           0       -1.489429    0.295193    0.121384
      7          6           0        0.759786    3.192645   -1.055515
      8          6           0        2.098821    2.587701   -0.909242
      9          6           0        2.137195    1.229061   -0.450515
     10          6           0        1.041663    0.442984   -0.102972
     11          8           0        0.599950    4.385014   -1.493306
     12          8           0        3.184325    3.226052   -1.193792
     13          1           0       -1.731696    3.992705   -1.018671
     14          1           0       -3.794837    2.758134   -0.419051
     15         16           0       -4.293787    0.030148    0.385880
     16          1           0       -1.433224   -0.737598    0.442338
     17          1           0        3.124477    0.788257   -0.362624
     18         16           0        1.411120   -1.284206    0.410806
     19          8           0        2.912686   -1.411983    0.431380
     20          8           0        0.802595   -2.203572   -0.608837
     21          8           0        0.828983   -1.489745    1.778555
     22          8           0       -4.937288    0.757667    1.535839
     23          8           0       -3.960877   -1.386427    0.727130
     24          8           0       -5.137185    0.136377   -0.856952
 ---------------------------------------------------------------------

 SCF Done:  E(UB3LYP) =  -1781.57117915     A.U. after    2 cycles

 Alpha  occ. eigenvalues --  -88.61120 -88.59969 -18.65637 -18.65618 -18.65578
 Alpha  occ. eigenvalues --  -18.64637 -18.64325 -18.64308 -18.61136 -18.60849
 Alpha  occ. eigenvalues --   -9.76165  -9.75837  -9.75701  -9.74401  -9.74316
 Alpha  occ. eigenvalues --   -9.74069  -9.74056  -9.73444  -9.72623  -9.71435
 Alpha  occ. eigenvalues --   -7.66976  -7.65808  -5.63263  -5.63252  -5.63121
 Alpha  occ. eigenvalues --   -5.62108  -5.62075  -5.61952  -0.66656  -0.65406
 Alpha  occ. eigenvalues --   -0.53252  -0.53242  -0.52807  -0.51842  -0.51760
 Alpha  occ. eigenvalues --   -0.50332  -0.41887  -0.36417  -0.31661  -0.28741
 Alpha  occ. eigenvalues --   -0.25070  -0.19889  -0.17501  -0.16145  -0.12962
 Alpha  occ. eigenvalues --   -0.10170  -0.06746  -0.05893  -0.04388  -0.02247
 Alpha  occ. eigenvalues --   -0.01767  -0.01523  -0.00419  -0.00204   0.00356
 Alpha  occ. eigenvalues --    0.01499   0.02786   0.04346   0.04479   0.06374
 Alpha  occ. eigenvalues --    0.07805   0.08138   0.09475   0.10244   0.10259
 Alpha  occ. eigenvalues --    0.11180   0.11680   0.11851   0.13022   0.14192
 Alpha  occ. eigenvalues --    0.14313   0.14862   0.15046   0.15838   0.16708
 Alpha  occ. eigenvalues --    0.18090   0.18819   0.19296   0.20811   0.22393
 Alpha  occ. eigenvalues --    0.23280   0.30071
 Alpha virt. eigenvalues --    0.31878   0.34975   0.35192   0.38278   0.39361
 Alpha virt. eigenvalues --    0.40200   0.41011   0.41108   0.41574   0.42008
 Alpha virt. eigenvalues --    0.42867   0.42991   0.43825   0.44501   0.44687

  Beta  occ. eigenvalues --  -88.61120 -88.59969 -18.65637 -18.65618 -18.65578
  Beta  occ. eigenvalues --  -18.64637 -18.64325 -18.64308 -18.61136 -18.60849
  Beta  occ. eigenvalues --   -9.76165  -9.75837  -9.75701  -9.74401  -9.74316
  Beta  occ. eigenvalues --   -9.74069  -9.74056  -9.73444  -9.72623  -9.71435
  Beta  occ. eigenvalues --   -7.66976  -7.65808  -5.63263  -5.63252  -5.63121
  Beta  occ. eigenvalues --   -5.62108  -5.62075  -5.61952  -0.66656  -0.65406
  Beta  occ. eigenvalues --   -0.53252  -0.53242  -0.52807  -0.51842  -0.51760
  Beta  occ. eigenvalues --   -0.50332  -0.41887  -0.36417  -0.31661  -0.28741
  Beta  occ. eigenvalues --   -0.25070  -0.19889  -0.17501  -0.16145  -0.12962
  Beta  occ. eigenvalues --   -0.10170  -0.06746  -0.05893  -0.04388  -0.02247
  Beta  occ. eigenvalues --   -0.01767  -0.01523  -0.00419  -0.00204   0.00356
  Beta  occ. eigenvalues --    0.01499   0.02786   0.04346   0.04479   0.06374
  Beta  occ. eigenvalues --    0.07805   0.08138   0.09475   0.10244   0.10259
  Beta  occ. eigenvalues --    0.11180   0.11680   0.11851   0.13022   0.14192
  Beta  occ. eigenvalues --    0.14313   0.14862   0.15046   0.15838   0.16708
  Beta  occ. eigenvalues --    0.18090   0.18819   0.19296   0.20811   0.22393
  Beta  occ. eigenvalues --    0.23280   0.30071
  Beta virt. eigenvalues --    0.31878   0.34975   0.35192   0.38278   0.39361
  Beta virt. eigenvalues --    0.40200   0.41011   0.41108   0.41574   0.42008
  Beta virt. eigenvalues --    0.42867   0.42991   0.43825   0.44501   0.44687

 Mulliken charges and spin densities:
               1          2
     1  C    0.218026  -0.000000
     2  C    0.192386   0.000000
     3  C    0.083635   0.000000
     4  C    1.228281  -0.000000
     5  C   -0.074171  -0.000000
     6  C   -0.347307  -0.000000
     7  C   -0.877263  -0.000000
     8  C   -0.345901  -0.000000
     9  C    0.672811   0.000000
    10  C   -1.158201  -0.000000
    11  O   -0.518371  -0.000000
    12  O   -0.545460  -0.000000
    13  H   -0.717285   0.000000
    14  H   -1.154641   0.000000
    15  S    0.942710  -0.000000
    16  H    0.181548   0.000000
    17  H    0.145706   0.000000
    18  S    0.469482  -0.000000
    19  O   -0.397009  -0.000000
    20  O   -0.376882  -0.000000
    21  O   -0.395265  -0.000000
    22  O   -0.407222   0.000000
    23  O   -0.412157   0.000000
    24  O   -0.407449   0.000000
 Sum of Mulliken charges =  -4.00000   0.00000

 Dipole moment (field-independent basis, Debye):
    X=             13.8490    Y=            -19.5742    Z=              3.0070  Tot=             24.1658
 Quadrupole moment (field-independent basis, Debye-Ang):
   XX=           -370.8267   YY=           -305.4592   ZZ=           -180.7266
   XY=              4.7181   XZ=             17.3976   YZ=             39.5178

  Exact polarizability:1259.451-354.378 774.818 -10.519-113.639 202.128
 Approx polarizability:3356.042********1167.559 -58.099 -73.371 287.289

                      1                      2                      3
                      A                      A                      A
 Frequencies --     18.0889                22.8938                44.8656
 Red. masses --     14.6857                15.9235                 9.2587
 Frc consts  --      0.0028                 0.0049                 0.0110
 IR Inten    --      0.4887                 0.5005                 0.1534

                      4                      5                      6
                      A                      A                      A
 Frequencies --     78.8699                84.8677               110.4047
 Red. masses --     10.7734                16.5943                 7.5866
 Frc consts  --      0.0395                 0.0704                 0.0545
 IR Inten    --      4.8433                11.9661                22.6898

                      7                      8                      9
                      A                      A                      A
 Frequencies --    155.9271               158.7375               199.1483
 Red. masses --      9.0978                 8.5862                16.6190
 Frc consts  --      0.1303                 0.1275                 0.3883
 IR Inten    --      9.8933                 7.7773                 0.8729

                     10                     11                     12
                      A                      A                      A
 Frequencies --    226.3524               244.8397               266.1759
 Red. masses --      7.3996                14.1603                13.2504
 Frc consts  --      0.2234                 0.5001                 0.5531
 IR Inten    --      9.0023                22.0271                30.4590

                     13                     14                     15
                      A                      A                      A
 Frequencies --    268.7154               315.7849               335.9888
 Red. masses --      9.1379                13.0254                 7.6439
 Frc consts  --      0.3888                 0.7653                 0.5084
 IR Inten    --      4.1889                60.8058                 5.0665

                     16                     17                     18
                      A                      A                      A
 Frequencies --    360.5351               375.0945               408.7302
 Red. masses --     14.2083                 7.2943                 5.1417
 Frc consts  --      1.0881                 0.6047                 0.5061
 IR Inten    --     77.4633                25.0036                 6.0236

                     19                     20                     21
                      A                      A                      A
 Frequencies --    441.3338               465.2518               485.5082
 Red. masses --      5.3573                 9.5988                 9.5566
 Frc consts  --      0.6148                 1.2242                 1.3272
 IR Inten    --      4.2362                 6.3361               224.0473

                     22                     23                     24
                      A                      A                      A
 Frequencies --    494.4699               497.4361               521.1932
 Red. masses --     14.9478                 9.5135                 8.6791
 Frc consts  --      2.1533                 1.3870                 1.3891
 IR Inten    --     11.8858                36.6742                 7.4927

                     25                     26                     27
                      A                      A                      A
 Frequencies --    524.1080               538.2322               584.9240
 Red. masses --     11.4370                 5.3858                11.3805
 Frc consts  --      1.8510                 0.9193                 2.2941
 IR Inten    --     60.4507                 5.6838               281.7325

                     28                     29                     30
                      A                      A                      A
 Frequencies --    613.0720               621.9380               632.2821
 Red. masses --     15.5544                 6.4236                 9.2050
 Frc consts  --      3.4445                 1.4639                 2.1682
 IR Inten    --     58.7811                53.0502               552.0896

                     31                     32                     33
                      A                      A                      A
 Frequencies --    688.1446               698.9042               719.3026
 Red. masses --      7.3147                 5.2519                 7.1553
 Frc consts  --      2.0408                 1.5115                 2.1812
 IR Inten    --     51.0672                 2.6626                25.1154

                     34                     35                     36
                      A                      A                      A
 Frequencies --    779.4244               800.5547               878.9433
 Red. masses --      6.6895                 8.7548                 1.4023
 Frc consts  --      2.3944                 3.3058                 0.6383
 IR Inten    --     27.0435               109.6763                 7.5106

                     37                     38                     39
                      A                      A                      A
 Frequencies --    904.6503               917.5210               930.7566
 Red. masses --      6.6488                 1.3497                 1.4915
 Frc consts  --      3.2059                 0.6695                 0.7613
 IR Inten    --    313.3504                57.6701               166.8219

                     40                     41                     42
                      A                      A                      A
 Frequencies --    946.2088               957.6025               983.7984
 Red. masses --     13.9255                 6.9262                 8.0624
 Frc consts  --      7.3457                 3.7421                 4.5975
 IR Inten    --    209.3220              1609.8931                34.1862

                     43                     44                     45
                      A                      A                      A
 Frequencies --   1002.1091              1061.2125              1078.3317
 Red. masses --      1.3600                 2.5172                20.2642
 Frc consts  --      0.8047                 1.6702                13.8830
 IR Inten    --    226.5839               134.8717               270.9857

                     46                     47                     48
                      A                      A                      A
 Frequencies --   1079.4297              1100.9429              1109.8467
 Red. masses --     17.4669                19.1739                 5.1487
 Frc consts  --     11.9909                13.6927                 3.7366
 IR Inten    --    178.7857               386.2298               256.6170

                     49                     50                     51
                      A                      A                      A
 Frequencies --   1128.7545              1159.8686              1215.6834
 Red. masses --      2.2451                 2.4122                 2.4734
 Frc consts  --      1.6853                 1.9120                 2.1537
 IR Inten    --    108.3189                 6.2561              1267.1720

                     52                     53                     54
                      A                      A                      A
 Frequencies --   1229.7350              1263.0983              1308.7895
 Red. masses --      3.2715                 2.1663                 3.9662
 Frc consts  --      2.9149                 2.0363                 4.0028
 IR Inten    --    153.9463              1081.4017               216.3851

                     55                     56                     57
                      A                      A                      A
 Frequencies --   1340.3513              1366.2047              1404.3054
 Red. masses --      2.8504                 7.7070                 7.6062
 Frc consts  --      3.0172                 8.4756                 8.8378
 IR Inten    --    188.4218              1374.2446              1396.7292

                     58                     59                     60
                      A                      A                      A
 Frequencies --   1450.0932              1453.0965              1489.4403
 Red. masses --      4.2082                 4.3681                 3.9201
 Frc consts  --      5.2135                 5.4342                 5.1238
 IR Inten    --    954.4210               694.4011              2320.5410

                     61                     62                     63
                      A                      A                      A
 Frequencies --   1526.1638              1580.7058              3113.2267
 Red. masses --      6.0810                 5.6186                 1.0859
 Frc consts  --      8.3451                 8.2715                 6.2008
 IR Inten    --    125.6668               241.1573               920.3575

                     64                     65                     66
                      A                      A                      A
 Frequencies --   3142.0808              3163.0844              3198.1734
 Red. masses --      1.0930                 1.0865                 1.0896
 Frc consts  --      6.3576                 6.4046                 6.5660
 IR Inten    --    476.2423                62.9059                 0.2173

 - Thermochemistry -
 -------------------
 Temperature   298.150 Kelvin.  Pressure   1.00000 Atm.
 Atom     1 has atomic number  6 and mass  12.00000

 Molecular mass:   315.93476 amu.
 Principal axes and moments of inertia in atomic units:
                           1         2         3
     Eigenvalues --  4522.724828652.36155**********
           X            0.98434  -0.16198   0.06954
           Y            0.13248   0.94003   0.31430
           Z           -0.11628  -0.30017   0.94677
 This molecule is an asymmetric top.
 Rotational symmetry number  1.
 Warning -- assumption of classical behavior for rotation
           may cause significant error
 Rotational temperatures (Kelvin)      0.01915     0.01001     0.00695
 Rotational constants (GHZ):           0.39904     0.20858     0.14476
 Zero-point vibrational energy     348509.9 (Joules/Mol)
                                   83.29587 (Kcal/Mol)
 Warning -- explicit consideration of  28 degrees of freedom as
           vibrations may cause significant error
 Vibrational temperatures:     26.03    32.94    64.55   113.48   122.11
          (Kelvin)            158.85   224.34   228.39   286.53   325.67
                              352.27   382.97   386.62   454.34   483.41
                              518.73   539.68   588.07   634.98   669.39
                              698.54   711.43   715.70   749.88   754.07
                              774.40   841.58   882.07   894.83   909.71
                              990.09  1005.57  1034.92  1121.42  1151.82
                             1264.60  1301.59  1320.11  1339.15  1361.38
                             1377.78  1415.47  1441.81  1526.85  1551.48
                             1553.06  1584.01  1596.82  1624.03  1668.79
                             1749.10  1769.31  1817.32  1883.06  1928.47
                             1965.66  2020.48  2086.36  2090.68  2142.97
                             2195.81  2274.28  4479.24  4520.75  4550.97
                             4601.46

 Zero-point correction=                           0.132740 (Hartree/Particle)
 Thermal correction to Energy=                    0.149585
 Thermal correction to Enthalpy=                  0.150529
 Thermal correction to Gibbs Free Energy=         0.085508
 Sum of electronic and zero-point Energies=          -1781.438439
 Sum of electronic and thermal Energies=             -1781.421594
 Sum of electronic and thermal Enthalpies=           -1781.420650
 Sum of electronic and thermal Free Energies=        -1781.485671

                     E (Thermal)             CV                S
                      KCal/Mol        Cal/Mol-Kelvin    Cal/Mol-Kelvin
 Total                   93.866             63.092            136.848
 Electronic               0.000              0.000              0.000
 Translational            0.889              2.981             43.147
 Rotational               0.889              2.981             34.544
 Vibrational             92.089             57.131             59.157
 Vibration     1          0.593              1.986              6.834
 Vibration     2          0.593              1.985              6.366
 Vibration     3          0.595              1.979              5.032
 Vibration     4          0.600              1.963              3.919
 Vibration     5          0.601              1.960              3.775
 Vibration     6          0.606              1.941              3.262
 Vibration     7          0.620              1.896              2.599
 Vibration     8          0.621              1.893              2.565
 Vibration     9          0.637              1.841              2.141
 Vibration    10          0.650              1.801              1.908
 Vibration    11          0.660              1.771              1.767
 Vibration    12          0.672              1.735              1.621
 Vibration    13          0.673              1.731              1.604
 Vibration    14          0.703              1.643              1.332
 Vibration    15          0.717              1.604              1.231
 Vibration    16          0.735              1.554              1.120
 Vibration    17          0.746              1.523              1.059
 Vibration    18          0.773              1.451              0.931
 Vibration    19          0.801              1.380              0.822
 Vibration    20          0.823              1.327              0.751
 Vibration    21          0.842              1.282              0.695
 Vibration    22          0.850              1.262              0.672
 Vibration    23          0.853              1.256              0.665
 Vibration    24          0.876              1.203              0.607
 Vibration    25          0.879              1.197              0.601
 Vibration    26          0.893              1.165              0.569
 Vibration    27          0.942              1.064              0.476
 Vibration    28          0.972              1.004              0.428

                           ! Non-Optimized Parameters !
 Normal termination of Gaussian 16 at Sat Jan  6 05:53:31 2024.
