 Q-Chem 5.4, Q-Chem, Inc., Pleasanton, CA (2021)
 Q-Chem 5.4.0 for Intel X86 EM64T Linux

User input:
--------------------------------------------------------------
$molecule
0 1
N                 -2.8408800000      1.5534250000      1.1399060000
C                 -2.4805260000      0.5457070000      0.3189100000
C                 -3.4650460000     -0.1700460000     -0.4130880000
Br                -5.3104030000      0.3179100000     -0.2389950000
C                 -3.1424020000     -1.2053550000     -1.2520990000
C                 -1.8102600000     -1.6130150000     -1.4060980000
Br                -1.5892030000     -3.0645810000     -2.6347080000
C                 -0.7871060000     -0.9567850000     -0.7183040000
C                  0.6453580000     -1.3973420000     -0.8368510000
O                  0.9593740000     -2.4324310000     -1.3956060000
C                  1.6970190000     -0.5316390000     -0.2388470000
C                  3.0423680000     -0.8453940000     -0.4619570000
C                  4.0406770000     -0.0584480000      0.0968880000
C                  3.7040790000      1.0408520000      0.8937130000
C                  2.3708680000      1.3509200000      1.1272530000
C                  1.3601920000      0.5677430000      0.5571410000
C                 -0.0598960000      0.9112380000      0.8201050000
O                 -0.3120560000      1.8444130000      1.5894770000
C                 -1.1195790000      0.1442320000      0.1340420000
H                 -2.1069410000      2.0563440000      1.6249900000
H                 -3.8087720000      1.8225820000      1.2016170000
H                 -3.9206820000     -1.7188970000     -1.7989630000
H                  3.2783770000     -1.7065790000     -1.0740980000
H                  5.0823790000     -0.2987220000     -0.0828030000
H                  4.4852490000      1.6516080000      1.3318430000
H                  2.0878090000      2.1922610000      1.7465310000
$end

$rem
BASIS  =  6-311++G(d,p)
GUI  =  2
JOB_TYPE  =  SP
METHOD  =  B3LYP
SCF_CONVERGENCE  = 8
SOLVENT_METHOD = sm12
$end

$smx
solvent dimethylformamide
charges CM5
$end

--------------------------------------------------------------

             Standard Nuclear Orientation (Angstroms)
    I     Atom           X                Y                Z
 ----------------------------------------------------------------
    1      N      -2.8408800000     1.5534250000     1.1399060000
    2      C      -2.4805260000     0.5457070000     0.3189100000
    3      C      -3.4650460000    -0.1700460000    -0.4130880000
    4      Br     -5.3104030000     0.3179100000    -0.2389950000
    5      C      -3.1424020000    -1.2053550000    -1.2520990000
    6      C      -1.8102600000    -1.6130150000    -1.4060980000
    7      Br     -1.5892030000    -3.0645810000    -2.6347080000
    8      C      -0.7871060000    -0.9567850000    -0.7183040000
    9      C       0.6453580000    -1.3973420000    -0.8368510000
   10      O       0.9593740000    -2.4324310000    -1.3956060000
   11      C       1.6970190000    -0.5316390000    -0.2388470000
   12      C       3.0423680000    -0.8453940000    -0.4619570000
   13      C       4.0406770000    -0.0584480000     0.0968880000
   14      C       3.7040790000     1.0408520000     0.8937130000
   15      C       2.3708680000     1.3509200000     1.1272530000
   16      C       1.3601920000     0.5677430000     0.5571410000
   17      C      -0.0598960000     0.9112380000     0.8201050000
   18      O      -0.3120560000     1.8444130000     1.5894770000
   19      C      -1.1195790000     0.1442320000     0.1340420000
   20      H      -2.1069410000     2.0563440000     1.6249900000
   21      H      -3.8087720000     1.8225820000     1.2016170000
   22      H      -3.9206820000    -1.7188970000    -1.7989630000
   23      H       3.2783770000    -1.7065790000    -1.0740980000
   24      H       5.0823790000    -0.2987220000    -0.0828030000
   25      H       4.4852490000     1.6516080000     1.3318430000
   26      H       2.0878090000     2.1922610000     1.7465310000
 ----------------------------------------------------------------

   15   -5891.4028967099      8.74e-09  Convergence criterion met
 Total energy in the final basis set =    -5891.4240301879

                    Orbital Energies (a.u.)
 --------------------------------------------------------------

 Alpha MOs
 -- Occupied --
********-482.8382 -62.5079 -62.4910 -56.3284 -56.3244 -56.3243 -56.3117
-56.3077 -56.3072 -19.1324 -19.1302 -14.3474 -10.2868 -10.2862 -10.2699
-10.2603 -10.2566 -10.2302 -10.2222 -10.2213 -10.2096 -10.2088 -10.1985
-10.1981 -10.1975 -10.1974  -8.7166  -8.6998  -6.5481  -6.5350  -6.5349
 -6.5318  -6.5185  -6.5172  -2.6590  -2.6553  -2.6551  -2.6447  -2.6447
 -2.6426  -2.6391  -2.6381  -2.6275  -2.6274  -1.0689  -1.0668  -0.9659
 -0.9015  -0.8885  -0.8471  -0.8266  -0.7935  -0.7792  -0.7673  -0.7477
 -0.6950  -0.6707  -0.6556  -0.6178  -0.5954  -0.5872  -0.5577  -0.5469
 -0.5195  -0.5068  -0.4860  -0.4846  -0.4766  -0.4669  -0.4560  -0.4516
 -0.4506  -0.4400  -0.4288  -0.4216  -0.4109  -0.3974  -0.3823  -0.3793
 -0.3693  -0.3677  -0.3396  -0.3193  -0.3123  -0.3085  -0.2879  -0.2859
 -0.2790  -0.2776  -0.2640  -0.2351

          Ground-State Mulliken Net Atomic Charges

     Atom                 Charge (a.u.)
  ----------------------------------------
      1 N                    -0.220221
      2 C                    -0.530816
      3 C                     0.821002
      4 Br                   -0.072181
      5 C                     0.151465
      6 C                    -0.199874
      7 Br                   -0.238249
      8 C                     0.300830
      9 C                    -1.944954
     10 O                    -0.182793
     11 C                    -0.297975
     12 C                     0.121327
     13 C                     0.386865
     14 C                     0.221422
     15 C                     0.150146
     16 C                     0.046151
     17 C                    -0.709926
     18 O                    -0.263705
     19 C                     0.446945
     20 H                     0.344087
     21 H                     0.306550
     22 H                     0.301811
     23 H                     0.200183
     24 H                     0.320765
     25 H                     0.324740
     26 H                     0.216403
  ----------------------------------------
  Sum of atomic charges =     0.000000

                    Cartesian Multipole Moments
 -----------------------------------------------------------------
    Charge (ESU x 10^10)
                 0.0000
    Dipole Moment (Debye)
         X       0.4071      Y       2.7969      Z       1.4532
       Tot       3.1781
    Quadrupole Moments (Debye-Ang)
        XX    -106.8085     XY      -0.0658     YY    -140.6221
        XZ       0.8274     YZ      -1.8307     ZZ    -138.1026

 Total job time:  638.27s(wall), 4967.92s(cpu)
        *  Thank you very much for using Q-Chem.  Have a nice day.  *
