 Q-Chem 5.4, Q-Chem, Inc., Pleasanton, CA (2021)
 Q-Chem 5.4.0 for Intel X86 EM64T Linux

User input:
--------------------------------------------------------------
$molecule
-2 1
C                 -1.8576080000      1.8849000000     -5.1069070000
C                 -1.7106550000      0.5727070000     -5.5087770000
C                 -1.2349340000     -0.3983610000     -4.5859430000
C                 -1.5422560000      2.3148710000     -3.7928940000
C                 -1.0591350000      1.3278550000     -2.8606500000
C                 -0.9207110000     -0.0129060000     -3.2988840000
C                 -1.7370450000      3.7240360000     -3.4629980000
C                 -0.7152790000      1.6702350000     -1.4980570000
C                 -1.3390800000      4.0881260000     -2.1218680000
C                 -0.8989900000      3.0691390000     -1.1666320000
C                 -1.3611760000      5.4294030000     -1.6087870000
C                 -1.1110530000      5.7897260000     -0.2953340000
C                 -0.7941620000      4.7232580000      0.5968540000
C                 -0.6990270000      3.4263730000      0.1840990000
O                 -2.2237330000      4.5331190000     -4.3251490000
O                 -0.3061010000      0.8034200000     -0.6481100000
H                 -2.2220750000      2.6497500000     -5.7851810000
H                 -1.9579890000      0.2809680000     -6.5281350000
H                 -1.1220390000     -1.4365980000     -4.8931130000
H                 -0.5565180000     -0.7259120000     -2.5657330000
Br                -0.7403550000      5.1039380000      2.5527740000
H                 -0.4696250000      2.6153900000      0.8656760000
N                 -1.1076710000      7.1281760000      0.1614290000
Cl                -1.5148250000      6.8332200000     -2.7314370000
H                 -0.9675430000      7.7791140000     -0.6024810000
H                 -0.4362310000      7.2774430000      0.9062250000
$end
$rem
MAX_SCF_CYCLES=200
BASIS  =  6-311++G(d,p)
GUI  =  2
JOB_TYPE  =  SP
METHOD  =  B3LYP
SOLVENT_METHOD = PCM
$end
$pcm
theory = CPCM
$end
$solvent
dielectric 37.219
opticaldielectric 1.43
$end

--------------------------------------------------------------

             Standard Nuclear Orientation (Angstroms)
    I     Atom           X                Y                Z
 ----------------------------------------------------------------
    1      C      -1.8576080000     1.8849000000    -5.1069070000
    2      C      -1.7106550000     0.5727070000    -5.5087770000
    3      C      -1.2349340000    -0.3983610000    -4.5859430000
    4      C      -1.5422560000     2.3148710000    -3.7928940000
    5      C      -1.0591350000     1.3278550000    -2.8606500000
    6      C      -0.9207110000    -0.0129060000    -3.2988840000
    7      C      -1.7370450000     3.7240360000    -3.4629980000
    8      C      -0.7152790000     1.6702350000    -1.4980570000
    9      C      -1.3390800000     4.0881260000    -2.1218680000
   10      C      -0.8989900000     3.0691390000    -1.1666320000
   11      C      -1.3611760000     5.4294030000    -1.6087870000
   12      C      -1.1110530000     5.7897260000    -0.2953340000
   13      C      -0.7941620000     4.7232580000     0.5968540000
   14      C      -0.6990270000     3.4263730000     0.1840990000
   15      O      -2.2237330000     4.5331190000    -4.3251490000
   16      O      -0.3061010000     0.8034200000    -0.6481100000
   17      H      -2.2220750000     2.6497500000    -5.7851810000
   18      H      -1.9579890000     0.2809680000    -6.5281350000
   19      H      -1.1220390000    -1.4365980000    -4.8931130000
   20      H      -0.5565180000    -0.7259120000    -2.5657330000
   21      Br     -0.7403550000     5.1039380000     2.5527740000
   22      H      -0.4696250000     2.6153900000     0.8656760000
   23      N      -1.1076710000     7.1281760000     0.1614290000
   24      Cl     -1.5148250000     6.8332200000    -2.7314370000
   25      H      -0.9675430000     7.7791140000    -0.6024810000
   26      H      -0.4362310000     7.2774430000     0.9062250000
 ----------------------------------------------------------------

   10   -3777.7293796485      6.87e-06  Convergence criterion met
 Total energy in the final basis set =    -3777.7293796485

                    Orbital Energies (a.u.)
 --------------------------------------------------------------

 Alpha MOs
 -- Occupied --
********-101.5363 -62.4757 -56.2960 -56.2923 -56.2923 -19.0313 -19.0207
-14.3112 -10.2155 -10.2142 -10.2133 -10.1848 -10.1829 -10.1652 -10.1571
-10.1531 -10.1525 -10.1504 -10.1491 -10.1484 -10.1430 -10.1423  -9.4510
 -8.6841  -7.2152  -7.2063  -7.2054  -6.5149  -6.5029  -6.5028  -2.6258
 -2.6225  -2.6224  -2.6129  -2.6129  -0.9522  -0.9456  -0.9206  -0.8461
 -0.8311  -0.8261  -0.7827  -0.7472  -0.7271  -0.7179  -0.7048  -0.6417
 -0.6136  -0.5950  -0.5711  -0.5369  -0.5187  -0.5086  -0.4874  -0.4666
 -0.4410  -0.4339  -0.4293  -0.4157  -0.4061  -0.4033  -0.3945  -0.3838
 -0.3742  -0.3728  -0.3665  -0.3441  -0.3387  -0.3308  -0.3252  -0.3229
 -0.3118  -0.3044  -0.3019  -0.2874  -0.2799  -0.2362  -0.2303  -0.2259
 -0.2118  -0.2061  -0.1968  -0.1115

          Ground-State Mulliken Net Atomic Charges

     Atom                 Charge (a.u.)
  ----------------------------------------
      1 C                     0.024833
      2 C                    -0.514021
      3 C                    -0.576510
      4 C                     0.030530
      5 C                     0.246733
      6 C                     0.052736
      7 C                    -1.730612
      8 C                    -0.499384
      9 C                     0.771081
     10 C                     0.692361
     11 C                     1.151890
     12 C                    -1.936074
     13 C                     0.278313
     14 C                     0.111937
     15 O                    -0.577493
     16 O                    -0.643757
     17 H                     0.147890
     18 H                     0.178471
     19 H                     0.175273
     20 H                     0.151548
     21 Br                   -0.226952
     22 H                     0.182468
     23 N                    -0.192392
     24 Cl                    0.183324
     25 H                     0.259080
     26 H                     0.258729
  ----------------------------------------
  Sum of atomic charges =    -2.000000

                    Cartesian Multipole Moments
 -----------------------------------------------------------------
    Charge (ESU x 10^10)
                -9.6064
    Dipole Moment (Debye)
         X      13.5243      Y     -28.9426      Z      21.4597
       Tot      38.4851
    Quadrupole Moments (Debye-Ang)
        XX    -166.0990     XY      58.7331     YY    -261.1882
        XZ     -39.4988     YZ      76.4342     ZZ    -230.1636

 Total job time:  225.63s(wall), 455.45s(cpu)
        *  Thank you very much for using Q-Chem.  Have a nice day.  *
