 Gaussian 16, Revision A.03,
 Gaussian 16:  ES64L-G16RevA.03 25-Dec-2016

 ----------------------------------------------------------------
 #P UB3LYP/6-311++G(d,p) SCRF=(PCM,Solvent=n,n-DiMethylFormamide)
 ----------------------------------------------------------------

 ------------------
 Radical PCM in DMF
 ------------------
 Symbolic Z-matrix:
 Charge = -1 Multiplicity = 2

                         Standard orientation:
 ---------------------------------------------------------------------
 Center     Atomic      Atomic             Coordinates (Angstroms)
 Number     Number       Type             X           Y           Z
 ---------------------------------------------------------------------
      1          6           0       -2.795134    2.558374   -0.851958
      2          8           0       -2.419201    1.699206    0.227804
      3          6           0       -1.233859    1.029122    0.079259
      4          6           0       -1.215235   -0.343567    0.076431
      5         35           0       -2.868572   -1.315062    0.180348
      6          6           0        0.000058   -1.147461   -0.000122
      7          8           0        0.000117   -2.392225   -0.000207
      8          6           0        1.215334   -0.343469   -0.076555
      9          6           0        1.233774    1.029188   -0.079562
     10          8           0        2.418954    1.699608   -0.227896
     11          6           0        2.794661    2.557995    0.852598
     12          6           0       -0.000079    1.802492   -0.000235
     13          8           0       -0.000069    3.063702   -0.000239
     14         35           0        2.868746   -1.314759   -0.180268
     15          1           0       -2.930232    1.975501   -1.771488
     16          1           0       -3.751677    2.997953   -0.563840
     17          1           0       -2.049695    3.340015   -1.003862
     18          1           0        3.751313    2.997743    0.565080
     19          1           0        2.049260    3.339639    1.004720
     20          1           0        2.929404    1.974543    1.771786
 ---------------------------------------------------------------------

 SCF Done:  E(UB3LYP) =  -5757.91556760     A.U. after   18 cycles

 The electronic state is 2-A.
 Alpha  occ. eigenvalues -- -482.82786-482.82785 -62.48055 -62.48054 -56.30087
 Alpha  occ. eigenvalues --  -56.30087 -56.29719 -56.29719 -56.29683 -56.29683
 Alpha  occ. eigenvalues --  -19.14849 -19.14848 -19.09311 -19.09192 -10.24966
 Alpha  occ. eigenvalues --  -10.24004 -10.23996 -10.23922 -10.22359 -10.22358
 Alpha  occ. eigenvalues --  -10.21173 -10.21173  -8.69017  -8.69017  -6.52142
 Alpha  occ. eigenvalues --   -6.52141  -6.50914  -6.50913  -6.50808  -6.50808
 Alpha  occ. eigenvalues --   -2.63239  -2.63238  -2.62905  -2.62904  -2.62825
 Alpha  occ. eigenvalues --   -2.62825  -2.61847  -2.61846  -2.61846  -2.61845
 Alpha  occ. eigenvalues --   -1.07002  -1.06352  -1.02400  -1.00955  -0.85508
 Alpha  occ. eigenvalues --   -0.82026  -0.77797  -0.74169  -0.71534  -0.67509
 Alpha  occ. eigenvalues --   -0.67228  -0.58930  -0.58362  -0.53089  -0.51813
 Alpha  occ. eigenvalues --   -0.48894  -0.47552  -0.46228  -0.45683  -0.44113
 Alpha  occ. eigenvalues --   -0.43276  -0.42854  -0.41896  -0.39486  -0.39006
 Alpha  occ. eigenvalues --   -0.38607  -0.36523  -0.35699  -0.33026  -0.31850
 Alpha  occ. eigenvalues --   -0.30543  -0.30461  -0.28787  -0.28495  -0.27239
 Alpha  occ. eigenvalues --   -0.25811  -0.24735  -0.23617  -0.17442
 Alpha virt. eigenvalues --   -0.02973  -0.01680  -0.00055   0.00152   0.00792
 Alpha virt. eigenvalues --    0.01689   0.01797   0.02675   0.03397   0.03636
 Alpha virt. eigenvalues --    0.04017   0.04243   0.04967   0.06188   0.06266

  Beta  occ. eigenvalues -- -482.82785-482.82784 -62.48054 -62.48053 -56.30089
  Beta  occ. eigenvalues --  -56.30088 -56.29715 -56.29714 -56.29683 -56.29683
  Beta  occ. eigenvalues --  -19.14825 -19.14824 -19.08580 -19.08580 -10.24844
  Beta  occ. eigenvalues --  -10.23885 -10.23882 -10.23750 -10.22259 -10.22258
  Beta  occ. eigenvalues --  -10.21166 -10.21166  -8.69016  -8.69015  -6.52145
  Beta  occ. eigenvalues --   -6.52144  -6.50906  -6.50905  -6.50808  -6.50807
  Beta  occ. eigenvalues --   -2.63240  -2.63239  -2.62902  -2.62901  -2.62827
  Beta  occ. eigenvalues --   -2.62826  -2.61843  -2.61842  -2.61841  -2.61841
  Beta  occ. eigenvalues --   -1.06816  -1.06275  -1.01351  -0.99744  -0.85041
  Beta  occ. eigenvalues --   -0.81911  -0.77549  -0.74045  -0.71200  -0.67117
  Beta  occ. eigenvalues --   -0.66730  -0.58598  -0.57995  -0.52891  -0.51642
  Beta  occ. eigenvalues --   -0.48788  -0.47003  -0.46050  -0.45337  -0.43965
  Beta  occ. eigenvalues --   -0.43054  -0.42170  -0.40558  -0.39101  -0.38517
  Beta  occ. eigenvalues --   -0.36638  -0.36377  -0.35061  -0.32793  -0.30599
  Beta  occ. eigenvalues --   -0.30433  -0.30038  -0.28758  -0.28383  -0.25386
  Beta  occ. eigenvalues --   -0.25069  -0.24190  -0.23071
  Beta virt. eigenvalues --   -0.10391  -0.02832  -0.00567   0.00004   0.00459
  Beta virt. eigenvalues --    0.01102   0.01747   0.02683   0.03461   0.03652
  Beta virt. eigenvalues --    0.03736   0.04210   0.04274   0.05116   0.06221

 Mulliken charges and spin densities:
               1          2
     1  C   -0.280587   0.002991
     2  O   -0.175769   0.000838
     3  C   -0.356736   0.087656
     4  C    0.879427   0.073386
     5  Br  -0.086739   0.004743
     6  C   -0.644220   0.072478
     7  O   -0.383902   0.221860
     8  C    0.880176   0.073391
     9  C   -0.357074   0.087684
    10  O   -0.175743   0.000817
    11  C   -0.280638   0.002997
    12  C   -0.436082   0.097967
    13  O   -0.442124   0.268059
    14  Br  -0.086682   0.004745
    15  H    0.135299   0.000069
    16  H    0.162359   0.000535
    17  H    0.175700  -0.000409
    18  H    0.162379   0.000537
    19  H    0.175678  -0.000410
    20  H    0.135279   0.000064
 Sum of Mulliken charges =  -1.00000   1.00000

 Dipole moment (field-independent basis, Debye):
    X=             -0.0005    Y=              2.5891    Z=              0.0017  Tot=              2.5891
 Quadrupole moment (field-independent basis, Debye-Ang):
   XX=           -118.0184   YY=           -139.2927   ZZ=           -108.3574
   XY=             -0.0048   XZ=              9.0069   YZ=              0.0029

 Normal termination of Gaussian 16 at Sun Jan 21 07:12:46 2024.
