 Gaussian 16, Revision A.03,
 Gaussian 16:  ES64L-G16RevA.03 25-Dec-2016

 ----------------------------------------------------------------
 #P UB3LYP/6-311++G(d,p) SCRF=(PCM,Solvent=n,n-DiMethylFormamide)
 ----------------------------------------------------------------

 -------
 Reduced
 -------
 Symbolic Z-matrix:
 Charge = -2 Multiplicity = 1

                         Standard orientation:
 ---------------------------------------------------------------------
 Center     Atomic      Atomic             Coordinates (Angstroms)
 Number     Number       Type             X           Y           Z
 ---------------------------------------------------------------------
      1          6           0       -1.311231    1.001232   -0.004834
      2          6           0       -2.480648    0.220641   -0.001196
      3          6           0       -2.330447   -1.227317    0.000906
      4          6           0        0.010489    0.486295    0.000992
      5          6           0        0.110914   -0.994310    0.003685
      6          6           0       -1.045747   -1.768285    0.006472
      7          6           0        1.222798    1.300372    0.001418
      8          6           0        2.471764    0.550470    0.000269
      9          6           0        2.554600   -0.889216    0.001513
     10          6           0        1.378125   -1.717728    0.002873
     11          6           0        3.687773    1.282611   -0.002417
     12          6           0        4.920946    0.665933   -0.003427
     13          6           0        4.998638   -0.756185   -0.001330
     14          6           0        3.837880   -1.497709    0.000996
     15          6           0       -3.820099    0.733904    0.014247
     16          6           0       -4.915085   -0.091316    0.008810
     17          6           0       -4.761891   -1.513491   -0.011470
     18          6           0       -3.496543   -2.045563   -0.012863
     19          8           0        1.237856    2.574684    0.001389
     20          8           0        1.430083   -2.997187    0.004033
     21         17           0       -1.589526    2.772028   -0.004342
     22          1           0       -0.902251   -2.844453    0.006047
     23          1           0        3.594368    2.363659   -0.003643
     24          1           0        5.831779    1.261830   -0.005463
     25          1           0        5.968209   -1.250846   -0.001593
     26          1           0        3.857359   -2.582974    0.002453
     27          1           0       -3.960040    1.806595    0.030315
     28          1           0       -5.913413    0.340057    0.017607
     29          1           0       -5.637989   -2.156802   -0.020434
     30          1           0       -3.353012   -3.123561   -0.022718
 ---------------------------------------------------------------------

 SCF Done:  E(UB3LYP) =  -1302.47313104     A.U. after   20 cycles

 The electronic state is 1-A.
 Alpha  occ. eigenvalues -- -101.52837 -19.02480 -19.01737 -10.21618 -10.18213
 Alpha  occ. eigenvalues --  -10.17861 -10.17280 -10.16753 -10.16674 -10.16599
 Alpha  occ. eigenvalues --  -10.16463 -10.16331 -10.15916 -10.15083 -10.15065
 Alpha  occ. eigenvalues --  -10.15017 -10.14850 -10.14773 -10.14609 -10.13771
 Alpha  occ. eigenvalues --  -10.13705  -9.44341  -7.20763  -7.19883  -7.19762
 Alpha  occ. eigenvalues --   -0.94674  -0.94324  -0.87090  -0.83240  -0.82625
 Alpha  occ. eigenvalues --   -0.79986  -0.75252  -0.74659  -0.72399  -0.71437
 Alpha  occ. eigenvalues --   -0.70239  -0.63755  -0.63089  -0.59979  -0.58402
 Alpha  occ. eigenvalues --   -0.56089  -0.53507  -0.52693  -0.50211  -0.48131
 Alpha  occ. eigenvalues --   -0.47526  -0.44582  -0.43232  -0.42881  -0.42684
 Alpha  occ. eigenvalues --   -0.40916  -0.40604  -0.39853  -0.39786  -0.38358
 Alpha  occ. eigenvalues --   -0.37894  -0.36947  -0.36832  -0.35202  -0.34703
 Alpha  occ. eigenvalues --   -0.34433  -0.32902  -0.32356  -0.31840  -0.31622
 Alpha  occ. eigenvalues --   -0.30710  -0.29191  -0.28950  -0.26675  -0.23127
 Alpha  occ. eigenvalues --   -0.22829  -0.22095  -0.20616  -0.20477  -0.19075
 Alpha  occ. eigenvalues --   -0.10324
 Alpha virt. eigenvalues --   -0.05478  -0.00895  -0.00392  -0.00076   0.00448
 Alpha virt. eigenvalues --    0.01214   0.01795   0.02215   0.02809   0.02953
 Alpha virt. eigenvalues --    0.03807   0.04231   0.04703   0.05170   0.05308

  Beta  occ. eigenvalues -- -101.52837 -19.02480 -19.01737 -10.21618 -10.18213
  Beta  occ. eigenvalues --  -10.17861 -10.17280 -10.16753 -10.16674 -10.16599
  Beta  occ. eigenvalues --  -10.16463 -10.16331 -10.15916 -10.15083 -10.15065
  Beta  occ. eigenvalues --  -10.15017 -10.14850 -10.14773 -10.14609 -10.13771
  Beta  occ. eigenvalues --  -10.13705  -9.44341  -7.20763  -7.19883  -7.19762
  Beta  occ. eigenvalues --   -0.94674  -0.94324  -0.87090  -0.83240  -0.82625
  Beta  occ. eigenvalues --   -0.79986  -0.75252  -0.74659  -0.72399  -0.71437
  Beta  occ. eigenvalues --   -0.70239  -0.63755  -0.63089  -0.59979  -0.58402
  Beta  occ. eigenvalues --   -0.56089  -0.53507  -0.52693  -0.50211  -0.48131
  Beta  occ. eigenvalues --   -0.47526  -0.44582  -0.43232  -0.42881  -0.42684
  Beta  occ. eigenvalues --   -0.40916  -0.40604  -0.39853  -0.39786  -0.38358
  Beta  occ. eigenvalues --   -0.37894  -0.36947  -0.36832  -0.35202  -0.34703
  Beta  occ. eigenvalues --   -0.34433  -0.32902  -0.32356  -0.31840  -0.31622
  Beta  occ. eigenvalues --   -0.30710  -0.29191  -0.28950  -0.26675  -0.23127
  Beta  occ. eigenvalues --   -0.22829  -0.22095  -0.20616  -0.20477  -0.19075
  Beta  occ. eigenvalues --   -0.10324
  Beta virt. eigenvalues --   -0.05478  -0.00895  -0.00392  -0.00076   0.00448
  Beta virt. eigenvalues --    0.01214   0.01795   0.02215   0.02809   0.02953
  Beta virt. eigenvalues --    0.03807   0.04231   0.04703   0.05170   0.05308

 Mulliken charges and spin densities:
               1          2
     1  C    0.406051  -0.000000
     2  C    0.387886  -0.000000
     3  C    1.049954   0.000000
     4  C    0.141181  -0.000000
     5  C    0.701758   0.000000
     6  C    0.056524   0.000000
     7  C   -1.868915   0.000000
     8  C   -0.154984   0.000000
     9  C    0.484856  -0.000000
    10  C   -0.645939   0.000000
    11  C    0.065850   0.000000
    12  C   -0.489221   0.000000
    13  C   -0.509692  -0.000000
    14  C    0.067545   0.000000
    15  C   -1.182717  -0.000000
    16  C   -0.683752  -0.000000
    17  C   -0.327703   0.000000
    18  C   -0.254259   0.000000
    19  O   -0.516282  -0.000000
    20  O   -0.614785  -0.000000
    21  Cl   0.488479   0.000000
    22  H    0.119811  -0.000000
    23  H    0.149517  -0.000000
    24  H    0.159654   0.000000
    25  H    0.160624  -0.000000
    26  H    0.143236   0.000000
    27  H    0.155234   0.000000
    28  H    0.184780  -0.000000
    29  H    0.172898  -0.000000
    30  H    0.152411  -0.000000
 Sum of Mulliken charges =  -2.00000   0.00000

 Dipole moment (field-independent basis, Debye):
    X=             -9.1302    Y=             -0.2531    Z=             -0.0099  Tot=              9.1337
 Quadrupole moment (field-independent basis, Debye-Ang):
   XX=           -174.1055   YY=           -190.7134   ZZ=           -142.0816
   XY=              6.9280   XZ=             -0.0587   YZ=              0.1178

 Normal termination of Gaussian 16 at Sun Jan 14 01:29:50 2024.
