 Q-Chem 5.4, Q-Chem, Inc., Pleasanton, CA (2021)
 Q-Chem 5.4.0 for Intel X86 EM64T Linux

User input:
--------------------------------------------------------------
$molecule
0 1
N                 -2.0456860000      2.8801660000     -0.0883530000
C                 -2.0377600000      1.5257130000      0.0522310000
C                 -3.2843700000      0.8427390000      0.1114520000
C                 -3.3532980000     -0.5145160000      0.2213450000
C                 -2.1823080000     -1.3200980000      0.2826760000
N                 -2.3277970000     -2.6719750000      0.3602780000
C                 -0.9243060000     -0.6755520000      0.2407580000
C                  0.2969380000     -1.4800520000      0.3319850000
O                  0.2764240000     -2.7162810000      0.4363400000
C                  1.6064160000     -0.7795680000      0.3015960000
C                  2.7859520000     -1.5301670000      0.3871600000
C                  4.0201980000     -0.8961770000      0.3597670000
C                  4.0910110000      0.4970130000      0.2462290000
C                  2.9271900000      1.2481910000      0.1607870000
C                  1.6773470000      0.6163450000      0.1878950000
C                  0.4453470000      1.4408390000      0.0945480000
O                  0.5503810000      2.6734640000     -0.0017770000
C                 -0.8513590000      0.7593660000      0.1244100000
H                 -1.1543440000      3.3621270000     -0.0616120000
H                 -2.9134610000      3.3831610000     -0.0191680000
H                 -4.1987740000      1.4254220000      0.0607620000
H                 -4.3221100000     -1.0027090000      0.2573050000
H                 -3.2408450000     -3.0667930000      0.5064250000
H                 -1.4893980000     -3.2302810000      0.4737270000
H                  2.7054860000     -2.6062810000      0.4737440000
H                  4.9306050000     -1.4813660000      0.4261940000
H                  5.0562460000      0.9905350000      0.2247070000
H                  2.9562730000      2.3267350000      0.0719150000
$end
$rem
MAX_SCF_CYCLES=200
BASIS  =  6-311++G(d,p)
GUI  =  2
JOB_TYPE  =  SP
METHOD  =  B3LYP
SOLVENT_METHOD = COSMO
$end
$solvent
dielectric 37.219
opticaldielectric 1.43
$end

--------------------------------------------------------------

             Standard Nuclear Orientation (Angstroms)
    I     Atom           X                Y                Z
 ----------------------------------------------------------------
    1      N      -2.2358586212    -2.7886429503     0.0309041168
    2      C      -2.1585748145    -1.4294015556     0.0015842272
    3      C      -3.3686818683    -0.6816782443    -0.0218224286
    4      C      -3.3686274491     0.6817617473    -0.0215734242
    5      C      -2.1584840095     1.4293812304     0.0020780960
    6      N      -2.2358005423     2.7887329895     0.0328269434
    7      C      -0.9347632997     0.7207322982     0.0115655589
    8      C       0.3261154654     1.4671470200     0.0061502363
    9      O       0.3684593500     2.7072150839     0.0028150973
   10      C       1.5987256475     0.7011415621     0.0004125646
   11      C       2.8151933571     1.3955535548    -0.0044380076
   12      C       4.0160042054     0.6997878923    -0.0089473979
   13      C       4.0159934130    -0.6998133029    -0.0084691304
   14      C       2.8151925458    -1.3955869406    -0.0035329829
   15      C       1.5986956514    -0.7011893726     0.0008327303
   16      C       0.3260511660    -1.4671340891     0.0065531901
   17      O       0.3684475516    -2.7072423746     0.0035491545
   18      C      -0.9347494218    -0.7207418706     0.0114697915
   19      H      -1.3689045848    -3.3113488174    -0.0206838930
   20      H      -3.1257110039    -3.2398518169    -0.0931816621
   21      H      -4.3114387840    -1.2195365965    -0.0337144749
   22      H      -4.3113662392     1.2196560603    -0.0332138600
   23      H      -3.1252086320     3.2397569648    -0.0953427596
   24      H      -1.3688675912     3.3112407165    -0.0210440314
   25      H       2.7894462000     2.4778335031    -0.0041146466
   26      H       4.9552115378     1.2416143220    -0.0125976820
   27      H       4.9551909157    -1.2416650495    -0.0117097905
   28      H       2.7894635813    -2.4778708108    -0.0026067755
 ----------------------------------------------------------------

    9    -799.7192144568      5.00e-06  Convergence criterion met
 Total energy in the final basis set =     -799.7192144568
    5    -799.7394634075      6.23e-06  Convergence criterion met
 Total energy in the final basis set =     -799.7394634075

                    Orbital Energies (a.u.)
 --------------------------------------------------------------

 Alpha MOs
 -- Occupied --
-19.1135 -19.1135 -14.3302 -14.3301 -10.2666 -10.2666 -10.2410 -10.2410
-10.1975 -10.1970 -10.1964 -10.1957 -10.1940 -10.1936 -10.1894 -10.1889
-10.1875 -10.1875  -1.0486  -1.0466  -0.9439  -0.9334  -0.8808  -0.8478
 -0.8041  -0.7693  -0.7642  -0.7402  -0.6823  -0.6609  -0.6479  -0.6091
 -0.5868  -0.5705  -0.5634  -0.5367  -0.5213  -0.5006  -0.5005  -0.4818
 -0.4723  -0.4610  -0.4500  -0.4449  -0.4414  -0.4367  -0.4235  -0.4113
 -0.4097  -0.4039  -0.3892  -0.3699  -0.3659  -0.3632  -0.3590  -0.2916
 -0.2805  -0.2764  -0.2708  -0.2684  -0.2654  -0.2006

          Ground-State Mulliken Net Atomic Charges

     Atom                 Charge (a.u.)
  ----------------------------------------
      1 N                    -0.453089
      2 C                    -0.008250
      3 C                    -0.334149
      4 C                    -0.333398
      5 C                    -0.009807
      6 N                    -0.451175
      7 C                     0.495448
      8 C                    -0.321701
      9 O                    -0.379212
     10 C                     0.138914
     11 C                     0.129722
     12 C                    -0.577483
     13 C                    -0.576346
     14 C                     0.129017
     15 C                     0.137981
     16 C                    -0.322669
     17 O                    -0.379298
     18 C                     0.496612
     19 H                     0.347641
     20 H                     0.319793
     21 H                     0.224019
     22 H                     0.224109
     23 H                     0.318914
     24 H                     0.347214
     25 H                     0.201890
     26 H                     0.216666
     27 H                     0.216763
     28 H                     0.201874
  ----------------------------------------
  Sum of atomic charges =     0.000000

                    Cartesian Multipole Moments
 -----------------------------------------------------------------
    Charge (ESU x 10^10)
                 0.0000
    Dipole Moment (Debye)
         X      -5.0905      Y      -0.0033      Z      -0.7166
       Tot       5.1407
    Quadrupole Moments (Debye-Ang)
        XX     -61.8978     XY       0.0162     YY    -102.7884
        XZ       1.9380     YZ      -0.0351     ZZ    -109.5417

 Total job time:  71.32s(wall), 449.93s(cpu)
        *  Thank you very much for using Q-Chem.  Have a nice day.  *
