 Gaussian 16, Revision A.03,
 Gaussian 16:  ES64L-G16RevA.03 25-Dec-2016

 ----------------------------------------------------------------------
 #P UB3LYP/6-311++G(d,p) nosym opt freq SCRF=(PCM,Solvent=n,n-DiMethylF
 ormamide)
 ----------------------------------------------------------------------

 --------
 Oxidized
 --------
 Symbolic Z-matrix:
 Charge =  0 Multiplicity = 1

 SCF Done:  E(UB3LYP) =  -728.488915542     A.U. after   15 cycles
 SCF Done:  E(UB3LYP) =  -728.489074215     A.U. after   11 cycles
 SCF Done:  E(UB3LYP) =  -728.489094083     A.U. after   11 cycles
 SCF Done:  E(UB3LYP) =  -728.489106825     A.U. after   10 cycles
 SCF Done:  E(UB3LYP) =  -728.489108580     A.U. after   10 cycles
 SCF Done:  E(UB3LYP) =  -728.489109159     A.U. after   10 cycles
 SCF Done:  E(UB3LYP) =  -728.489109454     A.U. after    9 cycles
 Optimization completed.
    -- Stationary point found.
 Normal termination of Gaussian 16 at Sun Feb 11 00:26:13 2024.

 ----------------------------------------------------------------------
 #P Geom=AllCheck Guess=TCheck SCRF=Check GenChk UB3LYP/6-311++G(d,p) F
 req
 ----------------------------------------------------------------------

 Structure from the checkpoint file:  "267.chk"
 --------
 Oxidized
 --------
 Charge =  0 Multiplicity = 1

                          Input orientation:
 ---------------------------------------------------------------------
 Center     Atomic      Atomic             Coordinates (Angstroms)
 Number     Number       Type             X           Y           Z
 ---------------------------------------------------------------------
      1          6           0       -1.253291    2.747405   -0.515949
      2          6           0       -2.544195    2.233870   -0.431823
      3          6           0       -2.750468    0.936244    0.040115
      4          6           0       -0.161617    1.965448   -0.127967
      5          6           0       -0.369602    0.658897    0.347127
      6          6           0       -1.666322    0.151755    0.428188
      7          6           0        1.208937    2.529180   -0.224357
      8          6           0        2.354686    1.644073    0.213654
      9          6           0        2.130406    0.383499    0.662732
     10          6           0        0.791528   -0.184046    0.764925
     11          8           0        1.425749    3.655048   -0.635724
     12          8           0        0.624025   -1.328917    1.184392
     13          1           0       -1.078496    3.751933   -0.880069
     14          1           0       -1.812558   -0.856046    0.795774
     15          8           0        3.524819    2.261935    0.100004
     16          1           0       -3.388316    2.842696   -0.733178
     17          1           0       -3.755790    0.536940    0.105259
     18          1           0        2.934529   -0.270936    0.970256
     19          6           0        4.776433    1.591915    0.468287
     20          6           0        5.750971    2.707462    0.805628
     21          6           0        5.243530    0.709375   -0.682223
     22          1           0        4.581356    0.994856    1.362694
     23          1           0        6.706294    2.276890    1.114230
     24          1           0        5.369584    3.322444    1.622900
     25          1           0        5.924313    3.344711   -0.065033
     26          1           0        6.168641    0.202233   -0.398031
     27          1           0        5.440950    1.316671   -1.569008
     28          1           0        4.506112   -0.053219   -0.938453
 ---------------------------------------------------------------------

 SCF Done:  E(UB3LYP) =  -728.489109454     A.U. after    2 cycles

 Alpha  occ. eigenvalues --  -19.18380 -19.14274 -19.12658 -10.29242 -10.28043
 Alpha  occ. eigenvalues --  -10.27735 -10.24869 -10.21107 -10.20963 -10.20098
 Alpha  occ. eigenvalues --  -10.20021 -10.19883 -10.19865 -10.19581 -10.17119
 Alpha  occ. eigenvalues --  -10.16953  -1.10619  -1.06967  -1.05672  -0.89234
 Alpha  occ. eigenvalues --   -0.84086  -0.80686  -0.78056  -0.77069  -0.70555
 Alpha  occ. eigenvalues --   -0.70262  -0.65666  -0.65224  -0.60332  -0.59494
 Alpha  occ. eigenvalues --   -0.55398  -0.54839  -0.52766  -0.49871  -0.48367
 Alpha  occ. eigenvalues --   -0.47391  -0.46825  -0.45816  -0.45345  -0.45145
 Alpha  occ. eigenvalues --   -0.43914  -0.43695  -0.41979  -0.40995  -0.40255
 Alpha  occ. eigenvalues --   -0.39637  -0.38744  -0.38006  -0.37613  -0.37073
 Alpha  occ. eigenvalues --   -0.35384  -0.34643  -0.29189  -0.28932  -0.28049
 Alpha  occ. eigenvalues --   -0.27907  -0.26479
 Alpha virt. eigenvalues --   -0.12391  -0.05756  -0.02812  -0.00773   0.00009
 Alpha virt. eigenvalues --    0.01004   0.01550   0.01801   0.02009   0.02400
 Alpha virt. eigenvalues --    0.03657   0.03751   0.04107   0.04580   0.04714

  Beta  occ. eigenvalues --  -19.18380 -19.14274 -19.12658 -10.29242 -10.28043
  Beta  occ. eigenvalues --  -10.27735 -10.24869 -10.21107 -10.20963 -10.20098
  Beta  occ. eigenvalues --  -10.20021 -10.19883 -10.19865 -10.19581 -10.17119
  Beta  occ. eigenvalues --  -10.16953  -1.10619  -1.06967  -1.05672  -0.89234
  Beta  occ. eigenvalues --   -0.84086  -0.80686  -0.78056  -0.77069  -0.70555
  Beta  occ. eigenvalues --   -0.70262  -0.65666  -0.65224  -0.60332  -0.59494
  Beta  occ. eigenvalues --   -0.55398  -0.54839  -0.52766  -0.49871  -0.48367
  Beta  occ. eigenvalues --   -0.47391  -0.46825  -0.45816  -0.45345  -0.45145
  Beta  occ. eigenvalues --   -0.43914  -0.43695  -0.41979  -0.40995  -0.40255
  Beta  occ. eigenvalues --   -0.39637  -0.38744  -0.38006  -0.37613  -0.37073
  Beta  occ. eigenvalues --   -0.35384  -0.34643  -0.29189  -0.28932  -0.28049
  Beta  occ. eigenvalues --   -0.27907  -0.26479
  Beta virt. eigenvalues --   -0.12391  -0.05756  -0.02812  -0.00773   0.00009
  Beta virt. eigenvalues --    0.01004   0.01550   0.01801   0.02009   0.02400
  Beta virt. eigenvalues --    0.03657   0.03751   0.04107   0.04580   0.04714

 Mulliken charges and spin densities:
               1          2
     1  C    0.287941  -0.000000
     2  C   -0.411504  -0.000000
     3  C   -0.324954   0.000000
     4  C    0.093759  -0.000000
     5  C    0.557640   0.000000
     6  C    0.216319  -0.000000
     7  C   -0.401168  -0.000000
     8  C   -0.402657   0.000000
     9  C   -0.019631   0.000000
    10  C   -0.256126   0.000000
    11  O   -0.277921  -0.000000
    12  O   -0.316243  -0.000000
    13  H    0.184185   0.000000
    14  H    0.179262  -0.000000
    15  O    0.007637   0.000000
    16  H    0.208076  -0.000000
    17  H    0.210661   0.000000
    18  H    0.259956   0.000000
    19  C   -0.042036   0.000000
    20  C   -0.490262  -0.000000
    21  C   -0.400141   0.000000
    22  H    0.158977   0.000000
    23  H    0.171862   0.000000
    24  H    0.163086  -0.000000
    25  H    0.157136  -0.000000
    26  H    0.165046  -0.000000
    27  H    0.176542   0.000000
    28  H    0.144559  -0.000000
 Sum of Mulliken charges =   0.00000   0.00000

 Dipole moment (field-independent basis, Debye):
    X=              0.8759    Y=              0.1840    Z=             -0.0812  Tot=              0.8987
 Quadrupole moment (field-independent basis, Debye-Ang):
   XX=            -57.4307   YY=           -111.0588   ZZ=            -96.2887
   XY=             -5.3872   XZ=              5.3546   YZ=              5.9785

  Exact polarizability: 287.463  22.660 254.304   3.860 -44.776 143.992
 Approx polarizability: 301.137  34.483 332.211  -0.122 -68.111 169.952

                      1                      2                      3
                      A                      A                      A
 Frequencies --     33.6914                61.0155                80.8607
 Red. masses --      5.2987                 2.8518                 5.7014
 Frc consts  --      0.0035                 0.0063                 0.0220
 IR Inten    --      7.8991                 0.9403                 3.2977

                      4                      5                      6
                      A                      A                      A
 Frequencies --    114.0279               117.9470               163.2388
 Red. masses --      4.6366                 3.7361                 6.6555
 Frc consts  --      0.0355                 0.0306                 0.1045
 IR Inten    --      0.1234                 3.2099                 5.3505

                      7                      8                      9
                      A                      A                      A
 Frequencies --    199.2915               206.1654               238.7567
 Red. masses --      4.8235                 1.0312                 1.7232
 Frc consts  --      0.1129                 0.0258                 0.0579
 IR Inten    --      0.8083                 0.1644                 2.0106

                     10                     11                     12
                      A                      A                      A
 Frequencies --    246.6773               272.5892               345.5779
 Red. masses --      1.8947                 4.5904                 3.8061
 Frc consts  --      0.0679                 0.2010                 0.2678
 IR Inten    --      2.3082                 0.4113                 1.8329

                     13                     14                     15
                      A                      A                      A
 Frequencies --    379.5361               395.0766               404.3741
 Red. masses --      9.1668                 2.9416                 3.4106
 Frc consts  --      0.7780                 0.2705                 0.3286
 IR Inten    --     28.3514                 8.6838                 1.2944

                     16                     17                     18
                      A                      A                      A
 Frequencies --    438.3830               457.8442               466.1808
 Red. masses --      3.8031                 8.7475                 4.7744
 Frc consts  --      0.4306                 1.0804                 0.6113
 IR Inten    --      2.5315                 9.9084                10.1325

                     19                     20                     21
                      A                      A                      A
 Frequencies --    476.3352               510.4072               570.0856
 Red. masses --      4.3701                 3.7500                 6.1293
 Frc consts  --      0.5842                 0.5756                 1.1737
 IR Inten    --      2.2115                13.0996                 6.9449

                     22                     23                     24
                      A                      A                      A
 Frequencies --    660.6139               680.2014               705.0539
 Red. masses --      5.9058                 3.8931                 6.2817
 Frc consts  --      1.5185                 1.0613                 1.8398
 IR Inten    --      2.6308                 4.7026                11.9988

                     25                     26                     27
                      A                      A                      A
 Frequencies --    713.2282               736.9029               780.1057
 Red. masses --      6.3892                 2.7010                 2.4500
 Frc consts  --      1.9149                 0.8642                 0.8785
 IR Inten    --      3.7937                49.1109                42.1183

                     28                     29                     30
                      A                      A                      A
 Frequencies --    807.7311               812.7764               846.7397
 Red. masses --      4.1148                 2.8518                 3.2650
 Frc consts  --      1.5817                 1.1100                 1.3792
 IR Inten    --     19.0098                33.1902                 5.7579

                     31                     32                     33
                      A                      A                      A
 Frequencies --    863.9676               902.3654               912.3621
 Red. masses --      1.5840                 2.7783                 1.3612
 Frc consts  --      0.6966                 1.3329                 0.6676
 IR Inten    --     40.8208                14.1839                 0.0602

                     34                     35                     36
                      A                      A                      A
 Frequencies --    943.2257               951.7989               999.8151
 Red. masses --      1.3279                 1.2987                 1.3874
 Frc consts  --      0.6960                 0.6932                 0.8171
 IR Inten    --      0.9159                 1.5073                 1.7052

                     37                     38                     39
                      A                      A                      A
 Frequencies --   1008.3905              1023.2138              1056.6406
 Red. masses --      6.8467                 1.3319                 2.1271
 Frc consts  --      4.1020                 0.8216                 1.3992
 IR Inten    --    285.9798                 0.0580                 7.5243

                     40                     41                     42
                      A                      A                      A
 Frequencies --   1101.4785              1117.0712              1139.6279
 Red. masses --      2.8724                 1.7847                 1.8381
 Frc consts  --      2.0533                 1.3121                 1.4065
 IR Inten    --     31.5661               216.7247                27.5013

                     43                     44                     45
                      A                      A                      A
 Frequencies --   1155.1460              1180.5655              1197.8646
 Red. masses --      2.0764                 1.1271                 1.9155
 Frc consts  --      1.6325                 0.9256                 1.6194
 IR Inten    --     18.1579                29.4275                28.7563

                     46                     47                     48
                      A                      A                      A
 Frequencies --   1229.8350              1258.6257              1285.5529
 Red. masses --      2.8923                 2.4334                 2.0374
 Frc consts  --      2.5774                 2.2712                 1.9838
 IR Inten    --    421.0885               702.1809                43.7890

                     49                     50                     51
                      A                      A                      A
 Frequencies --   1325.4431              1353.4264              1362.8107
 Red. masses --      4.7301                 1.6203                 4.4201
 Frc consts  --      4.8960                 1.7487                 4.8368
 IR Inten    --    152.3471                40.3369                31.0292

                     52                     53                     54
                      A                      A                      A
 Frequencies --   1371.7416              1388.7085              1404.7679
 Red. masses --      1.8356                 1.3834                 1.3521
 Frc consts  --      2.0351                 1.5718                 1.5720
 IR Inten    --     37.6833                 5.3915                20.3509

                     55                     56                     57
                      A                      A                      A
 Frequencies --   1416.4726              1474.3008              1478.2528
 Red. masses --      1.2470                 1.0484                 1.0453
 Frc consts  --      1.4741                 1.3426                 1.3458
 IR Inten    --     11.2517                 3.4894                 0.9049

                     58                     59                     60
                      A                      A                      A
 Frequencies --   1481.7723              1485.1842              1499.3950
 Red. masses --      2.3453                 1.0584                 1.0781
 Frc consts  --      3.0340                 1.3756                 1.4281
 IR Inten    --      1.4122                 8.9711                21.7895

                     61                     62                     63
                      A                      A                      A
 Frequencies --   1504.2604              1604.5438              1620.3119
 Red. masses --      2.5433                 6.4098                 6.0371
 Frc consts  --      3.3907                 9.7230                 9.3384
 IR Inten    --     24.2201               377.9321               225.9816

                     64                     65                     66
                      A                      A                      A
 Frequencies --   1631.9048              1668.8839              1718.9367
 Red. masses --      7.9408                10.6634                12.5414
 Frc consts  --     12.4596                17.4983                21.8332
 IR Inten    --    590.4896               457.7856               407.6479

                     67                     68                     69
                      A                      A                      A
 Frequencies --   3036.0513              3040.0082              3057.3296
 Red. masses --      1.0348                 1.0360                 1.0850
 Frc consts  --      5.6200                 5.6411                 5.9751
 IR Inten    --     21.2147                19.0232                12.2691

                     70                     71                     72
                      A                      A                      A
 Frequencies --   3103.9953              3111.1166              3112.4030
 Red. masses --      1.1028                 1.1016                 1.1026
 Frc consts  --      6.2604                 6.2823                 6.2932
 IR Inten    --      0.5812                62.1673                25.8336

                     73                     74                     75
                      A                      A                      A
 Frequencies --   3113.3890              3179.0283              3191.0892
 Red. masses --      1.1028                 1.0874                 1.0911
 Frc consts  --      6.2980                 6.4749                 6.5464
 IR Inten    --     41.4204                 3.1287                 9.0437

                     76                     77                     78
                      A                      A                      A
 Frequencies --   3202.2963              3205.5586              3209.4825
 Red. masses --      1.0926                 1.0958                 1.0910
 Frc consts  --      6.6013                 6.6343                 6.6210
 IR Inten    --      3.8789                17.9979                 3.9194

 - Thermochemistry -
 -------------------
 Temperature   298.150 Kelvin.  Pressure   1.00000 Atm.
 Atom     1 has atomic number  6 and mass  12.00000

 Molecular mass:   216.07864 amu.
 Principal axes and moments of inertia in atomic units:
                           1         2         3
     Eigenvalues --  1610.924645517.851936847.80682
           X            0.99516  -0.08217  -0.05381
           Y            0.09465   0.94870   0.30169
           Z            0.02626  -0.30533   0.95189
 This molecule is an asymmetric top.
 Rotational symmetry number  1.
 Warning -- assumption of classical behavior for rotation
           may cause significant error
 Rotational temperatures (Kelvin)      0.05377     0.01570     0.01265
 Rotational constants (GHZ):           1.12031     0.32707     0.26355
 Zero-point vibrational energy     577807.2 (Joules/Mol)
                                  138.09925 (Kcal/Mol)
 Warning -- explicit consideration of  21 degrees of freedom as
           vibrations may cause significant error
 Vibrational temperatures:     48.47    87.79   116.34   164.06   169.70
          (Kelvin)            234.86   286.74   296.63   343.52   354.91
                              392.20   497.21   546.07   568.43   581.80
                              630.74   658.74   670.73   685.34   734.36
                              820.23   950.48   978.66  1014.42  1026.18
                             1060.24  1122.40  1162.14  1169.40  1218.27
                             1243.06  1298.30  1312.69  1357.09  1369.43
                             1438.51  1450.85  1472.18  1520.27  1584.78
                             1607.22  1639.67  1662.00  1698.57  1723.46
                             1769.46  1810.88  1849.62  1907.02  1947.28
                             1960.78  1973.63  1998.04  2021.15  2037.99
                             2121.19  2126.88  2131.94  2136.85  2157.30
                             2164.30  2308.58  2331.27  2347.95  2401.15
                             2473.17  4368.20  4373.89  4398.82  4465.96
                             4476.20  4478.05  4479.47  4573.91  4591.27
                             4607.39  4612.08  4617.73

 Zero-point correction=                           0.220075 (Hartree/Particle)
 Thermal correction to Energy=                    0.234214
 Thermal correction to Enthalpy=                  0.235158
 Thermal correction to Gibbs Free Energy=         0.178639
 Sum of electronic and zero-point Energies=           -728.269034
 Sum of electronic and thermal Energies=              -728.254896
 Sum of electronic and thermal Enthalpies=            -728.253951
 Sum of electronic and thermal Free Energies=         -728.310471

                     E (Thermal)             CV                S
                      KCal/Mol        Cal/Mol-Kelvin    Cal/Mol-Kelvin
 Total                  146.971             54.285            118.955
 Electronic               0.000              0.000              0.000
 Translational            0.889              2.981             42.015
 Rotational               0.889              2.981             32.476
 Vibrational            145.194             48.324             44.465
 Vibration     1          0.594              1.983              5.599
 Vibration     2          0.597              1.973              4.424
 Vibration     3          0.600              1.962              3.870
 Vibration     4          0.607              1.938              3.199
 Vibration     5          0.608              1.934              3.134
 Vibration     6          0.623              1.888              2.512
 Vibration     7          0.637              1.841              2.140
 Vibration     8          0.641              1.831              2.077
 Vibration     9          0.657              1.781              1.812
 Vibration    10          0.661              1.768              1.754
 Vibration    11          0.676              1.724              1.580
 Vibration    12          0.724              1.584              1.186
 Vibration    13          0.750              1.514              1.041
 Vibration    14          0.762              1.481              0.981
 Vibration    15          0.770              1.461              0.947
 Vibration    16          0.799              1.386              0.832
 Vibration    17          0.816              1.344              0.772
 Vibration    18          0.824              1.325              0.748
 Vibration    19          0.833              1.303              0.720
 Vibration    20          0.866              1.227              0.633
 Vibration    21          0.926              1.096              0.504

 Optimization completed.
    -- Stationary point found.
 Normal termination of Gaussian 16 at Sun Feb 11 00:55:24 2024.
