 Gaussian 16, Revision A.03,
 Gaussian 16:  ES64L-G16RevA.03 25-Dec-2016

 ----------------------------------------------------------------
 #P UB3LYP/6-311++G(d,p) SCRF=(PCM,Solvent=n,n-DiMethylFormamide)
 ----------------------------------------------------------------

 ------------------
 Radical PCM in DMF
 ------------------
 Symbolic Z-matrix:
 Charge = -1 Multiplicity = 2

                         Standard orientation:
 ---------------------------------------------------------------------
 Center     Atomic      Atomic             Coordinates (Angstroms)
 Number     Number       Type             X           Y           Z
 ---------------------------------------------------------------------
      1          6           0      -13.426674    3.627973    0.493456
      2          6           0      -13.639208    4.386674   -0.643915
      3          6           0      -13.242040    3.893123   -1.902381
      4          6           0      -12.815554    2.360508    0.417060
      5          6           0      -12.416312    1.864501   -0.849462
      6          6           0      -12.640241    2.650887   -1.996924
      7          6           0      -12.601555    1.577721    1.644200
      8          6           0      -11.963835    0.284335    1.489997
      9          6           0      -11.586645   -0.203806    0.244146
     10          6           0      -11.775617    0.548215   -0.977208
     11          8           0      -12.961352    2.026216    2.768265
     12          8           0      -11.411159    0.103112   -2.102260
     13          1           0      -14.111411    5.362003   -0.568019
     14          1           0      -13.408493    4.487935   -2.795956
     15          6           0      -11.736092   -0.509557    2.754358
     16          1           0      -13.721564    3.981825    1.474726
     17          1           0      -12.322995    2.244939   -2.950755
     18          1           0      -12.351585   -1.418591    2.781047
     19          1           0      -12.007292    0.104407    3.613432
     20          1           0      -10.691788   -0.823601    2.853422
     21          6           0      -10.931898   -1.565863    0.081898
     22          6           0       -9.426234   -1.481924    0.103323
     23          6           0       -8.545528   -2.197549    0.817920
     24          6           0       -7.059132   -1.939609    0.669277
     25          6           0       -6.282651   -3.086694   -0.027720
     26          6           0       -4.805517   -2.820131   -0.098323
     27          6           0       -4.036539   -2.603642   -1.175337
     28          6           0       -8.920235   -3.282929    1.799599
     29          6           0       -2.556862   -2.319582   -1.008869
     30          6           0       -2.146444   -0.866951   -1.360158
     31          6           0       -0.666362   -0.643888   -1.222483
     32          6           0       -0.010979    0.173212   -0.385465
     33          6           0       -4.538605   -2.621453   -2.598894
     34          6           0       -0.678904    1.092890    0.607791
     35          6           0        1.503805    0.225911   -0.405884
     36          6           0        2.176927   -0.372718    0.855216
     37          6           0        3.674428   -0.246528    0.816015
     38          6           0        4.601116   -1.214288    0.768408
     39          6           0        4.293596   -2.692130    0.774155
     40          6           0        6.072866   -0.855410    0.716389
     41          6           0        6.757580   -1.175621   -0.636468
     42          6           0        8.226161   -0.853888   -0.621395
     43          6           0        8.896871    0.055421   -1.343092
     44          6           0        8.269564    0.953672   -2.381359
     45          6           0       10.390711    0.226175   -1.151282
     46          6           0       10.796180    1.563462   -0.481427
     47          6           0       12.287751    1.712529   -0.364741
     48          6           0       13.042717    1.790733    0.740427
     49          6           0       12.500299    1.769159    2.148859
     50          6           0       14.548007    1.924781    0.624489
     51          6           0       15.335407    0.672928    1.086739
     52          6           0       16.823282    0.874642    1.007929
     53          6           0       17.716931    0.231149    0.244854
     54          6           0       17.386680   -0.880821   -0.719041
     55          6           0       19.182946    0.587404    0.303196
     56          1           0      -11.224894   -1.942981   -0.904772
     57          1           0      -11.302750   -2.265484    0.833097
     58          1           0       -9.031013   -0.725153   -0.571626
     59          1           0       -6.612514   -1.772579    1.660538
     60          1           0       -6.904386   -1.020059    0.097716
     61          1           0       -6.713956   -3.245093   -1.018571
     62          1           0       -6.442702   -4.016058    0.533046
     63          1           0       -4.311378   -2.777174    0.873405
     64          1           0       -9.995255   -3.336745    1.969118
     65          1           0       -8.435716   -3.111861    2.769506
     66          1           0       -8.592235   -4.271862    1.455692
     67          1           0       -1.978464   -3.006036   -1.643469
     68          1           0       -2.259064   -2.523149    0.024098
     69          1           0       -2.719641   -0.180774   -0.733322
     70          1           0       -2.436889   -0.655184   -2.396302
     71          1           0       -0.057969   -1.248548   -1.896415
     72          1           0       -5.592931   -2.884667   -2.671969
     73          1           0       -3.967166   -3.341302   -3.198081
     74          1           0       -4.412505   -1.644645   -3.078441
     75          1           0       -1.766214    1.055477    0.557293
     76          1           0       -0.370333    2.130822    0.434145
     77          1           0       -0.388471    0.848488    1.635356
     78          1           0        1.830555    1.269744   -0.510905
     79          1           0        1.877653   -0.308137   -1.284462
     80          1           0        1.861129   -1.412994    0.959728
     81          1           0        1.805390    0.154581    1.742148
     82          1           0        4.036569    0.782173    0.813865
     83          1           0        3.228335   -2.904455    0.856729
     84          1           0        4.800688   -3.184100    1.612887
     85          1           0        4.656574   -3.177651   -0.138184
     86          1           0        6.607042   -1.393612    1.511556
     87          1           0        6.197603    0.211368    0.923731
     88          1           0        6.233990   -0.637422   -1.429570
     89          1           0        6.636312   -2.243714   -0.854273
     90          1           0        8.806012   -1.443333    0.089688
     91          1           0        7.203975    0.770960   -2.514940
     92          1           0        8.759153    0.813583   -3.352510
     93          1           0        8.392530    2.010074   -2.119667
     94          1           0       10.892377    0.160348   -2.126512
     95          1           0       10.779107   -0.596964   -0.544507
     96          1           0       10.305851    1.629863    0.492217
     97          1           0       10.408169    2.395663   -1.081272
     98          1           0       12.809658    1.749751   -1.321515
     99          1           0       11.413147    1.709843    2.186236
    100          1           0       12.806352    2.673145    2.688771
    101          1           0       12.896734    0.919038    2.714279
    102          1           0       14.883045    2.784939    1.220178
    103          1           0       14.818351    2.140361   -0.413248
    104          1           0       15.012884   -0.184418    0.491701
    105          1           0       15.068396    0.445620    2.126011
    106          1           0       17.204572    1.663180    1.657169
    107          1           0       16.322748   -1.110794   -0.765101
    108          1           0       17.918555   -1.799265   -0.443092
    109          1           0       17.719694   -0.621624   -1.730984
    110          1           0       19.376583    1.395122    1.011986
    111          1           0       19.550575    0.901082   -0.681294
    112          1           0       19.786375   -0.279051    0.599952
 ---------------------------------------------------------------------

 SCF Done:  E(UB3LYP) =  -1942.48298689     A.U. after   18 cycles

 Alpha  occ. eigenvalues --   -0.24610  -0.24260  -0.24123  -0.23719  -0.23473
 Alpha  occ. eigenvalues --   -0.23014  -0.22586  -0.22278  -0.14743
 Alpha virt. eigenvalues --   -0.03050  -0.01269  -0.00942  -0.00783  -0.00558
 Alpha virt. eigenvalues --   -0.00189   0.00108   0.00182   0.00225   0.00319
 Alpha virt. eigenvalues --    0.00421   0.00518   0.00602   0.00718   0.00922

  Beta  occ. eigenvalues --  -19.06492 -19.06476 -10.21388 -10.21335 -10.17659
  Beta  occ. eigenvalues --  -10.17491 -10.17489 -10.17476 -10.17444 -10.17388
  Beta  occ. eigenvalues --  -10.17059 -10.17014 -10.17010 -10.16830 -10.16785
  Beta  occ. eigenvalues --  -10.16769 -10.16761 -10.16760 -10.16740 -10.16727
  Beta  occ. eigenvalues --  -10.16719 -10.16717 -10.16710 -10.16709 -10.16697
  Beta  occ. eigenvalues --  -10.16694 -10.16662 -10.16588 -10.16496 -10.16483
  Beta  occ. eigenvalues --  -10.16266 -10.16136 -10.16108 -10.16099 -10.16092
  Beta  occ. eigenvalues --  -10.16074 -10.16072 -10.16067 -10.16057 -10.16045
  Beta  occ. eigenvalues --  -10.16043 -10.16030 -10.16002 -10.16001 -10.15963
  Beta  occ. eigenvalues --  -10.15902 -10.15775 -10.15056  -0.98556  -0.98267
  Beta  occ. eigenvalues --   -0.85284  -0.83199  -0.82959  -0.82622  -0.82210
  Beta  occ. eigenvalues --   -0.81724  -0.81149  -0.80572  -0.80145  -0.77600
  Beta  occ. eigenvalues --   -0.76721  -0.75817  -0.75088  -0.74526  -0.74239
  Beta  occ. eigenvalues --   -0.73312  -0.72540  -0.72062  -0.69190  -0.68862
  Beta  occ. eigenvalues --   -0.68756  -0.68612  -0.68527  -0.68251  -0.67724
  Beta  occ. eigenvalues --   -0.67003  -0.65522  -0.64486  -0.63831  -0.62545
  Beta  occ. eigenvalues --   -0.61226  -0.60100  -0.59437  -0.58945  -0.58443
  Beta  occ. eigenvalues --   -0.57656  -0.54669  -0.52327  -0.52212  -0.52031
  Beta  occ. eigenvalues --   -0.51815  -0.51608  -0.51371  -0.51199  -0.50471
  Beta  occ. eigenvalues --   -0.48640  -0.47934  -0.47894  -0.47758  -0.47663
  Beta  occ. eigenvalues --   -0.47257  -0.46646  -0.46356  -0.45934  -0.44742
  Beta  occ. eigenvalues --   -0.44521  -0.44391  -0.44130  -0.43739  -0.43439
  Beta  occ. eigenvalues --   -0.43270  -0.43076  -0.42786  -0.42196  -0.41855
  Beta  occ. eigenvalues --   -0.41763  -0.41649  -0.41591  -0.41299  -0.41150
  Beta  occ. eigenvalues --   -0.40960  -0.40772  -0.40344  -0.40282  -0.40249
  Beta  occ. eigenvalues --   -0.40193  -0.39890  -0.39445  -0.39184  -0.38908
  Beta  occ. eigenvalues --   -0.38540  -0.38448  -0.37669  -0.37394  -0.37320
  Beta  occ. eigenvalues --   -0.37315  -0.37303  -0.37188  -0.37056  -0.37023
  Beta  occ. eigenvalues --   -0.36930  -0.36701  -0.36528  -0.36461  -0.36195
  Beta  occ. eigenvalues --   -0.36089  -0.35814  -0.35754  -0.35562  -0.35330
  Beta  occ. eigenvalues --   -0.34716  -0.34290  -0.33932  -0.33763  -0.33555
  Beta  occ. eigenvalues --   -0.33518  -0.33399  -0.33143  -0.32993  -0.32928
  Beta  occ. eigenvalues --   -0.32834  -0.32689  -0.32541  -0.31895  -0.31301
  Beta  occ. eigenvalues --   -0.30928  -0.25270  -0.24996  -0.24768  -0.24604
  Beta  occ. eigenvalues --   -0.24319  -0.24035  -0.23687  -0.23461  -0.22924
  Beta  occ. eigenvalues --   -0.22669  -0.22493  -0.22077
  Beta virt. eigenvalues --   -0.08166  -0.02339  -0.00948  -0.00821  -0.00581
  Beta virt. eigenvalues --   -0.00192  -0.00133   0.00109   0.00184   0.00233
  Beta virt. eigenvalues --    0.00324   0.00424   0.00520   0.00603   0.00723

 Mulliken charges and spin densities:
               1          2
     1  C    0.141887   0.029306
     2  C   -0.497971   0.025530
     3  C   -0.429632   0.026985
     4  C   -0.139676   0.003041
     5  C    0.183767   0.015933
     6  C    0.027682   0.029303
     7  C   -0.758380   0.106251
     8  C    0.724051   0.103007
     9  C    0.823337   0.091131
    10  C   -0.875717   0.101896
    11  O   -0.478291   0.227821
    12  O   -0.454615   0.223152
    13  H    0.174843  -0.002185
    14  H    0.179415  -0.002198
    15  C   -0.495398  -0.001265
    16  H    0.167898  -0.002332
    17  H    0.165640  -0.002322
    18  H    0.175504   0.006425
    19  H    0.176773  -0.001889
    20  H    0.166455   0.004646
    21  C   -0.027366   0.012059
    22  C   -0.768031   0.003633
    23  C    0.961464   0.002974
    24  C   -0.757679  -0.001365
    25  C   -0.271635   0.000201
    26  C   -0.398088   0.000257
    27  C    0.642438  -0.000171
    28  C   -0.783058  -0.002695
    29  C   -0.528397   0.000136
    30  C   -0.234417  -0.000023
    31  C   -0.335471   0.000007
    32  C    0.480148   0.000007
    33  C   -0.697729  -0.000028
    34  C   -0.724179   0.000001
    35  C   -0.393907   0.000001
    36  C   -0.278980  -0.000001
    37  C   -0.314756   0.000000
    38  C    0.506781   0.000000
    39  C   -0.716046   0.000000
    40  C   -0.437593   0.000000
    41  C   -0.255333  -0.000000
    42  C   -0.409222   0.000000
    43  C    0.539098   0.000000
    44  C   -0.711885  -0.000000
    45  C   -0.387767  -0.000000
    46  C   -0.199886  -0.000000
    47  C   -0.211456  -0.000000
    48  C    0.458593   0.000000
    49  C   -0.751666   0.000000
    50  C   -0.577554  -0.000000
    51  C   -0.256487   0.000000
    52  C    0.038273  -0.000000
    53  C    0.276259   0.000000
    54  C   -0.685002  -0.000000
    55  C   -0.623435  -0.000000
    56  H    0.209392   0.003041
    57  H    0.178268  -0.000163
    58  H    0.225118  -0.000465
    59  H    0.152931   0.000327
    60  H    0.131242  -0.000422
    61  H    0.152972   0.000104
    62  H    0.134337   0.000247
    63  H    0.182944  -0.000032
    64  H    0.107207   0.000257
    65  H    0.170749   0.000116
    66  H    0.170963  -0.000204
    67  H    0.137101   0.000000
    68  H    0.178807   0.000000
    69  H    0.146827   0.000012
    70  H    0.126952   0.000001
    71  H    0.193203  -0.000000
    72  H    0.124848  -0.000041
    73  H    0.160590   0.000001
    74  H    0.169429  -0.000002
    75  H    0.132063  -0.000003
    76  H    0.162322   0.000000
    77  H    0.168589   0.000000
    78  H    0.139470   0.000000
    79  H    0.172673   0.000000
    80  H    0.136091  -0.000000
    81  H    0.128548  -0.000000
    82  H    0.192602  -0.000000
    83  H    0.131211   0.000000
    84  H    0.161919   0.000000
    85  H    0.169103   0.000000
    86  H    0.141043   0.000000
    87  H    0.169192   0.000000
    88  H    0.132306  -0.000000
    89  H    0.128922   0.000000
    90  H    0.186772   0.000000
    91  H    0.132760   0.000000
    92  H    0.162436   0.000000
    93  H    0.168416   0.000000
    94  H    0.134771   0.000000
    95  H    0.177721  -0.000000
    96  H    0.139980  -0.000000
    97  H    0.124641   0.000000
    98  H    0.206319   0.000000
    99  H    0.129612  -0.000000
   100  H    0.163460   0.000000
   101  H    0.170725  -0.000000
   102  H    0.137773   0.000000
   103  H    0.163874   0.000000
   104  H    0.133364   0.000000
   105  H    0.125054  -0.000000
   106  H    0.193311  -0.000000
   107  H    0.141184   0.000000
   108  H    0.145842   0.000000
   109  H    0.148378   0.000000
   110  H    0.151465   0.000000
   111  H    0.151428  -0.000000
   112  H    0.147179   0.000000
 Sum of Mulliken charges =  -1.00000   1.00000

 Dipole moment (field-independent basis, Debye):
    X=             58.5043    Y=             -6.0637    Z=             -1.2679  Tot=             58.8314
 Quadrupole moment (field-independent basis, Debye-Ang):
   XX=          -1016.1311   YY=           -313.4523   ZZ=           -329.4956
   XY=             71.7547   XZ=             22.2874   YZ=            -14.5375

 Normal termination of Gaussian 16 at Sun Jan 21 09:06:26 2024.
