 Q-Chem 5.4, Q-Chem, Inc., Pleasanton, CA (2021)
 Q-Chem 5.4.0 for Intel X86 EM64T Linux

User input:
--------------------------------------------------------------
$molecule
0 1
C                  3.3085020000     -0.2585250000     -0.1173220000
C                  1.8226490000     -0.4500800000     -0.1582750000
C                  0.9675560000      0.7281080000      0.0913560000
O                  1.4648570000      1.8209540000      0.3233660000
C                 -0.5257580000      0.5675660000      0.0567230000
C                 -1.3435270000      1.6715630000      0.2903010000
C                 -2.7298640000      1.5314860000      0.2599270000
C                 -3.3088330000      0.2887470000     -0.0037480000
C                 -2.5006570000     -0.8194440000     -0.2382060000
C                 -1.1108840000     -0.6813960000     -0.2082560000
C                 -0.2406610000     -1.8455010000     -0.4546110000
O                 -0.6558320000     -2.9736880000     -0.6939140000
C                  1.2378680000     -1.6460620000     -0.4117900000
O                  1.9431560000     -2.7638530000     -0.6483830000
H                  3.8300590000     -1.1932720000     -0.3159810000
H                  3.6166220000      0.1250030000      0.8593580000
H                  3.6167870000      0.4892420000     -0.8533240000
H                 -0.8779170000      2.6280120000      0.4932240000
H                 -3.3614020000      2.3935770000      0.4423100000
H                 -4.3875510000      0.1860410000     -0.0260610000
H                 -2.9265630000     -1.7936360000     -0.4448920000
H                  1.2867530000     -3.4705140000     -0.7984230000
$end

$rem
BASIS  =  6-311++G(d,p)
GUI  =  2
JOB_TYPE  =  SP
METHOD  =  B3LYP
SCF_CONVERGENCE  = 8
SOLVENT_METHOD = sm12
$end

$smx
solvent dimethylformamide
charges CM5
$end

--------------------------------------------------------------

             Standard Nuclear Orientation (Angstroms)
    I     Atom           X                Y                Z
 ----------------------------------------------------------------
    1      C       3.3085020000    -0.2585250000    -0.1173220000
    2      C       1.8226490000    -0.4500800000    -0.1582750000
    3      C       0.9675560000     0.7281080000     0.0913560000
    4      O       1.4648570000     1.8209540000     0.3233660000
    5      C      -0.5257580000     0.5675660000     0.0567230000
    6      C      -1.3435270000     1.6715630000     0.2903010000
    7      C      -2.7298640000     1.5314860000     0.2599270000
    8      C      -3.3088330000     0.2887470000    -0.0037480000
    9      C      -2.5006570000    -0.8194440000    -0.2382060000
   10      C      -1.1108840000    -0.6813960000    -0.2082560000
   11      C      -0.2406610000    -1.8455010000    -0.4546110000
   12      O      -0.6558320000    -2.9736880000    -0.6939140000
   13      C       1.2378680000    -1.6460620000    -0.4117900000
   14      O       1.9431560000    -2.7638530000    -0.6483830000
   15      H       3.8300590000    -1.1932720000    -0.3159810000
   16      H       3.6166220000     0.1250030000     0.8593580000
   17      H       3.6167870000     0.4892420000    -0.8533240000
   18      H      -0.8779170000     2.6280120000     0.4932240000
   19      H      -3.3614020000     2.3935770000     0.4423100000
   20      H      -4.3875510000     0.1860410000    -0.0260610000
   21      H      -2.9265630000    -1.7936360000    -0.4448920000
   22      H       1.2867530000    -3.4705140000    -0.7984230000
 ----------------------------------------------------------------

   16    -649.8486840726      1.88e-09  Convergence criterion met
 Total energy in the final basis set =     -649.8673184862

                    Orbital Energies (a.u.)
 --------------------------------------------------------------

 Alpha MOs
 -- Occupied --
-19.1790 -19.1493 -19.1266 -10.2932 -10.2783 -10.2681 -10.2111 -10.2097
-10.2072 -10.2011 -10.1991 -10.1973 -10.1972 -10.1727  -1.1096  -1.0674
 -1.0600  -0.8925  -0.8421  -0.7870  -0.7796  -0.7258  -0.6847  -0.6551
 -0.6248  -0.6052  -0.5745  -0.5427  -0.5181  -0.4955  -0.4772  -0.4754
 -0.4647  -0.4525  -0.4462  -0.4324  -0.4241  -0.4172  -0.4032  -0.3950
 -0.3939  -0.3760  -0.3753  -0.3694  -0.3034  -0.2898  -0.2796  -0.2777
 -0.2591

          Ground-State Mulliken Net Atomic Charges

     Atom                 Charge (a.u.)
  ----------------------------------------
      1 C                    -0.063863
      2 C                     0.883578
      3 C                    -1.328340
      4 O                    -0.294114
      5 C                    -0.118768
      6 C                     0.041154
      7 C                     0.401352
      8 C                     0.383164
      9 C                     0.332376
     10 C                     0.582358
     11 C                    -1.256758
     12 O                    -0.288800
     13 C                    -0.980802
     14 O                    -0.215218
     15 H                     0.197875
     16 H                     0.185410
     17 H                     0.185263
     18 H                     0.185460
     19 H                     0.320201
     20 H                     0.328854
     21 H                     0.225728
     22 H                     0.293890
  ----------------------------------------
  Sum of atomic charges =     0.000000

                    Cartesian Multipole Moments
 -----------------------------------------------------------------
    Charge (ESU x 10^10)
                 0.0000
    Dipole Moment (Debye)
         X      -3.1298      Y       0.1593      Z       0.0312
       Tot       3.1340
    Quadrupole Moments (Debye-Ang)
        XX     -70.0215     XY      -7.4294     YY     -86.0615
        XZ      -1.3709     YZ      -0.9035     ZZ     -82.0547

 Total job time:  324.05s(wall), 2529.70s(cpu)
        *  Thank you very much for using Q-Chem.  Have a nice day.  *
