 Gaussian 16, Revision A.03,
 Gaussian 16:  ES64L-G16RevA.03 25-Dec-2016

 --------------------------------------
 #P UB3LYP/6-311++G(d,p) nosym opt freq
 --------------------------------------

 --------
 Oxidized
 --------
 Symbolic Z-matrix:
 Charge =  0 Multiplicity = 1

 SCF Done:  E(UB3LYP) =  -649.849315726     A.U. after   16 cycles
 SCF Done:  E(UB3LYP) =  -649.849394971     A.U. after   11 cycles
 SCF Done:  E(UB3LYP) =  -649.849333971     A.U. after   12 cycles
 SCF Done:  E(UB3LYP) =  -649.849403960     A.U. after   11 cycles
 SCF Done:  E(UB3LYP) =  -649.849405613     A.U. after   10 cycles
 SCF Done:  E(UB3LYP) =  -649.849407033     A.U. after    9 cycles
 SCF Done:  E(UB3LYP) =  -649.849448417     A.U. after   13 cycles
 SCF Done:  E(UB3LYP) =  -649.781819906     A.U. after   15 cycles
 SCF Done:  E(UB3LYP) =  -649.849490960     A.U. after   13 cycles
 SCF Done:  E(UB3LYP) =  -649.846645514     A.U. after   15 cycles
 SCF Done:  E(UB3LYP) =  -649.849563960     A.U. after   13 cycles
 SCF Done:  E(UB3LYP) =  -649.849466158     A.U. after   13 cycles
 SCF Done:  E(UB3LYP) =  -649.849602962     A.U. after   13 cycles
 SCF Done:  E(UB3LYP) =  -649.849612628     A.U. after   12 cycles
 SCF Done:  E(UB3LYP) =  -649.849618861     A.U. after   11 cycles
 SCF Done:  E(UB3LYP) =  -649.849620682     A.U. after   11 cycles
 SCF Done:  E(UB3LYP) =  -649.849621928     A.U. after   10 cycles
 SCF Done:  E(UB3LYP) =  -649.849621982     A.U. after    9 cycles
 SCF Done:  E(UB3LYP) =  -649.849622028     A.U. after    9 cycles
 Optimization completed.
    -- Stationary point found.
 Normal termination of Gaussian 16 at Fri Jan 19 04:15:04 2024.

 ----------------------------------------------------------------------
 #P Geom=AllCheck Guess=TCheck SCRF=Check GenChk UB3LYP/6-311++G(d,p) F
 req
 ----------------------------------------------------------------------

 Structure from the checkpoint file:  "281.chk"
 --------
 Oxidized
 --------
 Charge =  0 Multiplicity = 1

                          Input orientation:
 ---------------------------------------------------------------------
 Center     Atomic      Atomic             Coordinates (Angstroms)
 Number     Number       Type             X           Y           Z
 ---------------------------------------------------------------------
      1          6           0        3.308502   -0.258525   -0.117322
      2          6           0        1.822649   -0.450080   -0.158275
      3          6           0        0.967556    0.728108    0.091356
      4          8           0        1.464857    1.820954    0.323366
      5          6           0       -0.525758    0.567566    0.056723
      6          6           0       -1.343527    1.671563    0.290301
      7          6           0       -2.729864    1.531486    0.259927
      8          6           0       -3.308833    0.288747   -0.003748
      9          6           0       -2.500657   -0.819444   -0.238206
     10          6           0       -1.110884   -0.681396   -0.208256
     11          6           0       -0.240661   -1.845501   -0.454611
     12          8           0       -0.655832   -2.973688   -0.693914
     13          6           0        1.237868   -1.646062   -0.411790
     14          8           0        1.943156   -2.763853   -0.648383
     15          1           0        3.830059   -1.193272   -0.315981
     16          1           0        3.616622    0.125003    0.859358
     17          1           0        3.616787    0.489242   -0.853324
     18          1           0       -0.877917    2.628012    0.493224
     19          1           0       -3.361402    2.393577    0.442310
     20          1           0       -4.387551    0.186041   -0.026061
     21          1           0       -2.926563   -1.793636   -0.444892
     22          1           0        1.286753   -3.470514   -0.798423
 ---------------------------------------------------------------------

 SCF Done:  E(UB3LYP) =  -649.849622028     A.U. after    1 cycles

 Alpha  occ. eigenvalues --  -19.17930 -19.15116 -19.12660 -10.29518 -10.27839
 Alpha  occ. eigenvalues --  -10.26891 -10.21653 -10.21465 -10.20868 -10.20866
 Alpha  occ. eigenvalues --  -10.20856 -10.20719 -10.20382 -10.17512  -1.11042
 Alpha  occ. eigenvalues --   -1.06869  -1.05952  -0.89873  -0.84488  -0.79256
 Alpha  occ. eigenvalues --   -0.78625  -0.72872  -0.68853  -0.65959  -0.62945
 Alpha  occ. eigenvalues --   -0.60952  -0.57879  -0.54550  -0.52282  -0.50092
 Alpha  occ. eigenvalues --   -0.48463  -0.47667  -0.46790  -0.45948  -0.44732
 Alpha  occ. eigenvalues --   -0.43340  -0.42650  -0.41981  -0.40938  -0.39849
 Alpha  occ. eigenvalues --   -0.39516  -0.38129  -0.37966  -0.37635  -0.30478
 Alpha  occ. eigenvalues --   -0.29504  -0.28597  -0.27689  -0.26085
 Alpha virt. eigenvalues --   -0.12719  -0.06138  -0.03089  -0.01371  -0.00516
 Alpha virt. eigenvalues --    0.00844   0.01680   0.02099   0.02233   0.03523
 Alpha virt. eigenvalues --    0.03876   0.04719   0.05010   0.05057   0.06448

  Beta  occ. eigenvalues --  -19.17930 -19.15116 -19.12660 -10.29518 -10.27839
  Beta  occ. eigenvalues --  -10.26891 -10.21653 -10.21465 -10.20868 -10.20866
  Beta  occ. eigenvalues --  -10.20856 -10.20719 -10.20382 -10.17512  -1.11042
  Beta  occ. eigenvalues --   -1.06869  -1.05952  -0.89873  -0.84488  -0.79256
  Beta  occ. eigenvalues --   -0.78625  -0.72872  -0.68853  -0.65959  -0.62945
  Beta  occ. eigenvalues --   -0.60952  -0.57879  -0.54550  -0.52282  -0.50092
  Beta  occ. eigenvalues --   -0.48463  -0.47667  -0.46790  -0.45948  -0.44732
  Beta  occ. eigenvalues --   -0.43340  -0.42650  -0.41981  -0.40938  -0.39849
  Beta  occ. eigenvalues --   -0.39516  -0.38129  -0.37966  -0.37635  -0.30478
  Beta  occ. eigenvalues --   -0.29504  -0.28597  -0.27689  -0.26085
  Beta virt. eigenvalues --   -0.12719  -0.06138  -0.03089  -0.01371  -0.00516
  Beta virt. eigenvalues --    0.00844   0.01680   0.02099   0.02233   0.03523
  Beta virt. eigenvalues --    0.03876   0.04719   0.05010   0.05057   0.06448

 Mulliken charges and spin densities:
               1          2
     1  C   -0.211151  -0.000000
     2  C    1.349076  -0.000000
     3  C   -0.732034   0.000000
     4  O   -0.220097  -0.000000
     5  C    0.451252   0.000000
     6  C    0.100850  -0.000000
     7  C   -0.393395   0.000000
     8  C   -0.305365   0.000000
     9  C    0.013734  -0.000000
    10  C    0.839746  -0.000000
    11  C   -1.069371   0.000000
    12  O   -0.275079   0.000000
    13  C   -0.917056  -0.000000
    14  O   -0.211181  -0.000000
    15  H    0.193120  -0.000000
    16  H    0.180140   0.000000
    17  H    0.180114   0.000000
    18  H    0.192860  -0.000000
    19  H    0.177573  -0.000000
    20  H    0.181861  -0.000000
    21  H    0.186038  -0.000000
    22  H    0.288364   0.000000
 Sum of Mulliken charges =  -0.00000  -0.00000

 Dipole moment (field-independent basis, Debye):
    X=             -2.3312    Y=              0.0638    Z=              0.0119  Tot=              2.3321
 Quadrupole moment (field-independent basis, Debye-Ang):
   XX=            -72.5817   YY=            -85.9150   ZZ=            -81.9877
   XY=             -6.5426   XZ=             -1.2352   YZ=             -0.8802

  Exact polarizability: 179.212  -2.251 167.840  -0.431  20.518  75.371
 Approx polarizability: 266.286  26.823 331.086   5.755  46.417 121.965

                      1                      2                      3
                      A                      A                      A
 Frequencies --     44.0828                63.5062               105.4558
 Red. masses --      1.0358                 7.3217                 4.0179
 Frc consts  --      0.0012                 0.0174                 0.0263
 IR Inten    --      0.0039                 4.8925                 0.1723

                      4                      5                      6
                      A                      A                      A
 Frequencies --    125.3107               167.3781               247.6981
 Red. masses --      6.0330                 6.3521                 4.1555
 Frc consts  --      0.0558                 0.1048                 0.1502
 IR Inten    --      0.1078                 0.4595                 0.3215

                      7                      8                      9
                      A                      A                      A
 Frequencies --    285.0777               292.0734               339.9395
 Red. masses --      4.5297                 3.6113                 5.5125
 Frc consts  --      0.2169                 0.1815                 0.3753
 IR Inten    --      0.0241                 2.6870                 7.2388

                     10                     11                     12
                      A                      A                      A
 Frequencies --    385.7165               416.1278               419.0352
 Red. masses --      9.3760                 9.5404                 3.5551
 Frc consts  --      0.8219                 0.9734                 0.3678
 IR Inten    --     12.6672                17.1825                 0.0040

                     13                     14                     15
                      A                      A                      A
 Frequencies --    424.0937               440.4407               510.9487
 Red. masses --      7.7804                 4.8383                 9.9764
 Frc consts  --      0.8245                 0.5530                 1.5345
 IR Inten    --     11.5272                 2.5900                 0.1723

                     16                     17                     18
                      A                      A                      A
 Frequencies --    538.9170               630.3481               635.7209
 Red. masses --      5.0435                 7.0735                 1.1284
 Frc consts  --      0.8630                 1.6559                 0.2687
 IR Inten    --      9.1432                 0.8826                75.6914

                     19                     20                     21
                      A                      A                      A
 Frequencies --    673.8979               692.2216               715.5654
 Red. masses --      6.5509                 4.5027                 5.7018
 Frc consts  --      1.7528                 1.2712                 1.7201
 IR Inten    --      4.0861                 7.9110                 2.9223

                     22                     23                     24
                      A                      A                      A
 Frequencies --    730.8834               738.1118               802.8993
 Red. masses --      3.0870                 4.5661                 1.7322
 Frc consts  --      0.9716                 1.4657                 0.6579
 IR Inten    --     64.4780                13.0455                16.6730

                     25                     26                     27
                      A                      A                      A
 Frequencies --    844.0746               911.6159               950.1952
 Red. masses --      3.5228                 1.3107                 5.4718
 Frc consts  --      1.4788                 0.6418                 2.9107
 IR Inten    --     13.8486                 0.0438                32.6286

                     28                     29                     30
                      A                      A                      A
 Frequencies --    996.4707              1001.6269              1016.2601
 Red. masses --      1.3730                 3.1059                 1.3249
 Frc consts  --      0.8033                 1.8359                 0.8062
 IR Inten    --      1.4674                12.7443                 0.1575

                     31                     32                     33
                      A                      A                      A
 Frequencies --   1047.0637              1050.3190              1095.1434
 Red. masses --      1.4787                 2.2727                 2.2496
 Frc consts  --      0.9552                 1.4772                 1.5896
 IR Inten    --      0.0464                 9.7378                70.2035

                     34                     35                     36
                      A                      A                      A
 Frequencies --   1113.6300              1182.2014              1197.7580
 Red. masses --      2.1146                 1.1768                 2.4467
 Frc consts  --      1.5451                 0.9690                 2.0681
 IR Inten    --      9.7077                20.7382                38.7388

                     37                     38                     39
                      A                      A                      A
 Frequencies --   1231.9063              1291.0362              1308.8777
 Red. masses --      2.8308                 2.0390                 1.9354
 Frc consts  --      2.5311                 2.0023                 1.9536
 IR Inten    --     85.7311                44.5185               159.0888

                     40                     41                     42
                      A                      A                      A
 Frequencies --   1325.7299              1366.3460              1395.1128
 Red. masses --      6.9260                 7.1912                 1.8309
 Frc consts  --      7.1720                 7.9099                 2.0996
 IR Inten    --    153.1625                61.1104               266.8898

                     43                     44                     45
                      A                      A                      A
 Frequencies --   1419.4312              1477.5328              1480.1220
 Red. masses --      1.5079                 1.0432                 1.1138
 Frc consts  --      1.7900                 1.3417                 1.4377
 IR Inten    --    124.0447                 9.6262                 7.1077

                     46                     47                     48
                      A                      A                      A
 Frequencies --   1485.8487              1506.8763              1613.9570
 Red. masses --      2.2236                 2.6476                 6.6245
 Frc consts  --      2.8924                 3.5421                10.1669
 IR Inten    --      9.2598                 2.6208                 2.2213

                     49                     50                     51
                      A                      A                      A
 Frequencies --   1628.0595              1696.8614              1705.5409
 Red. masses --      5.9396                 8.3947                11.7338
 Frc consts  --      9.2757                14.2413                20.1100
 IR Inten    --     81.6740                26.6204               216.2317

                     52                     53                     54
                      A                      A                      A
 Frequencies --   1706.5253              3037.9092              3083.3947
 Red. masses --      9.5517                 1.0379                 1.0991
 Frc consts  --     16.3891                 5.6437                 6.1564
 IR Inten    --    296.2068                 9.8860                 8.5877

                     55                     56                     57
                      A                      A                      A
 Frequencies --   3140.8634              3171.8773              3185.8962
 Red. masses --      1.1004                 1.0871                 1.0915
 Frc consts  --      6.3956                 6.4437                 6.5272
 IR Inten    --      5.4642                 3.1438                 7.6339

                     58                     59                     60
                      A                      A                      A
 Frequencies --   3199.5522              3202.7948              3618.1310
 Red. masses --      1.0932                 1.0949                 1.0643
 Frc consts  --      6.5937                 6.6176                 8.2085
 IR Inten    --      1.2067                 8.0617               137.4765

 - Thermochemistry -
 -------------------
 Temperature   298.150 Kelvin.  Pressure   1.00000 Atm.
 Atom     1 has atomic number  6 and mass  12.00000

 Molecular mass:   188.04734 amu.
 Principal axes and moments of inertia in atomic units:
                           1         2         3
     Eigenvalues --  1608.941432770.368244368.27526
           X            0.91520   0.40300  -0.00039
           Y           -0.39431   0.89528  -0.20734
           Z           -0.08321   0.18991   0.97827
 This molecule is an asymmetric top.
 Rotational symmetry number  1.
 Warning -- assumption of classical behavior for rotation
           may cause significant error
 Rotational temperatures (Kelvin)      0.05383     0.03126     0.01983
 Rotational constants (GHZ):           1.12169     0.65144     0.41315
 Zero-point vibrational energy     431325.5 (Joules/Mol)
                                  103.08927 (Kcal/Mol)
 Warning -- explicit consideration of  16 degrees of freedom as
           vibrations may cause significant error
 Vibrational temperatures:     63.43    91.37   151.73   180.29   240.82
          (Kelvin)            356.38   410.16   420.23   489.10   554.96
                              598.72   602.90   610.18   633.70   735.14
                              775.38   906.93   914.66   969.59   995.95
                             1029.54  1051.58  1061.98  1155.19  1214.44
                             1311.61  1367.12  1433.70  1441.12  1462.17
                             1506.49  1511.17  1575.67  1602.27  1700.92
                             1723.31  1772.44  1857.51  1883.18  1907.43
                             1965.87  2007.26  2042.24  2125.84  2129.57
                             2137.80  2168.06  2322.12  2342.41  2441.41
                             2453.89  2455.31  4370.87  4436.32  4519.00
                             4563.62  4583.79  4603.44  4608.11  5205.68

 Zero-point correction=                           0.164283 (Hartree/Particle)
 Thermal correction to Energy=                    0.175835
 Thermal correction to Enthalpy=                  0.176779
 Thermal correction to Gibbs Free Energy=         0.126122
 Sum of electronic and zero-point Energies=           -649.685339
 Sum of electronic and thermal Energies=              -649.673787
 Sum of electronic and thermal Enthalpies=            -649.672843
 Sum of electronic and thermal Free Energies=         -649.723500

                     E (Thermal)             CV                S
                      KCal/Mol        Cal/Mol-Kelvin    Cal/Mol-Kelvin
 Total                  110.338             44.308            106.616
 Electronic               0.000              0.000              0.000
 Translational            0.889              2.981             41.600
 Rotational               0.889              2.981             31.344
 Vibrational            108.561             38.346             33.672
 Vibration     1          0.595              1.980              5.067
 Vibration     2          0.597              1.972              4.345
 Vibration     3          0.605              1.945              3.351
 Vibration     4          0.610              1.928              3.017
 Vibration     5          0.624              1.883              2.465
 Vibration     6          0.661              1.767              1.747
 Vibration     7          0.683              1.701              1.503
 Vibration     8          0.687              1.688              1.462
 Vibration     9          0.720              1.596              1.212
 Vibration    10          0.754              1.501              1.017
 Vibration    11          0.779              1.435              0.905
 Vibration    12          0.782              1.429              0.895
 Vibration    13          0.786              1.418              0.878
 Vibration    14          0.800              1.382              0.825
 Vibration    15          0.866              1.226              0.631
 Vibration    16          0.894              1.164              0.568

 Optimization completed.
    -- Stationary point found.
 Normal termination of Gaussian 16 at Fri Jan 19 04:28:37 2024.
