 Q-Chem 5.4, Q-Chem, Inc., Pleasanton, CA (2021)
 Q-Chem 5.4.0 for Intel X86 EM64T Linux

User input:
--------------------------------------------------------------
$molecule
-1 2
C                 -3.5472230000      0.1628460000      0.3583190000
O                 -2.6841630000      0.6479940000     -0.6729560000
C                 -1.3580800000      0.3274340000     -0.5530460000
C                 -0.4197790000      1.3295800000     -0.4989850000
Cl                -0.9394520000      3.0109310000     -0.4913790000
C                  1.0122210000      1.0941500000     -0.4688870000
O                  1.8670420000      2.0117050000     -0.4641950000
C                  1.3995320000     -0.3171740000     -0.4372610000
C                  0.4611850000     -1.3193310000     -0.4896430000
Cl                 0.9797830000     -3.0009500000     -0.4737810000
C                 -0.9681050000     -1.0832160000     -0.5817540000
O                 -1.8190070000     -1.9997690000     -0.6737370000
O                  2.7312930000     -0.6362860000     -0.4458780000
C                  3.4991040000     -0.1747400000      0.6683370000
H                 -3.2574440000      0.5881740000      1.3275610000
H                 -4.5477640000      0.5137910000      0.0990680000
H                 -3.5272830000     -0.9267570000      0.4011770000
H                  3.4758660000      0.9137710000      0.7320450000
H                  3.1237360000     -0.6193710000      1.5987690000
H                  4.5185370000     -0.5227810000      0.4921310000
$end
$rem
MAX_SCF_CYCLES=200
BASIS  =  6-311++G(d,p)
GUI  =  2
JOB_TYPE  =  SP
METHOD  =  B3LYP
SOLVENT_METHOD = PCM
$end
$pcm
theory = CPCM
$end
$solvent
dielectric 37.219
opticaldielectric 1.43
$end

--------------------------------------------------------------

             Standard Nuclear Orientation (Angstroms)
    I     Atom           X                Y                Z
 ----------------------------------------------------------------
    1      C      -3.5472230000     0.1628460000     0.3583190000
    2      O      -2.6841630000     0.6479940000    -0.6729560000
    3      C      -1.3580800000     0.3274340000    -0.5530460000
    4      C      -0.4197790000     1.3295800000    -0.4989850000
    5      Cl     -0.9394520000     3.0109310000    -0.4913790000
    6      C       1.0122210000     1.0941500000    -0.4688870000
    7      O       1.8670420000     2.0117050000    -0.4641950000
    8      C       1.3995320000    -0.3171740000    -0.4372610000
    9      C       0.4611850000    -1.3193310000    -0.4896430000
   10      Cl      0.9797830000    -3.0009500000    -0.4737810000
   11      C      -0.9681050000    -1.0832160000    -0.5817540000
   12      O      -1.8190070000    -1.9997690000    -0.6737370000
   13      O       2.7312930000    -0.6362860000    -0.4458780000
   14      C       3.4991040000    -0.1747400000     0.6683370000
   15      H      -3.2574440000     0.5881740000     1.3275610000
   16      H      -4.5477640000     0.5137910000     0.0990680000
   17      H      -3.5272830000    -0.9267570000     0.4011770000
   18      H       3.4758660000     0.9137710000     0.7320450000
   19      H       3.1237360000    -0.6193710000     1.5987690000
   20      H       4.5185370000    -0.5227810000     0.4921310000
 ----------------------------------------------------------------

    8   -1530.0790378132      8.90e-06  Convergence criterion met
 Total energy in the final basis set =    -1530.0790378132

                    Orbital Energies (a.u.)
 --------------------------------------------------------------

 Alpha MOs
 -- Occupied --
********-101.5545 -19.1501 -19.1501 -19.0941 -19.0941 -10.2461 -10.2460
-10.2409 -10.2409 -10.2296 -10.2296 -10.2093 -10.2093  -9.4688  -9.4688
 -7.2332  -7.2332  -7.2241  -7.2241  -7.2232  -7.2232  -1.0697  -1.0675
 -1.0182  -1.0182  -0.8811  -0.8677  -0.8096  -0.7519  -0.7063  -0.6960
 -0.6630  -0.5937  -0.5864  -0.5370  -0.5129  -0.5055  -0.4759  -0.4633
 -0.4538  -0.4480  -0.4388  -0.4338  -0.4237  -0.4193  -0.3988  -0.3950
 -0.3671  -0.3613  -0.3466  -0.3435  -0.3209  -0.3185  -0.3088  -0.2959
 -0.2752  -0.2597  -0.2571  -0.2364  -0.1756

 Beta MOs
 -- Occupied --
********-101.5545 -19.1498 -19.1498 -19.0877 -19.0877 -10.2444 -10.2444
-10.2394 -10.2394 -10.2290 -10.2290 -10.2092 -10.2092  -9.4688  -9.4688
 -7.2333  -7.2333  -7.2240  -7.2240  -7.2232  -7.2232  -1.0679  -1.0659
 -1.0077  -1.0073  -0.8785  -0.8667  -0.8058  -0.7493  -0.7051  -0.6892
 -0.6590  -0.5901  -0.5829  -0.5351  -0.5116  -0.5032  -0.4698  -0.4607
 -0.4525  -0.4460  -0.4354  -0.4316  -0.4183  -0.4083  -0.3920  -0.3804
 -0.3619  -0.3577  -0.3408  -0.3351  -0.3187  -0.3179  -0.3052  -0.2916
 -0.2541  -0.2536  -0.2517  -0.2309

          Ground-State Mulliken Net Atomic Charges

     Atom                 Charge (a.u.)    Spin (a.u.)
  --------------------------------------------------------
      1 C                    -0.312206       0.004760
      2 O                    -0.179559       0.002849
      3 C                    -1.645499       0.143087
      4 C                     1.924446       0.013760
      5 Cl                    0.244913       0.002895
      6 C                    -0.585651       0.093686
      7 O                    -0.445832       0.238012
      8 C                    -1.644145       0.143265
      9 C                     1.924301       0.013507
     10 Cl                    0.244966       0.002904
     11 C                    -0.585865       0.093788
     12 O                    -0.445999       0.237934
     13 O                    -0.179264       0.002861
     14 C                    -0.312407       0.004796
     15 H                     0.148180       0.000829
     16 H                     0.170714       0.000669
     17 H                     0.180046      -0.000551
     18 H                     0.180031      -0.000551
     19 H                     0.148236       0.000830
     20 H                     0.170594       0.000671
  --------------------------------------------------------
  Sum of atomic charges =    -1.000000

                    Cartesian Multipole Moments
 -----------------------------------------------------------------
    Charge (ESU x 10^10)
                -4.8032
    Dipole Moment (Debye)
         X      -0.2512      Y      -0.0621      Z       5.8321
       Tot       5.8378
    Quadrupole Moments (Debye-Ang)
        XX    -106.6477     XY     -10.2670     YY    -131.1329
        XZ      -0.4378     YZ      -0.8170     ZZ     -99.6557

 Total job time:  32.69s(wall), 210.53s(cpu)
        *  Thank you very much for using Q-Chem.  Have a nice day.  *
