 Gaussian 16, Revision A.03,
 Gaussian 16:  ES64L-G16RevA.03 25-Dec-2016

 ----------------------------------------------------------------------
 #P UB3LYP/6-311++G(d,p) nosym opt freq SCRF=(PCM,Solvent=n,n-DiMethylF
 ormamide)
 ----------------------------------------------------------------------

 -------
 Radical
 -------
 Symbolic Z-matrix:
 Charge = -1 Multiplicity = 2

 SCF Done:  E(UB3LYP) =  -5682.49665198     A.U. after   18 cycles
 SCF Done:  E(UB3LYP) =  -5682.49680972     A.U. after   13 cycles
 SCF Done:  E(UB3LYP) =  -5682.49683458     A.U. after   12 cycles
 SCF Done:  E(UB3LYP) =  -5682.49683489     A.U. after   11 cycles
 SCF Done:  E(UB3LYP) =  -5682.49683552     A.U. after   10 cycles
 Optimization completed.
    -- Stationary point found.
 Normal termination of Gaussian 16 at Sun Feb 11 00:51:56 2024.

 ----------------------------------------------------------------------
 #P Geom=AllCheck Guess=TCheck SCRF=Check GenChk UB3LYP/6-311++G(d,p) F
 req
 ----------------------------------------------------------------------

 Structure from the checkpoint file:  "233-rad.chk"
 -------
 Radical
 -------
 Charge = -1 Multiplicity = 2

                          Input orientation:
 ---------------------------------------------------------------------
 Center     Atomic      Atomic             Coordinates (Angstroms)
 Number     Number       Type             X           Y           Z
 ---------------------------------------------------------------------
      1          6           0        5.928331   -5.220749    1.106273
      2          6           0        6.824491   -5.082508    0.060600
      3          6           0        6.613024   -4.097610   -0.919608
      4          6           0        4.798791   -4.385115    1.205281
      5          6           0        4.586169   -3.394578    0.219012
      6          6           0        5.508728   -3.267374   -0.837611
      7          6           0        3.867541   -4.565208    2.333455
      8          6           0        2.732383   -3.669113    2.349738
      9          6           0        2.523267   -2.699019    1.381527
     10          6           0        3.422134   -2.492395    0.268084
     11          8           0        4.062266   -5.442715    3.209502
     12          8           0        3.239336   -1.611397   -0.606794
     13          1           0        6.077489   -5.974784    1.868876
     14          1           0        5.330865   -2.503491   -1.584206
     15         35           0        1.519201   -3.910789    3.815582
     16         35           0        1.004470   -1.528549    1.431300
     17          1           0        7.689292   -5.733671   -0.002718
     18          1           0        7.314562   -3.988625   -1.739284
 ---------------------------------------------------------------------

 SCF Done:  E(UB3LYP) =  -5682.49683552     A.U. after    1 cycles

 Alpha  occ. eigenvalues -- -482.82994-482.82988 -62.48268 -62.48263 -56.30300
 Alpha  occ. eigenvalues --  -56.30295 -56.29936 -56.29931 -56.29893 -56.29887
 Alpha  occ. eigenvalues --  -19.08923 -19.08914 -10.24264 -10.24246 -10.23179
 Alpha  occ. eigenvalues --  -10.23123 -10.18604 -10.18556 -10.17968 -10.17920
 Alpha  occ. eigenvalues --  -10.17767 -10.17764  -8.69237  -8.69231  -6.52362
 Alpha  occ. eigenvalues --   -6.52356  -6.51141  -6.51136  -6.51020  -6.51014
 Alpha  occ. eigenvalues --   -2.63461  -2.63455  -2.63132  -2.63126  -2.63040
 Alpha  occ. eigenvalues --   -2.63034  -2.62066  -2.62065  -2.62060  -2.62059
 Alpha  occ. eigenvalues --   -1.01797  -1.01519  -0.87220  -0.85185  -0.79431
 Alpha  occ. eigenvalues --   -0.78385  -0.75874  -0.72598  -0.68103  -0.62095
 Alpha  occ. eigenvalues --   -0.61117  -0.56964  -0.52764  -0.50199  -0.47596
 Alpha  occ. eigenvalues --   -0.45753  -0.43690  -0.43274  -0.42744  -0.42629
 Alpha  occ. eigenvalues --   -0.39953  -0.39818  -0.39430  -0.36976  -0.36125
 Alpha  occ. eigenvalues --   -0.34848  -0.33532  -0.30680  -0.30552  -0.27932
 Alpha  occ. eigenvalues --   -0.27583  -0.26339  -0.25946  -0.24976  -0.24922
 Alpha  occ. eigenvalues --   -0.16704
 Alpha virt. eigenvalues --   -0.04180  -0.03543  -0.02891  -0.00141   0.00866
 Alpha virt. eigenvalues --    0.01174   0.01662   0.03180   0.03561   0.03898
 Alpha virt. eigenvalues --    0.04356   0.04560   0.05533   0.05839   0.05872

  Beta  occ. eigenvalues -- -482.82992-482.82986 -62.48267 -62.48261 -56.30302
  Beta  occ. eigenvalues --  -56.30296 -56.29928 -56.29922 -56.29892 -56.29886
  Beta  occ. eigenvalues --  -19.08312 -19.08303 -10.24127 -10.24110 -10.22975
  Beta  occ. eigenvalues --  -10.22918 -10.18574 -10.18526 -10.17945 -10.17897
  Beta  occ. eigenvalues --  -10.17757 -10.17754  -8.69233  -8.69227  -6.52366
  Beta  occ. eigenvalues --   -6.52360  -6.51126  -6.51120  -6.51019  -6.51012
  Beta  occ. eigenvalues --   -2.63461  -2.63456  -2.63124  -2.63119  -2.63043
  Beta  occ. eigenvalues --   -2.63037  -2.62058  -2.62057  -2.62052  -2.62051
  Beta  occ. eigenvalues --   -1.00750  -1.00442  -0.86901  -0.84908  -0.79238
  Beta  occ. eigenvalues --   -0.78158  -0.75710  -0.72401  -0.67254  -0.61950
  Beta  occ. eigenvalues --   -0.60779  -0.56684  -0.52540  -0.49958  -0.47328
  Beta  occ. eigenvalues --   -0.45629  -0.43221  -0.42507  -0.42191  -0.42023
  Beta  occ. eigenvalues --   -0.39742  -0.39581  -0.36971  -0.36534  -0.35999
  Beta  occ. eigenvalues --   -0.34756  -0.32133  -0.30636  -0.30173  -0.27841
  Beta  occ. eigenvalues --   -0.25726  -0.25711  -0.25370  -0.24415  -0.24190
  Beta virt. eigenvalues --   -0.10095  -0.03386  -0.03370  -0.01736  -0.00122
  Beta virt. eigenvalues --    0.01005   0.01193   0.01695   0.03190   0.03953
  Beta virt. eigenvalues --    0.03977   0.04600   0.05534   0.05588   0.05928

 Mulliken charges and spin densities:
               1          2
     1  C    0.167088   0.028262
     2  C   -0.371529   0.017780
     3  C   -0.372513   0.017841
     4  C    0.453010   0.010454
     5  C    0.455065   0.010536
     6  C    0.168997   0.028256
     7  C   -1.068041   0.078801
     8  C    0.466950   0.133517
     9  C    0.462449   0.133612
    10  C   -1.071505   0.078468
    11  O   -0.391525   0.226610
    12  O   -0.391028   0.226547
    13  H    0.169580  -0.002672
    14  H    0.169620  -0.002676
    15  Br  -0.115987   0.008795
    16  Br  -0.115697   0.008812
    17  H    0.192537  -0.001469
    18  H    0.192528  -0.001473
 Sum of Mulliken charges =  -1.00000   1.00000

 Dipole moment (field-independent basis, Debye):
    X=            -13.8330    Y=             15.6779    Z=             -8.3196  Tot=             22.5025
 Quadrupole moment (field-independent basis, Debye-Ang):
   XX=           -147.3747   YY=           -177.7058   ZZ=           -140.0714
   XY=             47.3685   XZ=            -29.6369   YZ=             44.3703

  Exact polarizability: 292.438 -77.130 243.892 -69.569 -68.079 275.070
 Approx polarizability: 304.021 -78.994 282.996 -60.544 -90.883 312.410

                      1                      2                      3
                      A                      A                      A
 Frequencies --     53.0171                59.4491               133.9810
 Red. masses --     11.4303                 9.9574                 5.5643
 Frc consts  --      0.0189                 0.0207                 0.0588
 IR Inten    --      3.1766                 9.9852                 0.1297

                      4                      5                      6
                      A                      A                      A
 Frequencies --    135.6241               166.6157               170.9241
 Red. masses --     26.2290                 9.4591                12.8670
 Frc consts  --      0.2843                 0.1547                 0.2215
 IR Inten    --      1.0717                 4.4625                 4.5873

                      7                      8                      9
                      A                      A                      A
 Frequencies --    247.4746               262.1446               262.7356
 Red. masses --     10.4260                15.8737                 6.9786
 Frc consts  --      0.3762                 0.6427                 0.2838
 IR Inten    --      1.8621                 0.1065                 0.0359

                     10                     11                     12
                      A                      A                      A
 Frequencies --    304.5375               377.6083               380.7467
 Red. masses --     10.7385                 9.7296                10.7941
 Frc consts  --      0.5868                 0.8174                 0.9220
 IR Inten    --      0.0164                 0.1991                23.9188

                     13                     14                     15
                      A                      A                      A
 Frequencies --    444.3296               482.6889               505.3141
 Red. masses --      3.3662                13.8914                 5.0013
 Frc consts  --      0.3916                 1.9069                 0.7524
 IR Inten    --      1.7503                18.4574                 0.0006

                     16                     17                     18
                      A                      A                      A
 Frequencies --    521.6910               626.9887               674.4816
 Red. masses --      7.8388                 7.8288                 5.8035
 Frc consts  --      1.2570                 1.8133                 1.5555
 IR Inten    --      1.7183                45.3628                 0.0072

                     19                     20                     21
                      A                      A                      A
 Frequencies --    690.1293               698.7522               769.6333
 Red. masses --      8.4216                 3.2055                 7.6871
 Frc consts  --      2.3632                 0.9221                 2.6828
 IR Inten    --      0.6982                83.8890                67.2260

                     22                     23                     24
                      A                      A                      A
 Frequencies --    783.0310               791.2016               815.4945
 Red. masses --      5.2498                 1.6158                10.7929
 Frc consts  --      1.8965                 0.5960                 4.2289
 IR Inten    --      0.0173                53.9288               249.5590

                     25                     26                     27
                      A                      A                      A
 Frequencies --    861.8663               894.2504               991.5740
 Red. masses --      7.5172                 1.4234                 1.3673
 Frc consts  --      3.2899                 0.6707                 0.7921
 IR Inten    --      2.5602                 0.0024                 2.8934

                     28                     29                     30
                      A                      A                      A
 Frequencies --   1009.2602              1039.9422              1102.3091
 Red. masses --      1.2996                 2.5202                 3.5922
 Frc consts  --      0.7799                 1.6059                 2.5717
 IR Inten    --      0.0080                12.2042                11.9059

                     31                     32                     33
                      A                      A                      A
 Frequencies --   1108.4376              1156.5613              1162.8652
 Red. masses --      2.6673                 1.4373                 2.8358
 Frc consts  --      1.9309                 1.1327                 2.2593
 IR Inten    --      3.0258                 6.3029               186.5259

                     34                     35                     36
                      A                      A                      A
 Frequencies --   1219.1190              1239.7605              1336.2116
 Red. masses --      2.8405                 1.8761                 3.0269
 Frc consts  --      2.4874                 1.6990                 3.1841
 IR Inten    --      4.3803               200.3781                87.1352

                     37                     38                     39
                      A                      A                      A
 Frequencies --   1354.5176              1430.0351              1468.3626
 Red. masses --      9.6988                 6.3644                 3.0795
 Frc consts  --     10.4842                 7.6684                 3.9119
 IR Inten    --      2.1384                27.5448               249.1976

                     40                     41                     42
                      A                      A                      A
 Frequencies --   1489.0934              1513.7762              1548.2116
 Red. masses --      3.1348                 6.7056                 7.4522
 Frc consts  --      4.0954                 9.0534                10.5243
 IR Inten    --     19.5849              1276.7061                 6.3934

                     43                     44                     45
                      A                      A                      A
 Frequencies --   1606.0174              1631.8216              3164.7552
 Red. masses --      7.9697                 5.9257                 1.0865
 Frc consts  --     12.1113                 9.2968                 6.4117
 IR Inten    --     56.4586                 3.0986                 8.8010

                     46                     47                     48
                      A                      A                      A
 Frequencies --   3178.5302              3194.7340              3197.8085
 Red. masses --      1.0911                 1.0921                 1.0945
 Frc consts  --      6.4946                 6.5672                 6.5945
 IR Inten    --     21.0410                10.0322                32.7804

 - Thermochemistry -
 -------------------
 Temperature   298.150 Kelvin.  Pressure   1.00000 Atm.
 Atom     1 has atomic number  6 and mass  12.00000

 Molecular mass:   313.85780 amu.
 Principal axes and moments of inertia in atomic units:
                           1         2         3
     Eigenvalues --  3028.456525780.515198808.91019
           X            0.83656  -0.15093   0.52667
           Y           -0.28603   0.69957   0.65482
           Z           -0.46728  -0.69844   0.54207
 This molecule is an asymmetric top.
 Rotational symmetry number  1.
 Warning -- assumption of classical behavior for rotation
           may cause significant error
 Rotational temperatures (Kelvin)      0.02860     0.01498     0.00983
 Rotational constants (GHZ):           0.59593     0.31221     0.20488
 Zero-point vibrational energy     288649.4 (Joules/Mol)
                                   68.98887 (Kcal/Mol)
 Warning -- explicit consideration of  16 degrees of freedom as
           vibrations may cause significant error
 Vibrational temperatures:     76.28    85.53   192.77   195.13   239.72
          (Kelvin)            245.92   356.06   377.17   378.02   438.16
                              543.29   547.81   639.29   694.48   727.03
                              750.60   902.10   970.43   992.94  1005.35
                             1107.33  1126.61  1138.36  1173.31  1240.03
                             1286.63  1426.65  1452.10  1496.24  1585.98
                             1594.79  1664.03  1673.10  1754.04  1783.74
                             1922.51  1948.85  2057.50  2112.65  2142.47
                             2177.99  2227.53  2310.70  2347.83  4553.38
                             4573.20  4596.51  4600.93

 Zero-point correction=                           0.109941 (Hartree/Particle)
 Thermal correction to Energy=                    0.121634
 Thermal correction to Enthalpy=                  0.122578
 Thermal correction to Gibbs Free Energy=         0.069252
 Sum of electronic and zero-point Energies=          -5682.386895
 Sum of electronic and thermal Energies=             -5682.375201
 Sum of electronic and thermal Enthalpies=           -5682.374257
 Sum of electronic and thermal Free Energies=        -5682.427584

                     E (Thermal)             CV                S
                      KCal/Mol        Cal/Mol-Kelvin    Cal/Mol-Kelvin
 Total                   76.327             43.048            112.236
 Electronic               0.000              0.000              1.377
 Translational            0.889              2.981             43.127
 Rotational               0.889              2.981             33.400
 Vibrational             74.549             37.087             34.332
 Vibration     1          0.596              1.976              4.702
 Vibration     2          0.597              1.974              4.475
 Vibration     3          0.613              1.919              2.888
 Vibration     4          0.613              1.918              2.865
 Vibration     5          0.624              1.884              2.473
 Vibration     6          0.626              1.878              2.425
 Vibration     7          0.661              1.767              1.748
 Vibration     8          0.669              1.742              1.647
 Vibration     9          0.670              1.741              1.644
 Vibration    10          0.695              1.665              1.392
 Vibration    11          0.748              1.518              1.049
 Vibration    12          0.750              1.511              1.036
 Vibration    13          0.804              1.373              0.813
 Vibration    14          0.839              1.288              0.703
 Vibration    15          0.861              1.238              0.645
 Vibration    16          0.877              1.202              0.606

 Optimization completed.
    -- Stationary point found.
 Normal termination of Gaussian 16 at Sun Feb 11 01:09:20 2024.
