 Gaussian 16, Revision A.03,
 Gaussian 16:  ES64L-G16RevA.03 25-Dec-2016

 --------------------------------------
 #P UB3LYP/6-311++G(d,p) nosym opt freq
 --------------------------------------

 -------
 Reduced
 -------
 Symbolic Z-matrix:
 Charge = -3 Multiplicity = 1

 SCF Done:  E(UB3LYP) =  -1158.42768461     A.U. after   39 cycles
 SCF Done:  E(UB3LYP) =  -1158.42768457     A.U. after   22 cycles
 SCF Done:  E(UB3LYP) =  -1158.42768483     A.U. after   20 cycles
 Optimization completed.
    -- Stationary point found.
 Normal termination of Gaussian 16 at Tue Jan  9 02:02:59 2024.

 ----------------------------------------------------------------------
 #P Geom=AllCheck Guess=TCheck SCRF=Check GenChk UB3LYP/6-311++G(d,p) F
 req
 ----------------------------------------------------------------------

 Structure from the checkpoint file:  "315-an.chk"
 -------
 Reduced
 -------
 Charge = -3 Multiplicity = 1

                          Input orientation:
 ---------------------------------------------------------------------
 Center     Atomic      Atomic             Coordinates (Angstroms)
 Number     Number       Type             X           Y           Z
 ---------------------------------------------------------------------
      1          6           0       -5.034522   -0.074904   -3.959765
      2          6           0       -4.480418   -0.055446   -5.231356
      3          6           0       -3.075355   -0.012273   -5.378869
      4          6           0       -4.240667   -0.050112   -2.793895
      5          6           0       -2.818494    0.027441   -2.944475
      6          6           0       -2.274118    0.028093   -4.250040
      7          6           0       -4.908844   -0.093682   -1.468635
      8          6           0       -3.996425   -0.033361   -0.341072
      9          6           0       -2.620100    0.044379   -0.509516
     10          6           0       -1.943949    0.083394   -1.773681
     11          8           0       -6.163168   -0.167068   -1.386877
     12          8           0       -0.668471    0.152556   -1.874244
     13         16           0       -4.621382   -0.065199    1.394926
     14          8           0       -5.495644    1.134205    1.573817
     15          8           0       -5.341611   -1.361499    1.585127
     16          8           0       -3.390226    0.014837    2.253820
     17          1           0       -6.109735   -0.113142   -3.816815
     18          1           0       -5.116818   -0.076150   -6.115754
     19          1           0       -2.634309   -0.007345   -6.375828
     20          1           0       -1.192222    0.065109   -4.330748
     21          1           0       -2.001430    0.082136    0.379827
 ---------------------------------------------------------------------

 SCF Done:  E(UB3LYP) =  -1158.42768483     A.U. after    4 cycles

 Alpha  occ. eigenvalues --  -88.68551 -18.72889 -18.72844 -18.72835 -18.72704
 Alpha  occ. eigenvalues --  -18.72414  -9.88610  -9.87916  -9.85504  -9.85396
 Alpha  occ. eigenvalues --   -9.85009  -9.84937  -9.84317  -9.84159  -9.84088
 Alpha  occ. eigenvalues --   -9.82363  -7.74373  -5.70654  -5.70636  -5.70551
 Alpha  occ. eigenvalues --   -0.74087  -0.64720  -0.63921  -0.60534  -0.60347
 Alpha  occ. eigenvalues --   -0.52821  -0.46701  -0.42378  -0.41116  -0.33921
 Alpha  occ. eigenvalues --   -0.29914  -0.28354  -0.24124  -0.21686  -0.17479
 Alpha  occ. eigenvalues --   -0.16310  -0.13471  -0.12544  -0.10439  -0.10027
 Alpha  occ. eigenvalues --   -0.08985  -0.08437  -0.07818  -0.07001  -0.06072
 Alpha  occ. eigenvalues --   -0.05043  -0.02477  -0.01993  -0.01781  -0.00788
 Alpha  occ. eigenvalues --    0.02869   0.03133   0.05536   0.05900   0.07047
 Alpha  occ. eigenvalues --    0.07117   0.07830   0.09300   0.10314   0.10908
 Alpha  occ. eigenvalues --    0.11362   0.20475
 Alpha virt. eigenvalues --    0.22056   0.23553   0.26729   0.28122   0.28834
 Alpha virt. eigenvalues --    0.29182   0.30922   0.32617   0.33179   0.34098
 Alpha virt. eigenvalues --    0.34565   0.34817   0.35400   0.35675   0.36409

  Beta  occ. eigenvalues --  -88.68551 -18.72889 -18.72844 -18.72835 -18.72704
  Beta  occ. eigenvalues --  -18.72414  -9.88610  -9.87916  -9.85504  -9.85396
  Beta  occ. eigenvalues --   -9.85009  -9.84937  -9.84317  -9.84159  -9.84088
  Beta  occ. eigenvalues --   -9.82363  -7.74373  -5.70654  -5.70636  -5.70551
  Beta  occ. eigenvalues --   -0.74087  -0.64720  -0.63921  -0.60534  -0.60347
  Beta  occ. eigenvalues --   -0.52821  -0.46701  -0.42378  -0.41116  -0.33921
  Beta  occ. eigenvalues --   -0.29914  -0.28354  -0.24124  -0.21686  -0.17479
  Beta  occ. eigenvalues --   -0.16310  -0.13471  -0.12544  -0.10439  -0.10027
  Beta  occ. eigenvalues --   -0.08985  -0.08437  -0.07818  -0.07001  -0.06072
  Beta  occ. eigenvalues --   -0.05043  -0.02477  -0.01993  -0.01781  -0.00788
  Beta  occ. eigenvalues --    0.02869   0.03133   0.05536   0.05900   0.07047
  Beta  occ. eigenvalues --    0.07117   0.07830   0.09300   0.10314   0.10908
  Beta  occ. eigenvalues --    0.11362   0.20475
  Beta virt. eigenvalues --    0.22056   0.23553   0.26729   0.28122   0.28834
  Beta virt. eigenvalues --    0.29182   0.30922   0.32617   0.33179   0.34098
  Beta virt. eigenvalues --    0.34565   0.34817   0.35400   0.35675   0.36409

 Mulliken charges and spin densities:
               1          2
     1  C   -0.517190  -0.000000
     2  C    1.545054  -0.000000
     3  C    2.259848   0.000000
     4  C    0.498219  -0.000000
     5  C    0.293857   0.000000
     6  C   -0.713964   0.000000
     7  C   -0.489310  -0.000000
     8  C   -0.276242  -0.000000
     9  C    0.058818   0.000000
    10  C   -0.713055  -0.000000
    11  O   -0.363761  -0.000000
    12  O   -0.492401  -0.000000
    13  S    0.679785  -0.000000
    14  O   -0.355890  -0.000000
    15  O   -0.347881   0.000000
    16  O   -0.436341  -0.000000
    17  H    0.232303   0.000000
    18  H   -1.859552   0.000000
    19  H   -2.473454   0.000000
    20  H    0.262359  -0.000000
    21  H    0.208795  -0.000000
 Sum of Mulliken charges =  -3.00000   0.00000

 Dipole moment (field-independent basis, Debye):
    X=             56.5161    Y=              0.5140    Z=             29.4908  Tot=             63.7499
 Quadrupole moment (field-independent basis, Debye-Ang):
   XX=           -404.0849   YY=           -132.3953   ZZ=           -399.0472
   XY=             -2.5693   XZ=            -92.5129   YZ=             -0.4337

  Exact polarizability:1358.432 -33.644 176.221  -5.609   6.3651321.461
 Approx polarizability:1389.455 -24.397 240.485 450.616  58.9328856.448

                      1                      2                      3
                      A                      A                      A
 Frequencies --     45.1012                59.8052               135.3998
 Red. masses --     12.1023                10.1238                 4.4933
 Frc consts  --      0.0145                 0.0213                 0.0485
 IR Inten    --      1.7414                10.8392                 0.7643

                      4                      5                      6
                      A                      A                      A
 Frequencies --    140.8069               144.5739               215.4323
 Red. masses --      9.9953                11.3063                 6.8675
 Frc consts  --      0.1168                 0.1392                 0.1878
 IR Inten    --      2.3461                 5.8557                66.3517

                      7                      8                      9
                      A                      A                      A
 Frequencies --    230.9719               271.6391               278.0399
 Red. masses --     12.7226                 7.0080                 6.5280
 Frc consts  --      0.3999                 0.3047                 0.2973
 IR Inten    --      0.2178                 3.8388                 4.3550

                     10                     11                     12
                      A                      A                      A
 Frequencies --    296.3297               357.8731               406.3399
 Red. masses --     15.2227                10.8914                 8.0857
 Frc consts  --      0.7876                 0.8218                 0.7866
 IR Inten    --     18.6421                81.7020                 4.6764

                     13                     14                     15
                      A                      A                      A
 Frequencies --    434.1099               459.8335               470.0449
 Red. masses --      3.4165                11.6089                 5.9111
 Frc consts  --      0.3793                 1.4462                 0.7695
 IR Inten    --     24.2397               522.2756                11.4663

                     16                     17                     18
                      A                      A                      A
 Frequencies --    482.6773               491.4383               535.5393
 Red. masses --      8.1997                16.4513                 9.0271
 Frc consts  --      1.1255                 2.3409                 1.5254
 IR Inten    --    243.1712                 9.4708                17.8884

                     19                     20                     21
                      A                      A                      A
 Frequencies --    576.8381               625.8139               653.8516
 Red. masses --      9.4101                11.5259                 3.8989
 Frc consts  --      1.8448                 2.6596                 0.9821
 IR Inten    --    214.1664               319.2576                 9.6607

                     22                     23                     24
                      A                      A                      A
 Frequencies --    665.0451               708.2552               721.0131
 Red. masses --      6.2681                 5.2894                 6.3392
 Frc consts  --      1.6334                 1.5633                 1.9417
 IR Inten    --     97.1007                 0.5339                11.7174

                     25                     26                     27
                      A                      A                      A
 Frequencies --    779.7439               807.7707               825.6317
 Red. masses --      5.1412                 8.8308                 5.2810
 Frc consts  --      1.8417                 3.3949                 2.1210
 IR Inten    --      3.7460                15.9508               220.1324

                     28                     29                     30
                      A                      A                      A
 Frequencies --    880.3010               892.7134               900.4774
 Red. masses --      1.3564                 1.4291                 1.4918
 Frc consts  --      0.6193                 0.6710                 0.7127
 IR Inten    --      4.7114                36.9555                49.1670

                     31                     32                     33
                      A                      A                      A
 Frequencies --    953.3591              1012.6206              1020.6866
 Red. masses --     15.7734                 1.2503                 2.5552
 Frc consts  --      8.4467                 0.7554                 1.5684
 IR Inten    --   1174.3681                19.7299                41.9152

                     34                     35                     36
                      A                      A                      A
 Frequencies --   1073.4907              1088.2490              1097.1107
 Red. masses --      3.3546                 3.6481                 5.7537
 Frc consts  --      2.2776                 2.5455                 4.0804
 IR Inten    --     24.4724                16.2233               278.0409

                     37                     38                     39
                      A                      A                      A
 Frequencies --   1124.1035              1130.0152              1140.8471
 Red. masses --     20.4141                 1.6510                 1.7882
 Frc consts  --     15.1982                 1.2421                 1.3713
 IR Inten    --    299.6530               209.3090               103.1397

                     40                     41                     42
                      A                      A                      A
 Frequencies --   1190.4680              1196.8677              1228.9833
 Red. masses --      1.2463                 2.0860                 1.8850
 Frc consts  --      1.0406                 1.7606                 1.6774
 IR Inten    --   2317.3160                26.0803               325.5278

                     43                     44                     45
                      A                      A                      A
 Frequencies --   1271.7462              1340.8402              1371.7196
 Red. masses --      1.8921                 9.9523                 3.9431
 Frc consts  --      1.8030                10.5421                 4.3714
 IR Inten    --    513.4237               345.8673                70.1673

                     46                     47                     48
                      A                      A                      A
 Frequencies --   1419.6184              1441.8967              1464.1011
 Red. masses --      6.7376                 2.8436                 3.2906
 Frc consts  --      8.0002                 3.4833                 4.1559
 IR Inten    --    546.9527               105.1735               181.1610

                     49                     50                     51
                      A                      A                      A
 Frequencies --   1507.4502              1523.7457              1567.8133
 Red. masses --      4.1384                 6.5728                 6.3904
 Frc consts  --      5.5407                 8.9913                 9.2548
 IR Inten    --   2411.0710               349.2935              1540.0908

                     52                     53                     54
                      A                      A                      A
 Frequencies --   1599.5640              3094.8808              3116.9163
 Red. masses --      5.8632                 1.0858                 1.0922
 Frc consts  --      8.8387                 6.1273                 6.2515
 IR Inten    --    345.3132               753.7875                84.9389

                     55                     56                     57
                      A                      A                      A
 Frequencies --   3155.6391              3159.1296              3177.5780
 Red. masses --      1.0900                 1.0902                 1.0874
 Frc consts  --      6.3954                 6.4102                 6.4686
 IR Inten    --      9.0459                25.0391                12.7791

 - Thermochemistry -
 -------------------
 Temperature   298.150 Kelvin.  Pressure   1.00000 Atm.
 Atom     1 has atomic number  6 and mass  12.00000

 Molecular mass:   236.98577 amu.
 Principal axes and moments of inertia in atomic units:
                           1         2         3
     Eigenvalues --  1799.506565494.534676936.68629
           X           -0.24627   0.96768  -0.05434
           Y           -0.01138   0.05317   0.99852
           Z            0.96913   0.24652  -0.00209
 This molecule is an asymmetric top.
 Rotational symmetry number  1.
 Warning -- assumption of classical behavior for rotation
           may cause significant error
 Rotational temperatures (Kelvin)      0.04813     0.01576     0.01249
 Rotational constants (GHZ):           1.00291     0.32846     0.26017
 Zero-point vibrational energy     346694.8 (Joules/Mol)
                                   82.86206 (Kcal/Mol)
 Warning -- explicit consideration of  19 degrees of freedom as
           vibrations may cause significant error
 Vibrational temperatures:     64.89    86.05   194.81   202.59   208.01
          (Kelvin)            309.96   332.32   390.83   400.04   426.35
                              514.90   584.63   624.59   661.60   676.29
                              694.46   707.07   770.52   829.94   900.41
                              940.75   956.85  1019.02  1037.38  1121.88
                             1162.20  1187.90  1266.56  1284.42  1295.59
                             1371.67  1456.94  1468.54  1544.51  1565.75
                             1578.50  1617.33  1625.84  1641.42  1712.82
                             1722.03  1768.23  1829.76  1929.17  1973.60
                             2042.51  2074.57  2106.51  2168.88  2192.33
                             2255.73  2301.42  4452.84  4484.55  4540.26
                             4545.28  4571.83

 Zero-point correction=                           0.132049 (Hartree/Particle)
 Thermal correction to Energy=                    0.144572
 Thermal correction to Enthalpy=                  0.145517
 Thermal correction to Gibbs Free Energy=         0.092417
 Sum of electronic and zero-point Energies=          -1158.295636
 Sum of electronic and thermal Energies=             -1158.283112
 Sum of electronic and thermal Enthalpies=           -1158.282168
 Sum of electronic and thermal Free Energies=        -1158.335268

                     E (Thermal)             CV                S
                      KCal/Mol        Cal/Mol-Kelvin    Cal/Mol-Kelvin
 Total                   90.721             48.460            111.758
 Electronic               0.000              0.000              0.000
 Translational            0.889              2.981             42.290
 Rotational               0.889              2.981             32.595
 Vibrational             88.943             42.499             36.874
 Vibration     1          0.595              1.979              5.021
 Vibration     2          0.597              1.973              4.464
 Vibration     3          0.613              1.918              2.868
 Vibration     4          0.615              1.912              2.793
 Vibration     5          0.616              1.909              2.742
 Vibration     6          0.645              1.817              1.997
 Vibration     7          0.653              1.794              1.871
 Vibration     8          0.675              1.726              1.586
 Vibration     9          0.679              1.714              1.546
 Vibration    10          0.690              1.681              1.438
 Vibration    11          0.733              1.559              1.131
 Vibration    12          0.771              1.456              0.940
 Vibration    13          0.795              1.396              0.845
 Vibration    14          0.818              1.339              0.767
 Vibration    15          0.827              1.317              0.737
 Vibration    16          0.839              1.288              0.703
 Vibration    17          0.847              1.269              0.680
 Vibration    18          0.891              1.171              0.575
 Vibration    19          0.933              1.081              0.491

 Optimization completed.
    -- Stationary point found.
 Normal termination of Gaussian 16 at Tue Jan  9 02:18:42 2024.
