 Q-Chem 5.4, Q-Chem, Inc., Pleasanton, CA (2021)
 Q-Chem 5.4.0 for Intel X86 EM64T Linux

User input:
--------------------------------------------------------------
$molecule
-3 1
C                 -5.0345220000     -0.0749040000     -3.9597650000
C                 -4.4804180000     -0.0554460000     -5.2313560000
C                 -3.0753550000     -0.0122730000     -5.3788690000
C                 -4.2406670000     -0.0501120000     -2.7938950000
C                 -2.8184940000      0.0274410000     -2.9444750000
C                 -2.2741180000      0.0280930000     -4.2500400000
C                 -4.9088440000     -0.0936820000     -1.4686350000
C                 -3.9964250000     -0.0333610000     -0.3410720000
C                 -2.6201000000      0.0443790000     -0.5095160000
C                 -1.9439490000      0.0833940000     -1.7736810000
O                 -6.1631680000     -0.1670680000     -1.3868770000
O                 -0.6684710000      0.1525560000     -1.8742440000
S                 -4.6213820000     -0.0651990000      1.3949260000
O                 -5.4956440000      1.1342050000      1.5738170000
O                 -5.3416110000     -1.3614990000      1.5851270000
O                 -3.3902260000      0.0148370000      2.2538200000
H                 -6.1097350000     -0.1131420000     -3.8168150000
H                 -5.1168180000     -0.0761500000     -6.1157540000
H                 -2.6343090000     -0.0073450000     -6.3758280000
H                 -1.1922220000      0.0651090000     -4.3307480000
H                 -2.0014300000      0.0821360000      0.3798270000
$end
$rem
MAX_SCF_CYCLES=200
BASIS  =  6-311++G(d,p)
GUI  =  2
JOB_TYPE  =  SP
METHOD  =  B3LYP
SOLVENT_METHOD = COSMO
$end
$solvent
dielectric 37.219
opticaldielectric 1.43
$end

--------------------------------------------------------------

             Standard Nuclear Orientation (Angstroms)
    I     Atom           X                Y                Z
 ----------------------------------------------------------------
    1      C       2.3539361825    -1.7406475065    -0.0224059580
    2      C       3.7204612084    -1.5021048040    -0.0146432022
    3      C       4.1955809417    -0.1712935358     0.0174291329
    4      C       1.4084662914    -0.6938668032    -0.0021548998
    5      C       1.8909692786     0.6546338103    -0.0034998897
    6      C       3.2880129257     0.8747275633     0.0224502881
    7      C      -0.0373678663    -1.0316988904     0.0081400059
    8      C      -0.9172752262     0.1229562885    -0.0007947239
    9      C      -0.4282219339     1.4227632062    -0.0048256169
   10      C       0.9600750511     1.7825131080    -0.0100200440
   11      O      -0.4133702980    -2.2333577436     0.0142017207
   12      O       1.3592939350     3.0000368879    -0.0107655231
   13      S      -2.7519241216    -0.0753727121     0.0009385563
   14      O      -3.1190580500    -0.8182734926    -1.2433351671
   15      O      -3.1204703159    -0.7976182501     1.2570575827
   16      O      -3.2953852069     1.3261817084    -0.0111037039
   17      H       1.9610816858    -2.7522171290    -0.0416954832
   18      H       4.4295842505    -2.3294522025    -0.0299478201
   19      H       5.2684196490     0.0216041394     0.0341832961
   20      H       3.6219469589     1.9074086373     0.0434450800
   21      H      -1.1461482288     2.2349724515    -0.0074918030
 ----------------------------------------------------------------

   24   -1158.4276932889      4.67e-06  Convergence criterion met
 Total energy in the final basis set =    -1158.4276932889
    6   -1158.9923654247      5.18e-06  Convergence criterion met
 Total energy in the final basis set =    -1158.9923654247

                    Orbital Energies (a.u.)
 --------------------------------------------------------------

 Alpha MOs
 -- Occupied --
-89.0253 -19.0743 -19.0742 -19.0723 -19.0247 -19.0196 -10.1863 -10.1727
-10.1522 -10.1505 -10.1483 -10.1476 -10.1464 -10.1420 -10.1408 -10.1206
 -8.0841  -6.0471  -6.0470  -6.0452  -1.0865  -0.9555  -0.9534  -0.9492
 -0.9397  -0.8286  -0.7696  -0.7236  -0.7147  -0.6430  -0.6091  -0.5853
 -0.5537  -0.5266  -0.4808  -0.4751  -0.4495  -0.4375  -0.4361  -0.4274
 -0.4049  -0.4001  -0.3837  -0.3773  -0.3668  -0.3563  -0.3316  -0.3279
 -0.3223  -0.3194  -0.3182  -0.3092  -0.2852  -0.2756  -0.2744  -0.2416
 -0.2331  -0.2310  -0.2211  -0.2047  -0.1975  -0.1125

          Ground-State Mulliken Net Atomic Charges

     Atom                 Charge (a.u.)
  ----------------------------------------
      1 C                     0.068062
      2 C                    -0.471452
      3 C                    -0.429077
      4 C                    -0.015961
      5 C                     0.405244
      6 C                    -0.029555
      7 C                    -0.499001
      8 C                    -0.523518
      9 C                    -0.019037
     10 C                    -0.379254
     11 O                    -0.627063
     12 O                    -0.747898
     13 S                     0.808722
     14 O                    -0.449682
     15 O                    -0.446484
     16 O                    -0.515977
     17 H                     0.156250
     18 H                     0.181104
     19 H                     0.184850
     20 H                     0.152929
     21 H                     0.196798
  ----------------------------------------
  Sum of atomic charges =    -3.000000

                    Cartesian Multipole Moments
 -----------------------------------------------------------------
    Charge (ESU x 10^10)
               -14.4096
    Dipole Moment (Debye)
         X      13.6393      Y      -3.3341      Z       0.0006
       Tot      14.0409
    Quadrupole Moments (Debye-Ang)
        XX    -190.1548     XY     -19.4501     YY    -170.2121
        XZ       0.1419     YZ       0.3777     ZZ    -121.0215

 Total job time:  111.64s(wall), 552.78s(cpu)
        *  Thank you very much for using Q-Chem.  Have a nice day.  *
