 Q-Chem 5.4, Q-Chem, Inc., Pleasanton, CA (2021)
 Q-Chem 5.4.0 for Intel X86 EM64T Linux

User input:
--------------------------------------------------------------
$molecule
-1 2
C                 -3.1498000000      1.4230710000      0.1950880000
C                 -2.4122320000      0.6542510000     -0.9177600000
C                 -1.0496530000      0.1562340000     -0.4895070000
C                 -0.8596900000     -1.1291870000      0.0083500000
C                 -2.0039080000     -2.1091500000      0.1350010000
C                  0.4438140000     -1.6080180000      0.4260590000
O                  0.6274130000     -2.7750580000      0.8737030000
C                  1.5644490000     -0.6629370000      0.3074760000
C                  2.8593610000     -1.0596530000      0.6973850000
C                  3.9321240000     -0.1916790000      0.5964830000
C                  3.7369190000      1.1114370000      0.0972130000
C                  2.4725230000      1.5187340000     -0.2898240000
C                  1.3684020000      0.6485440000     -0.1943820000
C                  0.0359150000      1.1069870000     -0.6120520000
O                 -0.1425570000      2.2766420000     -1.0548660000
H                 -4.1247860000      1.7857080000     -0.1532350000
H                 -2.5565380000      2.2856550000      0.5070380000
H                 -3.3178260000      0.7895910000      1.0719900000
H                 -3.0349500000     -0.1790940000     -1.2570070000
H                 -2.2731450000      1.3335510000     -1.7633220000
H                 -1.6452650000     -3.0095740000      0.6342760000
H                 -2.8405970000     -1.6948800000      0.7086170000
H                 -2.4019580000     -2.3991670000     -0.8460910000
H                  2.9790780000     -2.0678080000      1.0774000000
H                  4.9240420000     -0.5132890000      0.9013390000
H                  4.5782320000      1.7940550000      0.0173530000
H                  2.2906350000      2.5150360000     -0.6767250000
$end
$rem
MAX_SCF_CYCLES=200
BASIS  =  6-311++G(d,p)
GUI  =  2
JOB_TYPE  =  SP
METHOD  =  B3LYP
SOLVENT_METHOD = COSMO
$end
$solvent
dielectric 37.219
opticaldielectric 1.43
$end

--------------------------------------------------------------

             Standard Nuclear Orientation (Angstroms)
    I     Atom           X                Y                Z
 ----------------------------------------------------------------
    1      C      -3.4960193004     1.1807380593     0.9383302800
    2      C      -2.8659399756     0.7746014632    -0.4076171662
    3      C      -1.4554382322     0.2471072619    -0.2652170430
    4      C      -1.1869439086    -1.1138279252    -0.1555771975
    5      C      -2.2906625666    -2.1464512812    -0.1886969391
    6      C       0.1633120583    -1.6229143311    -0.0123205450
    7      O       0.4176776630    -2.8568046272     0.0819608504
    8      C       1.2451678923    -0.6271651740     0.0213602831
    9      C       2.5822219973    -1.0502115105     0.1611022537
   10      C       3.6199666091    -0.1357247356     0.1954619903
   11      C       3.3457462544     1.2423612491     0.0897782627
   12      C       2.0391160590     1.6763070232    -0.0473141434
   13      C       0.9696618093     0.7596219910    -0.0844511001
   14      C      -0.4089812481     1.2476673534    -0.2303786954
   15      O      -0.6577879427     2.4830312432    -0.3198247735
   16      H      -4.5099021311     1.5754394972     0.7980285097
   17      H      -2.8906951484     1.9562155527     1.4132419438
   18      H      -3.5562959739     0.3283072539     1.6225928094
   19      H      -3.5040641190     0.0331308954    -0.8978712822
   20      H      -2.8320240786     1.6613295882    -1.0466255572
   21      H      -1.8622618611    -3.1290695103     0.0102954184
   22      H      -3.0696050944    -1.9420316602     0.5543808415
   23      H      -2.7852286869    -2.1823855490    -1.1680887179
   24      H       2.7625877266    -2.1162200795     0.2399311755
   25      H       4.6451912249    -0.4784900363     0.3036189476
   26      H       4.1594790375     1.9615795453     0.1165461092
   27      H       1.7964566527     2.7297249131    -0.1299002527
 ----------------------------------------------------------------

   10    -653.3091676918      5.40e-06  Convergence criterion met
 Total energy in the final basis set =     -653.3091676918
    5    -653.3912647435      4.81e-06  Convergence criterion met
 Total energy in the final basis set =     -653.3912647435

                    Orbital Energies (a.u.)
 --------------------------------------------------------------

 Alpha MOs
 -- Occupied --
-19.0751 -19.0742 -10.2187 -10.2177 -10.1703 -10.1701 -10.1698 -10.1696
-10.1673 -10.1673 -10.1673 -10.1635 -10.1560 -10.1506 -10.1498  -1.0001
 -0.9973  -0.8557  -0.8162  -0.7623  -0.7477  -0.7407  -0.6907  -0.6563
 -0.6283  -0.5937  -0.5759  -0.5486  -0.5125  -0.4872  -0.4644  -0.4508
 -0.4338  -0.4235  -0.4221  -0.4148  -0.4079  -0.4056  -0.3951  -0.3785
 -0.3778  -0.3667  -0.3618  -0.3538  -0.3466  -0.3383  -0.3284  -0.3258
 -0.2676  -0.2553  -0.2465  -0.2388  -0.2339  -0.1504

 Beta MOs
 -- Occupied --
-19.0691 -19.0682 -10.2169 -10.2159 -10.1700 -10.1696 -10.1695 -10.1690
-10.1673 -10.1673 -10.1660 -10.1622 -10.1561 -10.1504 -10.1499  -0.9896
 -0.9866  -0.8536  -0.8123  -0.7603  -0.7458  -0.7388  -0.6876  -0.6500
 -0.6265  -0.5925  -0.5731  -0.5459  -0.5104  -0.4849  -0.4616  -0.4498
 -0.4301  -0.4226  -0.4166  -0.4104  -0.4049  -0.4022  -0.3883  -0.3762
 -0.3697  -0.3655  -0.3532  -0.3455  -0.3391  -0.3339  -0.3265  -0.3240
 -0.2488  -0.2458  -0.2410  -0.2301  -0.2279

          Ground-State Mulliken Net Atomic Charges

     Atom                 Charge (a.u.)    Spin (a.u.)
  --------------------------------------------------------
      1 C                    -0.682457       0.008888
      2 C                    -0.351522       0.001615
      3 C                     0.802615       0.093784
      4 C                     0.605841       0.097304
      5 C                    -0.485513      -0.000944
      6 C                    -0.535880       0.117148
      7 O                    -0.517483       0.219217
      8 C                     0.159400       0.006771
      9 C                     0.111009       0.032305
     10 C                    -0.473055       0.025684
     11 C                    -0.455527       0.026550
     12 C                     0.053453       0.031340
     13 C                    -0.035755       0.005342
     14 C                    -0.748513       0.113526
     15 O                    -0.504075       0.217294
     16 H                     0.140736       0.002456
     17 H                     0.171366      -0.000953
     18 H                     0.132034      -0.001174
     19 H                     0.163287       0.001199
     20 H                     0.172467       0.002182
     21 H                     0.177834      -0.001269
     22 H                     0.167883       0.004449
     23 H                     0.178160       0.005752
     24 H                     0.179487      -0.002041
     25 H                     0.196753      -0.002178
     26 H                     0.197204      -0.002212
     27 H                     0.180252      -0.002036
  --------------------------------------------------------
  Sum of atomic charges =    -1.000000

                    Cartesian Multipole Moments
 -----------------------------------------------------------------
    Charge (ESU x 10^10)
                -4.8032
    Dipole Moment (Debye)
         X      -0.3313      Y       0.8018      Z       0.4817
       Tot       0.9923
    Quadrupole Moments (Debye-Ang)
        XX     -88.3799     XY       8.5872     YY    -128.8554
        XZ       0.4573     YZ       2.5390     ZZ     -95.5034

 Total job time:  71.96s(wall), 550.04s(cpu)
        *  Thank you very much for using Q-Chem.  Have a nice day.  *
