 Q-Chem 5.4, Q-Chem, Inc., Pleasanton, CA (2021)
 Q-Chem 5.4.0 for Intel X86 EM64T Linux

User input:
--------------------------------------------------------------
$molecule
-1 2
C                  4.6082680000      5.0515060000     -1.3404630000
O                  3.9633950000      3.8634860000     -0.9375840000
C                  4.6247990000      2.6765690000     -1.0671090000
C                  5.9097840000      2.6096300000     -1.5858380000
C                  6.5672940000      1.3703300000     -1.7065460000
C                  5.9398490000      0.2132530000     -1.3100260000
C                  4.6351970000      0.2480170000     -0.7769930000
C                  4.0516300000     -1.0506840000     -0.3776060000
O                  4.7077040000     -2.0963850000     -0.5482520000
C                  2.7041790000     -1.0219240000      0.2001160000
C                  2.0584260000     -2.1959350000      0.6736720000
O                  2.7556260000     -3.3783750000      0.6603490000
C                  0.7577460000     -2.1650060000      1.1798190000
C                  0.1853330000     -3.4394180000      1.7782100000
C                 -1.3057730000     -3.3956130000      2.1714860000
O                 -2.1387210000     -3.7273930000      1.0600520000
C                 -1.6578570000     -2.0055860000      2.7472710000
C                 -1.3659480000     -0.8918320000      1.7453030000
O                 -2.3623010000     -1.0805730000      0.6701980000
C                 -2.6417850000      0.0313040000     -0.1254070000
C                 -3.3452420000     -0.4250250000     -1.4029850000
C                 -4.2558620000      0.6835230000     -1.9779940000
N                 -4.3953280000      0.5069430000     -3.4263890000
C                 -3.7384480000      2.0655170000     -1.5408550000
O                 -2.4528020000      2.2297990000     -2.1423390000
C                 -3.7661590000      2.1547070000      0.0045690000
C                 -2.8646510000      3.2432860000      0.5880720000
O                 -3.5153270000      0.8898420000      0.6298500000
C                  0.0494920000     -0.9412160000      1.2294160000
C                  0.6782140000      0.2386510000      0.8296300000
O                  0.0162440000      1.4099600000      0.9418320000
C                  2.0088720000      0.2224290000      0.3067810000
C                  2.5983150000      1.4899160000     -0.0986670000
O                  1.9176140000      2.5739260000      0.0374800000
C                  3.9412270000      1.4858400000     -0.6433090000
C                 -1.5880340000     -4.4397860000      3.2754700000
C                 -2.8289680000     -5.2910370000      3.1313730000
O                 -0.8513920000     -4.5427290000      4.2351130000
H                  3.8963320000      5.8533300000     -1.1425780000
H                  4.8536520000      5.0431960000     -2.4105120000
H                  5.5263640000      5.2353100000     -0.7672320000
H                  6.4198660000      3.5088150000     -1.9028700000
H                  7.5725750000      1.3407920000     -2.1152760000
H                  6.4161570000     -0.7551870000     -1.3896510000
H                  2.1790480000     -4.0761350000      0.9846120000
H                  0.7570630000     -3.6979540000      2.6783020000
H                  0.2792320000     -4.2801150000      1.0772330000
H                 -2.3411730000     -2.9022250000      0.5885200000
H                 -1.0562510000     -1.8408340000      3.6448880000
H                 -2.7144320000     -1.9729750000      3.0286890000
H                 -1.5659360000      0.0797510000      2.1972220000
H                 -1.7235880000      0.5756230000     -0.3477550000
H                 -2.5891590000     -0.7035000000     -2.1411230000
H                 -3.9428130000     -1.3141180000     -1.1883360000
H                 -5.2547070000      0.5760640000     -1.5412710000
H                 -3.4980680000      0.6845200000     -3.8702700000
H                 -5.0494500000      1.1861440000     -3.8054990000
H                 -4.4131770000      2.8462430000     -1.9258580000
H                 -1.9401780000      2.8895650000     -1.6643130000
H                 -4.8062400000      2.3860630000      0.2650120000
H                 -1.8075330000      2.9948220000      0.4701000000
H                 -3.0499320000      3.3309300000      1.6604700000
H                 -3.0722710000      4.2158570000      0.1264590000
H                  0.7213410000      2.1085210000      0.5921250000
H                 -2.7507080000     -5.9076260000      2.2322950000
H                 -2.9413760000     -5.9142690000      4.0182870000
H                 -3.7092530000     -4.6605300000      2.9833720000
$end
$rem
MAX_SCF_CYCLES=200
BASIS  =  6-311++G(d,p)
GUI  =  2
JOB_TYPE  =  SP
SCF_CONVERGENCE  = 6
METHOD  =  B3LYP
SOLVENT_METHOD = COSMO
$end
$solvent
dielectric 37.219
opticaldielectric 1.43
$end

--------------------------------------------------------------

             Standard Nuclear Orientation (Angstroms)
    I     Atom           X                Y                Z
 ----------------------------------------------------------------
    1      C       6.3060401599    -2.5157114927    -1.1683212000
    2      O       5.1365671137    -1.7563695054    -0.9554909021
    3      C       5.2325355070    -0.5685206462    -0.2900518764
    4      C       6.4468773566    -0.0926056119     0.1828390284
    5      C       6.5147890419     1.1372174734     0.8652446945
    6      C       5.3753235028     1.8787660622     1.0688779386
    7      C       4.1265719515     1.4237019301     0.5987867192
    8      C       2.9636453276     2.2971024924     0.8661026968
    9      O       3.1256905730     3.3569641633     1.5013021214
   10      C       1.6642637124     1.8436152081     0.3599695667
   11      C       0.4829260999     2.6203292994     0.5038817474
   12      O       0.5837924440     3.8694077972     1.0642910469
   13      C      -0.7575063486     2.1593016189     0.0592575580
   14      C      -1.9485051037     3.1000131562     0.1394956178
   15      C      -3.3216466534     2.4894230130    -0.2092793166
   16      O      -3.9194064834     1.8841191246     0.9376541007
   17      C      -3.1693844836     1.4784028428    -1.3678650998
   18      C      -2.1936379813     0.3596688599    -1.0129682858
   19      O      -2.8807682810    -0.4217146214     0.0365482855
   20      C      -2.4527259002    -1.7375420394     0.2175096390
   21      C      -2.9511981582    -2.2502562626     1.5680439727
   22      C      -3.1268868304    -3.7857885955     1.5639515665
   23      N      -2.9731707273    -4.3046147006     2.9261814186
   24      C      -2.1883548234    -4.4175562098     0.5205233121
   25      O      -0.8539198451    -4.1528083915     0.9573861010
   26      C      -2.5485550827    -3.8747099209    -0.8839807909
   27      C      -1.4376941598    -4.0317923015    -1.9229754011
   28      O      -3.0260547088    -2.5241431303    -0.8422681964
   29      C      -0.8589871136     0.8876065212    -0.5524930346
   30      C       0.2921840498     0.1278211114    -0.7640052574
   31      O       0.1932067596    -1.0552985085    -1.4068036739
   32      C       1.5690595393     0.5855654713    -0.3119609805
   33      C       2.7251371095    -0.2633553693    -0.5592916990
   34      O       2.5665148813    -1.3788223070    -1.1818188363
   35      C       4.0231744568     0.1822698424    -0.0939086552
   36      C      -4.2837902905     3.6006188384    -0.6870581959
   37      C      -5.6942006546     3.5852127898    -0.1431697320
   38      O      -3.9200075169     4.4316735624    -1.4940052352
   39      H       5.9839057434    -3.4043662210    -1.7118791638
   40      H       6.7751377825    -2.8210807718    -0.2238720221
   41      H       7.0446015329    -1.9721817606    -1.7719605655
   42      H       7.3540820765    -0.6613751559     0.0321492743
   43      H       7.4753308571     1.4907841399     1.2270079164
   44      H       5.3922219124     2.8272401841     1.5896434991
   45      H      -0.2963419858     4.2532065311     1.1144868469
   46      H      -1.7806354819     3.9453717023    -0.5395260190
   47      H      -2.0586448865     3.5100304483     1.1527637319
   48      H      -3.6262372284     0.9581490213     0.9670245470
   49      H      -2.7928455381     2.0116193534    -2.2446135556
   50      H      -4.1423616851     1.0456500563    -1.6181662982
   51      H      -2.0591018625    -0.3042334662    -1.8669783810
   52      H      -1.3662155053    -1.7933664170     0.1454934014
   53      H      -2.2346317947    -1.9612904458     2.3407592754
   54      H      -3.9053351550    -1.7738565580     1.8053572017
   55      H      -4.1475477530    -4.0193812073     1.2420020018
   56      H      -2.0089522303    -4.1780402806     3.2226625257
   57      H      -3.1579677837    -5.3037469043     2.9485167890
   58      H      -2.3459703930    -5.5074067621     0.5004552683
   59      H      -0.2401467442    -4.2143611004     0.2184157082
   60      H      -3.4166107866    -4.4608195448    -1.2096791870
   61      H      -0.5967042406    -3.3664667920    -1.7150616204
   62      H      -1.8209666772    -3.7568865631    -2.9076464134
   63      H      -1.0880131079    -5.0697850948    -1.9717719105
   64      H       1.1916133832    -1.3865742703    -1.4365495923
   65      H      -5.6735325689     3.7348315539     0.9393435143
   66      H      -6.2749599497     4.3683487788    -0.6300853216
   67      H      -6.1526197182     2.6054364974    -0.2988470688
 ----------------------------------------------------------------

   14   -1853.9090693458      6.78e-07  Convergence criterion met
 Total energy in the final basis set =    -1853.9090693458
    7   -1854.0131811142      7.09e-07  Convergence criterion met
 Total energy in the final basis set =    -1854.0131811142

                    Orbital Energies (a.u.)
 --------------------------------------------------------------

 Alpha MOs
 -- Occupied --
-19.1539 -19.1493 -19.1435 -19.1300 -19.1291 -19.1255 -19.1226 -19.1180
-19.0930 -19.0771 -14.2951 -10.2735 -10.2660 -10.2472 -10.2425 -10.2394
-10.2344 -10.2341 -10.2329 -10.2328 -10.2259 -10.2225 -10.2143 -10.2027
-10.1884 -10.1839 -10.1834 -10.1814 -10.1813 -10.1799 -10.1779 -10.1772
-10.1750 -10.1701 -10.1685 -10.1651 -10.1632 -10.1580  -1.0756  -1.0729
 -1.0660  -1.0635  -1.0506  -1.0371  -1.0309  -1.0111  -1.0103  -1.0038
 -0.8896  -0.8671  -0.8565  -0.8243  -0.7872  -0.7819  -0.7707  -0.7629
 -0.7566  -0.7549  -0.7414  -0.7276  -0.7022  -0.6977  -0.6730  -0.6686
 -0.6459  -0.6380  -0.6189  -0.6117  -0.5982  -0.5925  -0.5721  -0.5685
 -0.5645  -0.5414  -0.5383  -0.5368  -0.5291  -0.5241  -0.5002  -0.4967
 -0.4942  -0.4913  -0.4854  -0.4830  -0.4761  -0.4715  -0.4699  -0.4693
 -0.4625  -0.4602  -0.4518  -0.4480  -0.4450  -0.4391  -0.4339  -0.4318
 -0.4293  -0.4247  -0.4195  -0.4168  -0.4140  -0.4081  -0.4062  -0.4020
 -0.3977  -0.3941  -0.3929  -0.3874  -0.3818  -0.3772  -0.3759  -0.3752
 -0.3730  -0.3699  -0.3679  -0.3631  -0.3615  -0.3598  -0.3564  -0.3538
 -0.3487  -0.3435  -0.3337  -0.3303  -0.3237  -0.3220  -0.3078  -0.2968
 -0.2890  -0.2794  -0.2724  -0.2631  -0.2625  -0.2533  -0.2503  -0.2490
 -0.2371  -0.2353  -0.2138  -0.1436

 Beta MOs
 -- Occupied --
-19.1537 -19.1490 -19.1433 -19.1300 -19.1291 -19.1255 -19.1226 -19.1176
-19.0884 -19.0721 -14.2951 -10.2735 -10.2660 -10.2472 -10.2422 -10.2368
-10.2345 -10.2337 -10.2326 -10.2315 -10.2259 -10.2225 -10.2143 -10.2027
-10.1873 -10.1840 -10.1833 -10.1813 -10.1808 -10.1799 -10.1768 -10.1763
-10.1742 -10.1697 -10.1685 -10.1651 -10.1633 -10.1580  -1.0754  -1.0725
 -1.0660  -1.0628  -1.0481  -1.0370  -1.0309  -1.0108  -1.0017  -0.9973
 -0.8896  -0.8649  -0.8549  -0.8232  -0.7857  -0.7803  -0.7706  -0.7614
 -0.7558  -0.7537  -0.7405  -0.7256  -0.7019  -0.6972  -0.6689  -0.6666
 -0.6436  -0.6377  -0.6182  -0.6112  -0.5968  -0.5914  -0.5709  -0.5679
 -0.5643  -0.5411  -0.5371  -0.5364  -0.5288  -0.5228  -0.4996  -0.4962
 -0.4933  -0.4904  -0.4850  -0.4823  -0.4756  -0.4713  -0.4687  -0.4681
 -0.4623  -0.4596  -0.4510  -0.4461  -0.4432  -0.4369  -0.4327  -0.4313
 -0.4279  -0.4207  -0.4176  -0.4144  -0.4120  -0.4074  -0.4049  -0.3970
 -0.3966  -0.3912  -0.3900  -0.3873  -0.3816  -0.3768  -0.3749  -0.3737
 -0.3694  -0.3675  -0.3629  -0.3623  -0.3599  -0.3563  -0.3525  -0.3501
 -0.3471  -0.3431  -0.3332  -0.3300  -0.3236  -0.3174  -0.3022  -0.2953
 -0.2889  -0.2791  -0.2649  -0.2626  -0.2545  -0.2499  -0.2489  -0.2452
 -0.2327  -0.2281  -0.2053

          Ground-State Mulliken Net Atomic Charges

     Atom                 Charge (a.u.)    Spin (a.u.)
  --------------------------------------------------------
      1 C                    -0.286406      -0.000680
      2 O                    -0.179800       0.004531
      3 C                     0.077657       0.032092
      4 C                    -0.174302       0.032592
      5 C                    -0.450734       0.064168
      6 C                    -0.037023       0.018369
      7 C                     0.163891       0.074031
      8 C                    -0.459648       0.065439
      9 O                    -0.465816       0.187785
     10 C                    -0.157792       0.022102
     11 C                    -0.297646       0.017248
     12 O                    -0.272133       0.006887
     13 C                     0.153015       0.077713
     14 C                    -0.824262      -0.004828
     15 C                     0.516991       0.002279
     16 O                    -0.204082      -0.000870
     17 C                    -1.257161       0.001699
     18 C                     0.069508       0.012845
     19 O                     0.092391      -0.001328
     20 C                    -0.293390      -0.005668
     21 C                    -0.615509       0.003715
     22 C                    -0.345343      -0.002601
     23 N                    -0.400906       0.000102
     24 C                    -0.140145       0.001031
     25 O                    -0.261298      -0.000021
     26 C                    -0.081784      -0.001586
     27 C                    -0.608591       0.000524
     28 O                    -0.109126      -0.000515
     29 C                     0.482497       0.057900
     30 C                    -0.373615       0.006487
     31 O                    -0.423016       0.015379
     32 C                     0.708724       0.008991
     33 C                    -0.452693       0.148602
     34 O                    -0.507164       0.164969
     35 C                     0.213618      -0.012745
     36 C                     0.197115       0.000375
     37 C                    -0.548226       0.000043
     38 O                    -0.363867       0.000152
     39 H                     0.205439      -0.000154
     40 H                     0.166557       0.000588
     41 H                     0.167428       0.000549
     42 H                     0.200371      -0.002299
     43 H                     0.218813      -0.004587
     44 H                     0.170878      -0.000805
     45 H                     0.347467      -0.000549
     46 H                     0.282112       0.004957
     47 H                     0.229021       0.002592
     48 H                     0.361741       0.000794
     49 H                     0.229649       0.000227
     50 H                     0.230914       0.000124
     51 H                     0.350146       0.001264
     52 H                     0.159663       0.001650
     53 H                     0.194344      -0.000232
     54 H                     0.167022       0.000226
     55 H                     0.232933      -0.000066
     56 H                     0.274619       0.000026
     57 H                     0.282398      -0.000001
     58 H                     0.245445      -0.000008
     59 H                     0.299644      -0.000179
     60 H                     0.216632      -0.000021
     61 H                     0.176672       0.000191
     62 H                     0.178410      -0.000050
     63 H                     0.175188      -0.000001
     64 H                     0.567663      -0.001439
     65 H                     0.201467      -0.000002
     66 H                     0.189102      -0.000003
     67 H                     0.194334       0.000000
  --------------------------------------------------------
  Sum of atomic charges =    -1.000001

                    Cartesian Multipole Moments
 -----------------------------------------------------------------
    Charge (ESU x 10^10)
                -4.8032
    Dipole Moment (Debye)
         X      -6.5210      Y     -11.5455      Z      -2.7031
       Tot      13.5325
    Quadrupole Moments (Debye-Ang)
        XX    -242.7734     XY     -20.4582     YY    -249.0174
        XZ      -5.4814     YZ       1.3030     ZZ    -248.7829

 Total job time:  1272.64s(wall), 8716.00s(cpu)
        *  Thank you very much for using Q-Chem.  Have a nice day.  *
