 Q-Chem 5.4, Q-Chem, Inc., Pleasanton, CA (2021)
 Q-Chem 5.4.0 for Intel X86 EM64T Linux

User input:
--------------------------------------------------------------
$molecule
-1 2
C                 -1.2284880000      2.1900880000     -2.9343160000
C                 -2.1532950000      2.1172910000     -1.8150350000
C                  0.1577040000      2.0206660000     -2.5302880000
C                  0.5202050000      1.4917900000     -1.3208030000
C                 -0.5151540000      0.9001710000     -0.4554390000
C                 -1.8095100000      1.5889810000     -0.5998270000
C                 -0.2943650000     -0.2167890000      0.4082570000
C                 -1.3298000000     -0.8087130000      1.2733040000
C                  1.0000410000     -0.9054690000      0.5527450000
C                  1.3436850000     -1.4338660000      1.7679550000
C                  0.4186900000     -1.5068680000      2.8870730000
C                 -0.9674510000     -1.3376990000      2.4827850000
O                 -1.5701170000      2.5400900000     -4.0854560000
O                  0.7601500000     -1.8570720000      4.0382010000
C                  1.9289100000      1.7874090000     -0.7813740000
C                  1.8980470000      3.1414090000     -0.0364350000
C                  3.0389530000      1.8155060000     -1.8442290000
C                  1.8321740000     -1.2938800000     -0.6799530000
C                  1.2859570000     -2.6250510000     -1.2446600000
C                  3.3425370000     -1.4286030000     -0.4283360000
C                 -2.7382420000     -1.1047470000      0.7334130000
C                 -3.8486110000     -1.1332260000      1.7959180000
C                 -2.7067090000     -2.4587050000     -0.0115800000
C                 -2.6414160000      1.9777130000      0.6329230000
C                 -2.0946020000      3.3086330000      1.1976390000
C                 -4.1517140000      2.1131530000      0.3812940000
H                 -3.1073930000      2.6101450000     -1.9645120000
H                  0.8954010000      2.4428730000     -3.2033840000
H                  2.2978190000     -1.9266030000      1.9175660000
H                 -1.7051990000     -1.7602140000      3.1556290000
H                  2.1919580000      1.0446480000     -0.0318030000
H                  2.8821890000      3.3615960000      0.3931970000
H                  1.1716610000      3.1246340000      0.7781990000
H                  1.6277080000      3.9549590000     -0.7161490000
H                  3.0616370000      0.9004740000     -2.4406180000
H                  4.0153900000      1.9296980000     -1.3623550000
H                  2.9160290000      2.6573300000     -2.5314170000
H                  1.6804830000     -0.5564930000     -1.4648750000
H                  1.3876030000     -3.4310470000     -0.5118530000
H                  1.8357760000     -2.9084090000     -2.1496620000
H                  0.2300200000     -2.5363370000     -1.5067050000
H                  3.5666110000     -2.2742000000      0.2279810000
H                  3.7657130000     -0.5315740000      0.0296100000
H                  3.8651350000     -1.6044660000     -1.3741870000
H                 -3.0012910000     -0.3620440000     -0.0162130000
H                 -4.8248630000     -1.2476600000      1.3137270000
H                 -3.8717390000     -0.2182400000      2.3923630000
H                 -3.7256700000     -1.9750620000      2.4830890000
H                 -3.6906340000     -2.6791720000     -0.4415630000
H                 -2.4363570000     -3.2722090000      0.6681850000
H                 -1.9800470000     -2.4416620000     -0.8259660000
H                 -2.4900490000      1.2402430000      1.4178310000
H                 -2.6443270000      3.5922530000      2.1026170000
H                 -2.1958330000      4.1146790000      0.4648280000
H                 -1.0387230000      3.2194190000      1.4597400000
H                 -4.6742340000      2.2893130000      1.3271310000
H                 -4.5753230000      1.2163130000     -0.0766170000
H                 -4.3753720000      2.9588280000     -0.2750700000
$end

$rem
BASIS  =  6-311++G(d,p)
GUI  =  2
JOB_TYPE  =  SP
METHOD  =  B3LYP
SCF_CONVERGENCE  = 8
SOLVENT_METHOD = sm12
$end

$smx
solvent dimethylformamide
charges CM5
$end

--------------------------------------------------------------

             Standard Nuclear Orientation (Angstroms)
    I     Atom           X                Y                Z
 ----------------------------------------------------------------
    1      C      -1.2284880000     2.1900880000    -2.9343160000
    2      C      -2.1532950000     2.1172910000    -1.8150350000
    3      C       0.1577040000     2.0206660000    -2.5302880000
    4      C       0.5202050000     1.4917900000    -1.3208030000
    5      C      -0.5151540000     0.9001710000    -0.4554390000
    6      C      -1.8095100000     1.5889810000    -0.5998270000
    7      C      -0.2943650000    -0.2167890000     0.4082570000
    8      C      -1.3298000000    -0.8087130000     1.2733040000
    9      C       1.0000410000    -0.9054690000     0.5527450000
   10      C       1.3436850000    -1.4338660000     1.7679550000
   11      C       0.4186900000    -1.5068680000     2.8870730000
   12      C      -0.9674510000    -1.3376990000     2.4827850000
   13      O      -1.5701170000     2.5400900000    -4.0854560000
   14      O       0.7601500000    -1.8570720000     4.0382010000
   15      C       1.9289100000     1.7874090000    -0.7813740000
   16      C       1.8980470000     3.1414090000    -0.0364350000
   17      C       3.0389530000     1.8155060000    -1.8442290000
   18      C       1.8321740000    -1.2938800000    -0.6799530000
   19      C       1.2859570000    -2.6250510000    -1.2446600000
   20      C       3.3425370000    -1.4286030000    -0.4283360000
   21      C      -2.7382420000    -1.1047470000     0.7334130000
   22      C      -3.8486110000    -1.1332260000     1.7959180000
   23      C      -2.7067090000    -2.4587050000    -0.0115800000
   24      C      -2.6414160000     1.9777130000     0.6329230000
   25      C      -2.0946020000     3.3086330000     1.1976390000
   26      C      -4.1517140000     2.1131530000     0.3812940000
   27      H      -3.1073930000     2.6101450000    -1.9645120000
   28      H       0.8954010000     2.4428730000    -3.2033840000
   29      H       2.2978190000    -1.9266030000     1.9175660000
   30      H      -1.7051990000    -1.7602140000     3.1556290000
   31      H       2.1919580000     1.0446480000    -0.0318030000
   32      H       2.8821890000     3.3615960000     0.3931970000
   33      H       1.1716610000     3.1246340000     0.7781990000
   34      H       1.6277080000     3.9549590000    -0.7161490000
   35      H       3.0616370000     0.9004740000    -2.4406180000
   36      H       4.0153900000     1.9296980000    -1.3623550000
   37      H       2.9160290000     2.6573300000    -2.5314170000
   38      H       1.6804830000    -0.5564930000    -1.4648750000
   39      H       1.3876030000    -3.4310470000    -0.5118530000
   40      H       1.8357760000    -2.9084090000    -2.1496620000
   41      H       0.2300200000    -2.5363370000    -1.5067050000
   42      H       3.5666110000    -2.2742000000     0.2279810000
   43      H       3.7657130000    -0.5315740000     0.0296100000
   44      H       3.8651350000    -1.6044660000    -1.3741870000
   45      H      -3.0012910000    -0.3620440000    -0.0162130000
   46      H      -4.8248630000    -1.2476600000     1.3137270000
   47      H      -3.8717390000    -0.2182400000     2.3923630000
   48      H      -3.7256700000    -1.9750620000     2.4830890000
   49      H      -3.6906340000    -2.6791720000    -0.4415630000
   50      H      -2.4363570000    -3.2722090000     0.6681850000
   51      H      -1.9800470000    -2.4416620000    -0.8259660000
   52      H      -2.4900490000     1.2402430000     1.4178310000
   53      H      -2.6443270000     3.5922530000     2.1026170000
   54      H      -2.1958330000     4.1146790000     0.4648280000
   55      H      -1.0387230000     3.2194190000     1.4597400000
   56      H      -4.6742340000     2.2893130000     1.3271310000
   57      H      -4.5753230000     1.2163130000    -0.0766170000
   58      H      -4.3753720000     2.9588280000    -0.2750700000
 ----------------------------------------------------------------

   16   -1084.5640342308      9.45e-09  Convergence criterion met
 Total energy in the final basis set =    -1084.6407490019

                    Orbital Energies (a.u.)
 --------------------------------------------------------------

 Alpha MOs
 -- Occupied --
-19.0757 -19.0757 -10.2251 -10.2251 -10.1904 -10.1900 -10.1883 -10.1883
-10.1883 -10.1883 -10.1842 -10.1842 -10.1842 -10.1842 -10.1646 -10.1646
-10.1646 -10.1646 -10.1625 -10.1625 -10.1625 -10.1625 -10.1570 -10.1570
-10.1570 -10.1570  -0.9994  -0.9994  -0.8718  -0.8450  -0.8253  -0.8116
 -0.7876  -0.7789  -0.7488  -0.7282  -0.7261  -0.6915  -0.6913  -0.6902
 -0.6861  -0.6780  -0.6378  -0.6247  -0.6142  -0.5944  -0.5754  -0.5577
 -0.5462  -0.5418  -0.5170  -0.4988  -0.4701  -0.4658  -0.4637  -0.4560
 -0.4528  -0.4483  -0.4473  -0.4410  -0.4391  -0.4230  -0.4222  -0.4212
 -0.4102  -0.4083  -0.4054  -0.3986  -0.3984  -0.3970  -0.3885  -0.3885
 -0.3873  -0.3801  -0.3751  -0.3731  -0.3707  -0.3667  -0.3626  -0.3536
 -0.3491  -0.3490  -0.3442  -0.3402  -0.3388  -0.3361  -0.3360  -0.3341
 -0.3240  -0.3156  -0.2787  -0.2455  -0.2426  -0.2322  -0.2293  -0.2291
 -0.1491

 Beta MOs
 -- Occupied --
-19.0716 -19.0716 -10.2247 -10.2247 -10.1883 -10.1880 -10.1878 -10.1878
-10.1877 -10.1876 -10.1842 -10.1842 -10.1842 -10.1842 -10.1645 -10.1645
-10.1645 -10.1645 -10.1625 -10.1625 -10.1625 -10.1625 -10.1562 -10.1561
-10.1561 -10.1561  -0.9924  -0.9923  -0.8682  -0.8422  -0.8247  -0.8111
 -0.7864  -0.7776  -0.7440  -0.7268  -0.7246  -0.6912  -0.6904  -0.6901
 -0.6860  -0.6730  -0.6361  -0.6235  -0.6128  -0.5928  -0.5733  -0.5560
 -0.5447  -0.5405  -0.5155  -0.4974  -0.4678  -0.4649  -0.4627  -0.4551
 -0.4523  -0.4471  -0.4468  -0.4407  -0.4381  -0.4205  -0.4204  -0.4194
 -0.4078  -0.4065  -0.4048  -0.3982  -0.3958  -0.3934  -0.3881  -0.3867
 -0.3857  -0.3745  -0.3745  -0.3700  -0.3677  -0.3658  -0.3576  -0.3511
 -0.3488  -0.3482  -0.3439  -0.3399  -0.3384  -0.3352  -0.3335  -0.3332
 -0.3140  -0.3122  -0.2646  -0.2416  -0.2386  -0.2283  -0.2251  -0.2097

          Ground-State Mulliken Net Atomic Charges

     Atom                 Charge (a.u.)    Spin (a.u.)
  --------------------------------------------------------
      1 C                    -2.076051       0.045033
      2 C                    -0.600162       0.062635
      3 C                    -0.609592       0.062598
      4 C                     0.259470       0.037436
      5 C                    -0.487325       0.136176
      6 C                     0.235096       0.037235
      7 C                    -0.487279       0.136189
      8 C                     0.260529       0.037385
      9 C                     0.234410       0.037275
     10 C                    -0.600757       0.062599
     11 C                    -2.075861       0.045044
     12 C                    -0.609175       0.062649
     13 O                    -0.405523       0.146713
     14 O                    -0.405516       0.146729
     15 C                     0.362090      -0.016575
     16 C                    -0.310423       0.000361
     17 C                     0.290293       0.000758
     18 C                     0.370458      -0.015769
     19 C                    -0.306394      -0.000086
     20 C                     0.290374       0.000781
     21 C                     0.360615      -0.016562
     22 C                     0.289855       0.000764
     23 C                    -0.310857       0.000376
     24 C                     0.369780      -0.015751
     25 C                    -0.306890      -0.000082
     26 C                     0.289893       0.000787
     27 H                     0.090715      -0.005152
     28 H                     0.091306      -0.005148
     29 H                     0.090691      -0.005154
     30 H                     0.091334      -0.005147
     31 H                     0.029040       0.004893
     32 H                     0.266654      -0.000444
     33 H                     0.031850       0.002448
     34 H                     0.172239      -0.000008
     35 H                     0.199716      -0.000497
     36 H                     0.276553       0.000186
     37 H                     0.177227      -0.000088
     38 H                     0.029768       0.004868
     39 H                     0.173017       0.000028
     40 H                     0.267211      -0.000463
     41 H                     0.030422       0.002423
     42 H                     0.177172      -0.000084
     43 H                     0.200078      -0.000498
     44 H                     0.276373       0.000189
     45 H                     0.029517       0.004880
     46 H                     0.276504       0.000186
     47 H                     0.199666      -0.000496
     48 H                     0.177245      -0.000089
     49 H                     0.266648      -0.000444
     50 H                     0.172239      -0.000008
     51 H                     0.031778       0.002456
     52 H                     0.029956       0.004860
     53 H                     0.267185      -0.000462
     54 H                     0.172996       0.000028
     55 H                     0.030390       0.002431
     56 H                     0.276400       0.000189
     57 H                     0.199927      -0.000496
     58 H                     0.177122      -0.000085
  --------------------------------------------------------
  Sum of atomic charges =    -1.000000

                    Cartesian Multipole Moments
 -----------------------------------------------------------------
    Charge (ESU x 10^10)
                -4.8032
    Dipole Moment (Debye)
         X       1.9455      Y      -1.6405      Z       0.1131
       Tot       2.5474
    Quadrupole Moments (Debye-Ang)
        XX    -171.1379     XY      12.1490     YY    -190.8709
        XZ     -24.3837     YZ      40.8152     ZZ    -247.4006

 Total job time:  5791.45s(wall), 30195.60s(cpu)
        *  Thank you very much for using Q-Chem.  Have a nice day.  *
