 Gaussian 16, Revision A.03,
 Gaussian 16:  ES64L-G16RevA.03 25-Dec-2016

 ----------------------------------------------------------------------
 #P UB3LYP/6-311++G(d,p) nosym opt freq SCRF=(PCM,Solvent=n,n-DiMethylF
 ormamide)
 ----------------------------------------------------------------------

 -------
 Reduced
 -------
 Symbolic Z-matrix:
 Charge = -2 Multiplicity = 1

 SCF Done:  E(UB3LYP) =  -918.121045971     A.U. after   18 cycles
 SCF Done:  E(UB3LYP) =  -918.122290425     A.U. after   14 cycles
 SCF Done:  E(UB3LYP) =  -918.122581318     A.U. after   13 cycles
 SCF Done:  E(UB3LYP) =  -918.122611690     A.U. after   12 cycles
 SCF Done:  E(UB3LYP) =  -918.122665875     A.U. after   11 cycles
 SCF Done:  E(UB3LYP) =  -918.122684222     A.U. after   12 cycles
 SCF Done:  E(UB3LYP) =  -918.122698695     A.U. after   11 cycles
 Optimization completed.
    -- Stationary point found.
 Normal termination of Gaussian 16 at Sat Feb 10 23:05:03 2024.

 ----------------------------------------------------------------------
 #P Geom=AllCheck Guess=TCheck SCRF=Check GenChk UB3LYP/6-311++G(d,p) F
 req
 ----------------------------------------------------------------------

 Structure from the checkpoint file:  "211-an.chk"
 -------
 Reduced
 -------
 Charge = -2 Multiplicity = 1

                          Input orientation:
 ---------------------------------------------------------------------
 Center     Atomic      Atomic             Coordinates (Angstroms)
 Number     Number       Type             X           Y           Z
 ---------------------------------------------------------------------
      1          6           0        5.253691   -2.323999    0.376656
      2          6           0        6.014990   -1.505728   -0.431149
      3          6           0        5.378269   -0.607873   -1.324310
      4          6           0        3.832900   -2.304720    0.350888
      5          6           0        3.190715   -1.393111   -0.555571
      6          6           0        4.001208   -0.563264   -1.374470
      7          6           0        3.096234   -3.196927    1.231404
      8          6           0        1.668811   -3.128827    1.152803
      9          6           0        1.030379   -2.195629    0.229390
     10          6           0        1.750399   -1.312769   -0.639956
     11          6           0        0.793172   -3.973107    1.978174
     12          6           0       -0.632772   -3.862953    1.869572
     13          6           0       -0.394130   -2.141315    0.174224
     14          6           0       -1.201659   -2.922240    0.944224
     15          8           0        3.757941   -3.991509    2.026360
     16          8           0        1.165187   -0.488120   -1.456496
     17          1           0        5.725319   -3.015689    1.064866
     18          1           0        7.099138   -1.547562   -0.384868
     19          1           0        5.972682    0.038592   -1.962779
     20          1           0       -2.283115   -2.848840    0.872131
     21          1           0        3.494913    0.116496   -2.050407
     22          1           0       -0.821597   -1.431851   -0.525766
     23          6           0       -1.477269   -4.670675    2.661000
     24          6           0       -0.955552   -5.587839    3.559225
     25          6           0        0.430067   -5.716896    3.683091
     26          6           0        1.275846   -4.928081    2.910620
     27          8           0       -1.752306   -6.393360    4.349785
     28          1           0       -2.554393   -4.564530    2.556036
     29          1           0        0.836254   -6.436528    4.386452
     30          1           0        2.347878   -5.022548    3.000493
     31          1           0       -2.680010   -6.201166    4.169777
 ---------------------------------------------------------------------

 SCF Done:  E(UB3LYP) =  -918.122698695     A.U. after    1 cycles

 Alpha  occ. eigenvalues --  -19.14742 -19.02046 -19.01632 -10.21979 -10.17668
 Alpha  occ. eigenvalues --  -10.17453 -10.16726 -10.16091 -10.15601 -10.15347
 Alpha  occ. eigenvalues --  -10.15204 -10.15145 -10.14872 -10.14709 -10.14696
 Alpha  occ. eigenvalues --  -10.14563 -10.14478 -10.14135 -10.14033 -10.13936
 Alpha  occ. eigenvalues --  -10.13335  -1.05347  -0.93433  -0.92916  -0.84812
 Alpha  occ. eigenvalues --   -0.82778  -0.79686  -0.75871  -0.73552  -0.72442
 Alpha  occ. eigenvalues --   -0.72112  -0.69317  -0.64498  -0.61381  -0.61204
 Alpha  occ. eigenvalues --   -0.58657  -0.57075  -0.54169  -0.52833  -0.51010
 Alpha  occ. eigenvalues --   -0.49120  -0.47648  -0.45176  -0.44020  -0.43333
 Alpha  occ. eigenvalues --   -0.42778  -0.41341  -0.40507  -0.40467  -0.39632
 Alpha  occ. eigenvalues --   -0.38294  -0.38143  -0.37692  -0.36922  -0.36267
 Alpha  occ. eigenvalues --   -0.35116  -0.35031  -0.33578  -0.32580  -0.31697
 Alpha  occ. eigenvalues --   -0.31534  -0.31388  -0.29931  -0.28481  -0.24973
 Alpha  occ. eigenvalues --   -0.23151  -0.22371  -0.21866  -0.20033  -0.19306
 Alpha  occ. eigenvalues --   -0.19046  -0.11215
 Alpha virt. eigenvalues --   -0.03013  -0.01319  -0.00145   0.00356   0.00884
 Alpha virt. eigenvalues --    0.01225   0.01620   0.02237   0.02296   0.03308
 Alpha virt. eigenvalues --    0.03868   0.04609   0.05166   0.05676   0.06034

  Beta  occ. eigenvalues --  -19.14742 -19.02046 -19.01632 -10.21979 -10.17668
  Beta  occ. eigenvalues --  -10.17453 -10.16726 -10.16091 -10.15601 -10.15347
  Beta  occ. eigenvalues --  -10.15204 -10.15145 -10.14872 -10.14709 -10.14696
  Beta  occ. eigenvalues --  -10.14563 -10.14478 -10.14135 -10.14033 -10.13936
  Beta  occ. eigenvalues --  -10.13335  -1.05347  -0.93433  -0.92916  -0.84812
  Beta  occ. eigenvalues --   -0.82778  -0.79686  -0.75871  -0.73552  -0.72442
  Beta  occ. eigenvalues --   -0.72112  -0.69317  -0.64498  -0.61381  -0.61204
  Beta  occ. eigenvalues --   -0.58657  -0.57075  -0.54169  -0.52833  -0.51010
  Beta  occ. eigenvalues --   -0.49120  -0.47648  -0.45176  -0.44020  -0.43333
  Beta  occ. eigenvalues --   -0.42778  -0.41341  -0.40507  -0.40467  -0.39632
  Beta  occ. eigenvalues --   -0.38294  -0.38143  -0.37692  -0.36922  -0.36267
  Beta  occ. eigenvalues --   -0.35116  -0.35031  -0.33578  -0.32580  -0.31697
  Beta  occ. eigenvalues --   -0.31534  -0.31388  -0.29931  -0.28481  -0.24973
  Beta  occ. eigenvalues --   -0.23151  -0.22371  -0.21866  -0.20033  -0.19306
  Beta  occ. eigenvalues --   -0.19046  -0.11215
  Beta virt. eigenvalues --   -0.03013  -0.01319  -0.00145   0.00356   0.00884
  Beta virt. eigenvalues --    0.01225   0.01620   0.02237   0.02296   0.03308
  Beta virt. eigenvalues --    0.03868   0.04609   0.05166   0.05676   0.06034

 Mulliken charges and spin densities:
               1          2
     1  C   -0.063901   0.000000
     2  C   -0.504241   0.000000
     3  C   -0.496912   0.000000
     4  C    0.271208  -0.000000
     5  C    0.252536  -0.000000
     6  C   -0.119806  -0.000000
     7  C   -0.578765  -0.000000
     8  C    0.543649   0.000000
     9  C    0.658930  -0.000000
    10  C   -0.795413   0.000000
    11  C    0.834638  -0.000000
    12  C    0.528530  -0.000000
    13  C   -0.290143   0.000000
    14  C   -0.483269   0.000000
    15  O   -0.623812   0.000000
    16  O   -0.649230  -0.000000
    17  H    0.144557   0.000000
    18  H    0.160693   0.000000
    19  H    0.159960  -0.000000
    20  H    0.143220   0.000000
    21  H    0.145760   0.000000
    22  H    0.146474  -0.000000
    23  C   -0.321464  -0.000000
    24  C   -0.533979  -0.000000
    25  C   -0.457705   0.000000
    26  C   -0.536494   0.000000
    27  O   -0.309235  -0.000000
    28  H    0.122971  -0.000000
    29  H    0.190220   0.000000
    30  H    0.161814  -0.000000
    31  H    0.299210   0.000000
 Sum of Mulliken charges =  -2.00000   0.00000

 Dipole moment (field-independent basis, Debye):
    X=            -22.5594    Y=             24.4812    Z=             -5.6125  Tot=             33.7603
 Quadrupole moment (field-independent basis, Debye-Ang):
   XX=           -194.4767   YY=           -229.0662   ZZ=           -169.1709
   XY=             64.1049   XZ=            -19.9803   YZ=             44.8461

  Exact polarizability: 597.550 127.270 401.065-123.915-216.794 393.848
 Approx polarizability: 663.210 118.921 447.498-115.553-241.011 439.699

                      1                      2                      3
                      A                      A                      A
 Frequencies --     36.4985                49.1047                90.0950
 Red. masses --      7.4854                 4.9516                 6.6754
 Frc consts  --      0.0059                 0.0070                 0.0319
 IR Inten    --      6.5856                 9.8531                 8.8899

                      4                      5                      6
                      A                      A                      A
 Frequencies --    127.8042               155.6409               174.2583
 Red. masses --      4.3421                 6.2888                 8.1676
 Frc consts  --      0.0418                 0.0898                 0.1461
 IR Inten    --      0.0340                 7.0934                 6.8592

                      7                      8                      9
                      A                      A                      A
 Frequencies --    189.9467               253.8679               276.6955
 Red. masses --      4.7746                 5.1104                 6.6103
 Frc consts  --      0.1015                 0.1941                 0.2982
 IR Inten    --      0.0494                 0.0753                13.0685

                     10                     11                     12
                      A                      A                      A
 Frequencies --    287.8575               300.4084               331.7641
 Red. masses --      6.8123                 1.0962                 8.3550
 Frc consts  --      0.3326                 0.0583                 0.5418
 IR Inten    --      1.2838               160.7110                13.4927

                     13                     14                     15
                      A                      A                      A
 Frequencies --    337.4295               390.1448               406.0487
 Red. masses --      6.5639                11.3709                 4.2802
 Frc consts  --      0.4403                 1.0198                 0.4158
 IR Inten    --      6.3077                 7.0301                 7.0819

                     16                     17                     18
                      A                      A                      A
 Frequencies --    407.1543               435.6883               445.9877
 Red. masses --      6.0741                 4.9504                 3.1036
 Frc consts  --      0.5933                 0.5537                 0.3637
 IR Inten    --      8.2020                 8.3245                 0.3427

                     19                     20                     21
                      A                      A                      A
 Frequencies --    469.4917               490.2069               522.9710
 Red. masses --      4.8255                10.9089                 7.5355
 Frc consts  --      0.6267                 1.5445                 1.2143
 IR Inten    --     66.5546                 0.8342                42.6123

                     22                     23                     24
                      A                      A                      A
 Frequencies --    529.4103               547.6212               547.9534
 Red. masses --      3.2975                 4.1626                 7.2458
 Frc consts  --      0.5445                 0.7355                 1.2818
 IR Inten    --     26.7985                 1.3915                 4.2711

                     25                     26                     27
                      A                      A                      A
 Frequencies --    614.0085               628.4092               651.6258
 Red. masses --      6.6924                 3.6265                 6.7789
 Frc consts  --      1.4865                 0.8438                 1.6959
 IR Inten    --     50.3250                 0.0256                 1.5738

                     28                     29                     30
                      A                      A                      A
 Frequencies --    678.4183               683.7663               702.7754
 Red. masses --      6.9895                 4.0650                 2.3379
 Frc consts  --      1.8954                 1.1198                 0.6803
 IR Inten    --      1.3019                 8.0366               107.0784

                     31                     32                     33
                      A                      A                      A
 Frequencies --    735.8461               751.1166               774.9935
 Red. masses --      6.8908                 4.1152                 1.5758
 Frc consts  --      2.1983                 1.3679                 0.5576
 IR Inten    --     38.3455                 1.2747                10.2230

                     34                     35                     36
                      A                      A                      A
 Frequencies --    786.7195               797.2482               809.6506
 Red. masses --      1.9805                 6.1229                 2.6888
 Frc consts  --      0.7222                 2.2929                 1.0385
 IR Inten    --     52.1824                27.3713                 1.1093

                     37                     38                     39
                      A                      A                      A
 Frequencies --    821.2332               826.2721               843.4811
 Red. masses --      6.4381                 1.7208                 1.5721
 Frc consts  --      2.5582                 0.6922                 0.6590
 IR Inten    --     24.1796                18.6912                98.9142

                     40                     41                     42
                      A                      A                      A
 Frequencies --    864.4900               910.6331               961.3845
 Red. masses --      1.6845                 6.6144                 4.0761
 Frc consts  --      0.7417                 3.2317                 2.2197
 IR Inten    --      0.0011                20.2353               157.2806

                     43                     44                     45
                      A                      A                      A
 Frequencies --    975.4869               981.9629               984.5475
 Red. masses --      1.3571                 1.2810                 1.2617
 Frc consts  --      0.7609                 0.7278                 0.7206
 IR Inten    --      2.6098                 9.4694                 0.0662

                     46                     47                     48
                      A                      A                      A
 Frequencies --    989.0428               996.0648              1027.3512
 Red. masses --      1.2998                 4.9839                 1.9985
 Frc consts  --      0.7491                 2.9133                 1.2428
 IR Inten    --      1.8121                69.0544               141.3374

                     49                     50                     51
                      A                      A                      A
 Frequencies --   1072.9096              1106.5082              1119.9511
 Red. masses --      3.5105                 1.9538                 1.6218
 Frc consts  --      2.3809                 1.4094                 1.1985
 IR Inten    --    192.9941                60.6426               487.7829

                     52                     53                     54
                      A                      A                      A
 Frequencies --   1138.2699              1156.2208              1178.8653
 Red. masses --      1.3560                 1.8186                 1.6978
 Frc consts  --      1.0352                 1.4324                 1.3901
 IR Inten    --    104.2189                77.7334               750.0817

                     55                     56                     57
                      A                      A                      A
 Frequencies --   1185.2629              1187.5894              1209.1309
 Red. masses --      1.6638                 1.7438                 2.0391
 Frc consts  --      1.3771                 1.4491                 1.7564
 IR Inten    --    254.0501                98.2963               509.5925

                     58                     59                     60
                      A                      A                      A
 Frequencies --   1229.6278              1245.4201              1282.8972
 Red. masses --      2.4859                 2.7066                 2.3620
 Frc consts  --      2.2145                 2.4735                 2.2904
 IR Inten    --    267.7858               796.5106                62.9465

                     61                     62                     63
                      A                      A                      A
 Frequencies --   1287.0357              1303.1289              1343.2045
 Red. masses --      3.3175                 4.4100                 5.5818
 Frc consts  --      3.2377                 4.4123                 5.9335
 IR Inten    --    235.5018               365.2191                24.6348

                     64                     65                     66
                      A                      A                      A
 Frequencies --   1354.2487              1369.7843              1403.6761
 Red. masses --      7.1441                 2.9705                 2.4575
 Frc consts  --      7.7196                 3.2838                 2.8528
 IR Inten    --    454.4057              1403.4082                 5.3719

                     67                     68                     69
                      A                      A                      A
 Frequencies --   1433.6085              1435.8595              1469.6257
 Red. masses --      3.9473                 4.2151                 2.8985
 Frc consts  --      4.7798                 5.1202                 3.6884
 IR Inten    --    281.1017               167.3803                51.8398

                     70                     71                     72
                      A                      A                      A
 Frequencies --   1479.7270              1490.8170              1523.3307
 Red. masses --      2.8877                 3.7247                 4.4349
 Frc consts  --      3.7253                 4.8774                 6.0635
 IR Inten    --    198.7989               227.9464                53.5181

                     73                     74                     75
                      A                      A                      A
 Frequencies --   1562.8013              1583.2200              1611.3519
 Red. masses --      5.2417                 7.0022                 5.4392
 Frc consts  --      7.5428                10.3412                 8.3208
 IR Inten    --    141.0621                75.5953                18.4456

                     76                     77                     78
                      A                      A                      A
 Frequencies --   1614.6053              1625.9271              3134.8190
 Red. masses --      6.0012                 6.3527                 1.0894
 Frc consts  --      9.2177                 9.8949                 6.3076
 IR Inten    --    364.6005                46.9674                32.5339

                     79                     80                     81
                      A                      A                      A
 Frequencies --   3139.9786              3140.5284              3156.0453
 Red. masses --      1.0850                 1.0875                 1.0902
 Frc consts  --      6.3030                 6.3197                 6.3979
 IR Inten    --     27.5308                55.7833                46.1057

                     82                     83                     84
                      A                      A                      A
 Frequencies --   3162.9939              3172.2970              3176.7617
 Red. masses --      1.0900                 1.0917                 1.0912
 Frc consts  --      6.4250                 6.4732                 6.4881
 IR Inten    --     34.3745                58.4667                37.3039

                     85                     86                     87
                      A                      A                      A
 Frequencies --   3181.2836              3205.9154              3814.9739
 Red. masses --      1.0923                 1.0918                 1.0662
 Frc consts  --      6.5132                 6.6113                 9.1424
 IR Inten    --     78.9975                28.5282               150.1622

 - Thermochemistry -
 -------------------
 Temperature   298.150 Kelvin.  Pressure   1.00000 Atm.
 Atom     1 has atomic number  6 and mass  12.00000

 Molecular mass:   274.06299 amu.
 Principal axes and moments of inertia in atomic units:
                           1         2         3
     Eigenvalues --  2353.141539390.38495**********
           X            0.67564   0.73723  -0.00295
           Y            0.52656  -0.47976   0.70182
           Z           -0.51599   0.47573   0.71234
 This molecule is an asymmetric top.
 Rotational symmetry number  1.
 Warning -- assumption of classical behavior for rotation
           may cause significant error
 Rotational temperatures (Kelvin)      0.03681     0.00922     0.00738
 Rotational constants (GHZ):           0.76695     0.19219     0.15368
 Zero-point vibrational energy     591498.2 (Joules/Mol)
                                  141.37147 (Kcal/Mol)
 Warning -- explicit consideration of  25 degrees of freedom as
           vibrations may cause significant error
 Vibrational temperatures:     52.51    70.65   129.63   183.88   223.93
          (Kelvin)            250.72   273.29   365.26   398.10   414.16
                              432.22   477.33   485.49   561.33   584.21
                              585.80   626.86   641.68   675.49   705.30
                              752.44   761.70   787.90   788.38   883.42
                              904.14   937.54   976.09   983.79  1011.14
                             1058.72  1080.69  1115.04  1131.91  1147.06
                             1164.91  1181.57  1188.82  1213.58  1243.81
                             1310.20  1383.22  1403.51  1412.83  1416.54
                             1423.01  1433.12  1478.13  1543.68  1592.02
                             1611.36  1637.72  1663.54  1696.12  1705.33
                             1708.68  1739.67  1769.16  1791.88  1845.80
                             1851.76  1874.91  1932.57  1948.46  1970.81
                             2019.58  2062.64  2065.88  2114.46  2129.00
                             2144.95  2191.73  2248.52  2277.90  2318.38
                             2323.06  2339.35  4510.31  4517.73  4518.52
                             4540.85  4550.84  4564.23  4570.65  4577.16
                             4612.60  5488.90

 Zero-point correction=                           0.225290 (Hartree/Particle)
 Thermal correction to Energy=                    0.240584
 Thermal correction to Enthalpy=                  0.241528
 Thermal correction to Gibbs Free Energy=         0.182825
 Sum of electronic and zero-point Energies=           -917.897409
 Sum of electronic and thermal Energies=              -917.882115
 Sum of electronic and thermal Enthalpies=            -917.881171
 Sum of electronic and thermal Free Energies=         -917.939874

                     E (Thermal)             CV                S
                      KCal/Mol        Cal/Mol-Kelvin    Cal/Mol-Kelvin
 Total                  150.969             63.326            123.551
 Electronic               0.000              0.000              0.000
 Translational            0.889              2.981             42.723
 Rotational               0.889              2.981             33.917
 Vibrational            149.191             57.365             46.911
 Vibration     1          0.594              1.982              5.441
 Vibration     2          0.595              1.978              4.853
 Vibration     3          0.602              1.956              3.658
 Vibration     4          0.611              1.925              2.979
 Vibration     5          0.620              1.896              2.602
 Vibration     6          0.627              1.874              2.389
 Vibration     7          0.633              1.854              2.228
 Vibration     8          0.665              1.756              1.704
 Vibration     9          0.678              1.717              1.554
 Vibration    10          0.685              1.696              1.487
 Vibration    11          0.693              1.673              1.415
 Vibration    12          0.714              1.612              1.251
 Vibration    13          0.718              1.601              1.224
 Vibration    14          0.758              1.491              1.000
 Vibration    15          0.771              1.457              0.941
 Vibration    16          0.772              1.455              0.937
 Vibration    17          0.796              1.392              0.840
 Vibration    18          0.805              1.370              0.808
 Vibration    19          0.827              1.318              0.739
 Vibration    20          0.846              1.272              0.683
 Vibration    21          0.878              1.199              0.603
 Vibration    22          0.884              1.185              0.589
 Vibration    23          0.903              1.145              0.549
 Vibration    24          0.903              1.144              0.548
 Vibration    25          0.973              1.002              0.426

                           ! Non-Optimized Parameters !
 Normal termination of Gaussian 16 at Sun Feb 11 00:29:26 2024.
