 Q-Chem 5.4, Q-Chem, Inc., Pleasanton, CA (2021)
 Q-Chem 5.4.0 for Intel X86 EM64T Linux

User input:
--------------------------------------------------------------
$molecule
0 1
C                  2.6971390000      2.9820330000      1.5178120000
C                  2.5077500000      1.5046820000      1.6951440000
O                  2.2052160000      0.9287640000      2.7000780000
O                  2.7523120000      0.8518450000      0.5018160000
C                  2.4634490000     -0.5002580000      0.4280360000
C                  3.5219590000     -1.3835400000      0.6046100000
C                  3.3221200000     -2.7541060000      0.4757530000
C                  2.0618140000     -3.2400510000      0.1539260000
C                  1.0016570000     -2.3551370000     -0.0454190000
C                 -0.3188110000     -2.9274610000     -0.4342340000
O                 -0.4979250000     -4.1334060000     -0.4658770000
C                 -1.3986800000     -1.9781120000     -0.8280040000
C                 -2.5737710000     -2.5119180000     -1.3580290000
C                 -3.5931350000     -1.6680120000     -1.7785440000
C                 -3.4411280000     -0.2901360000     -1.6631540000
C                 -2.2809310000      0.2446330000     -1.1155980000
O                 -2.1715000000      1.6247350000     -1.0971910000
C                 -2.4869100000      2.2861210000      0.0747250000
C                 -2.1213500000      3.7361220000     -0.0421850000
O                 -2.9902780000      1.7395260000      1.0132910000
C                 -1.2294980000     -0.5851310000     -0.6857890000
C                  0.0198800000     -0.0291020000     -0.0767470000
O                  0.0894590000      1.1374910000      0.2724910000
C                  1.1768860000     -0.9629810000      0.0974130000
H                  1.8861800000      3.3593380000      0.8908700000
H                  2.6719460000      3.4711080000      2.4892220000
H                  3.6390370000      3.1908700000      1.0074090000
H                  4.4965580000     -0.9774570000      0.8461860000
H                  4.1502270000     -3.4369340000      0.6251620000
H                  1.8742520000     -4.3002800000      0.0438460000
H                 -2.6602500000     -3.5879230000     -1.4362190000
H                 -4.5050040000     -2.0774990000     -2.1970570000
H                 -4.2169770000      0.3907980000     -1.9910240000
H                 -2.5265620000      4.2829060000      0.8065300000
H                 -1.0319980000      3.8158130000     -0.0492370000
H                 -2.4931380000      4.1526610000     -0.9800100000
$end
$rem
MAX_SCF_CYCLES=200
BASIS  =  6-311++G(d,p)
GUI  =  2
JOB_TYPE  =  SP
METHOD  =  B3LYP
SOLVENT_METHOD = PCM
$end
$pcm
theory = CPCM
$end
$solvent
dielectric 37.219
opticaldielectric 1.43
$end

--------------------------------------------------------------

             Standard Nuclear Orientation (Angstroms)
    I     Atom           X                Y                Z
 ----------------------------------------------------------------
    1      C       2.6971390000     2.9820330000     1.5178120000
    2      C       2.5077500000     1.5046820000     1.6951440000
    3      O       2.2052160000     0.9287640000     2.7000780000
    4      O       2.7523120000     0.8518450000     0.5018160000
    5      C       2.4634490000    -0.5002580000     0.4280360000
    6      C       3.5219590000    -1.3835400000     0.6046100000
    7      C       3.3221200000    -2.7541060000     0.4757530000
    8      C       2.0618140000    -3.2400510000     0.1539260000
    9      C       1.0016570000    -2.3551370000    -0.0454190000
   10      C      -0.3188110000    -2.9274610000    -0.4342340000
   11      O      -0.4979250000    -4.1334060000    -0.4658770000
   12      C      -1.3986800000    -1.9781120000    -0.8280040000
   13      C      -2.5737710000    -2.5119180000    -1.3580290000
   14      C      -3.5931350000    -1.6680120000    -1.7785440000
   15      C      -3.4411280000    -0.2901360000    -1.6631540000
   16      C      -2.2809310000     0.2446330000    -1.1155980000
   17      O      -2.1715000000     1.6247350000    -1.0971910000
   18      C      -2.4869100000     2.2861210000     0.0747250000
   19      C      -2.1213500000     3.7361220000    -0.0421850000
   20      O      -2.9902780000     1.7395260000     1.0132910000
   21      C      -1.2294980000    -0.5851310000    -0.6857890000
   22      C       0.0198800000    -0.0291020000    -0.0767470000
   23      O       0.0894590000     1.1374910000     0.2724910000
   24      C       1.1768860000    -0.9629810000     0.0974130000
   25      H       1.8861800000     3.3593380000     0.8908700000
   26      H       2.6719460000     3.4711080000     2.4892220000
   27      H       3.6390370000     3.1908700000     1.0074090000
   28      H       4.4965580000    -0.9774570000     0.8461860000
   29      H       4.1502270000    -3.4369340000     0.6251620000
   30      H       1.8742520000    -4.3002800000     0.0438460000
   31      H      -2.6602500000    -3.5879230000    -1.4362190000
   32      H      -4.5050040000    -2.0774990000    -2.1970570000
   33      H      -4.2169770000     0.3907980000    -1.9910240000
   34      H      -2.5265620000     4.2829060000     0.8065300000
   35      H      -1.0319980000     3.8158130000    -0.0492370000
   36      H      -2.4931380000     4.1526610000    -0.9800100000
 ----------------------------------------------------------------

    9   -1144.8536908749      4.70e-06  Convergence criterion met
 Total energy in the final basis set =    -1144.8536908749

                    Orbital Energies (a.u.)
 --------------------------------------------------------------

 Alpha MOs
 -- Occupied --
-19.1884 -19.1884 -19.1369 -19.1359 -19.1357 -19.1357 -10.3259 -10.3259
-10.2958 -10.2885 -10.2688 -10.2687 -10.2214 -10.2214 -10.2160 -10.2160
-10.2039 -10.2038 -10.2029 -10.2029 -10.2003 -10.2003 -10.1809 -10.1809
 -1.1339  -1.1330  -1.0746  -1.0716  -1.0539  -1.0528  -0.9018  -0.8893
 -0.8218  -0.7982  -0.7965  -0.7809  -0.7552  -0.7521  -0.6999  -0.6809
 -0.6644  -0.6512  -0.6370  -0.5847  -0.5822  -0.5543  -0.5518  -0.5164
 -0.5120  -0.5105  -0.5102  -0.5054  -0.5029  -0.4965  -0.4867  -0.4815
 -0.4684  -0.4625  -0.4610  -0.4579  -0.4421  -0.4302  -0.4294  -0.4204
 -0.4164  -0.4146  -0.4103  -0.3983  -0.3947  -0.3909  -0.3875  -0.3840
 -0.3839  -0.3719  -0.3446  -0.3379  -0.3070  -0.3070  -0.2970  -0.2935
 -0.2833  -0.2801  -0.2774  -0.2727

          Ground-State Mulliken Net Atomic Charges

     Atom                 Charge (a.u.)
  ----------------------------------------
      1 C                    -0.479023
      2 C                     0.014794
      3 O                    -0.260194
      4 O                     0.028770
      5 C                    -0.305516
      6 C                     0.220025
      7 C                    -0.458723
      8 C                    -0.116182
      9 C                     0.432938
     10 C                    -0.623923
     11 O                    -0.278443
     12 C                     0.433674
     13 C                    -0.109617
     14 C                    -0.458731
     15 C                     0.222856
     16 C                    -0.306287
     17 O                     0.029526
     18 C                     0.012960
     19 C                    -0.476894
     20 O                    -0.259271
     21 C                     0.305619
     22 C                    -0.201021
     23 O                    -0.259149
     24 C                     0.298489
     25 H                     0.227376
     26 H                     0.183667
     27 H                     0.199725
     28 H                     0.238475
     29 H                     0.242138
     30 H                     0.205303
     31 H                     0.205252
     32 H                     0.241959
     33 H                     0.238964
     34 H                     0.183313
     35 H                     0.227523
     36 H                     0.199624
  ----------------------------------------
  Sum of atomic charges =     0.000000

                    Cartesian Multipole Moments
 -----------------------------------------------------------------
    Charge (ESU x 10^10)
                 0.0000
    Dipole Moment (Debye)
         X       1.9542      Y       2.1242      Z      -4.9847
       Tot       5.7601
    Quadrupole Moments (Debye-Ang)
        XX    -108.7501     XY      -3.2211     YY    -124.9664
        XZ      14.2026     YZ      -0.4554     ZZ    -147.5136

 Total job time:  122.17s(wall), 749.29s(cpu)
        *  Thank you very much for using Q-Chem.  Have a nice day.  *
