 Q-Chem 5.4, Q-Chem, Inc., Pleasanton, CA (2021)
 Q-Chem 5.4.0 for Intel X86 EM64T Linux

User input:
--------------------------------------------------------------
$molecule
0 1
C                 -4.8442590000      1.1381150000     -1.5692540000
C                 -3.6209400000      0.5970880000     -0.8732490000
C                 -3.7428480000     -0.2514430000      0.2310480000
C                 -2.6447350000     -0.7597620000      0.9284520000
C                 -2.9117530000     -1.6668160000      2.1044380000
C                 -1.3478440000     -0.3941490000      0.4860710000
C                 -0.1229280000     -0.8854900000      1.1643750000
O                 -0.1705130000     -1.6231140000      2.1394880000
C                  1.2138880000     -0.4573780000      0.6295560000
C                  2.3396570000     -0.9410920000      1.2946560000
C                  3.6209460000     -0.5970780000      0.8732490000
C                  4.8442580000     -1.1381740000      1.5692120000
C                  3.7428510000      0.2514960000     -0.2310100000
C                  2.6447340000      0.7598020000     -0.9284260000
C                  2.9117520000      1.6669060000     -2.1043730000
C                  1.3478490000      0.3941390000     -0.4860830000
C                  0.1229330000      0.8854410000     -1.1644150000
O                  0.1705180000      1.6230210000     -2.1395610000
C                 -1.2138830000      0.4573430000     -0.6295830000
C                 -2.3396540000      0.9410660000     -1.2946810000
H                 -5.6390030000      0.3896980000     -1.6177520000
H                 -5.2442060000      2.0040760000     -1.0304990000
H                 -4.6128520000      1.4609320000     -2.5859100000
H                 -4.7367650000     -0.5333630000      0.5656950000
H                 -2.4514690000     -2.6473320000      1.9693220000
H                 -2.4882330000     -1.2648430000      3.0267120000
H                 -3.9883580000     -1.7953810000      2.2352900000
H                  2.1876370000     -1.5897290000      2.1485870000
H                  5.2436620000     -2.0046400000      1.0308610000
H                  4.6130300000     -1.4602890000      2.5861310000
H                  5.6393350000     -0.3900710000      1.6170000000
H                  4.7367650000      0.5334690000     -0.5656210000
H                  3.9883550000      1.7955550000     -2.2351600000
H                  2.4513880000      2.6473850000     -1.9692590000
H                  2.4883130000      1.2649250000     -3.0266810000
H                 -2.1876300000      1.5896870000     -2.1486220000
$end

$rem
BASIS  =  6-311++G(d,p)
GUI  =  2
JOB_TYPE  =  SP
METHOD  =  B3LYP
SCF_CONVERGENCE  = 8
SOLVENT_METHOD = sm12
$end

$smx
solvent dimethylformamide
charges CM5
$end

--------------------------------------------------------------

             Standard Nuclear Orientation (Angstroms)
    I     Atom           X                Y                Z
 ----------------------------------------------------------------
    1      C      -4.8442590000     1.1381150000    -1.5692540000
    2      C      -3.6209400000     0.5970880000    -0.8732490000
    3      C      -3.7428480000    -0.2514430000     0.2310480000
    4      C      -2.6447350000    -0.7597620000     0.9284520000
    5      C      -2.9117530000    -1.6668160000     2.1044380000
    6      C      -1.3478440000    -0.3941490000     0.4860710000
    7      C      -0.1229280000    -0.8854900000     1.1643750000
    8      O      -0.1705130000    -1.6231140000     2.1394880000
    9      C       1.2138880000    -0.4573780000     0.6295560000
   10      C       2.3396570000    -0.9410920000     1.2946560000
   11      C       3.6209460000    -0.5970780000     0.8732490000
   12      C       4.8442580000    -1.1381740000     1.5692120000
   13      C       3.7428510000     0.2514960000    -0.2310100000
   14      C       2.6447340000     0.7598020000    -0.9284260000
   15      C       2.9117520000     1.6669060000    -2.1043730000
   16      C       1.3478490000     0.3941390000    -0.4860830000
   17      C       0.1229330000     0.8854410000    -1.1644150000
   18      O       0.1705180000     1.6230210000    -2.1395610000
   19      C      -1.2138830000     0.4573430000    -0.6295830000
   20      C      -2.3396540000     0.9410660000    -1.2946810000
   21      H      -5.6390030000     0.3896980000    -1.6177520000
   22      H      -5.2442060000     2.0040760000    -1.0304990000
   23      H      -4.6128520000     1.4609320000    -2.5859100000
   24      H      -4.7367650000    -0.5333630000     0.5656950000
   25      H      -2.4514690000    -2.6473320000     1.9693220000
   26      H      -2.4882330000    -1.2648430000     3.0267120000
   27      H      -3.9883580000    -1.7953810000     2.2352900000
   28      H       2.1876370000    -1.5897290000     2.1485870000
   29      H       5.2436620000    -2.0046400000     1.0308610000
   30      H       4.6130300000    -1.4602890000     2.5861310000
   31      H       5.6393350000    -0.3900710000     1.6170000000
   32      H       4.7367650000     0.5334690000    -0.5656210000
   33      H       3.9883550000     1.7955550000    -2.2351600000
   34      H       2.4513880000     2.6473850000    -1.9692590000
   35      H       2.4883130000     1.2649250000    -3.0266810000
   36      H      -2.1876300000     1.5896870000    -2.1486220000
 ----------------------------------------------------------------

   13    -846.2569551621      6.94e-09  Convergence criterion met
 Total energy in the final basis set =     -846.2770161015

                    Orbital Energies (a.u.)
 --------------------------------------------------------------

 Alpha MOs
 -- Occupied --
-19.1207 -19.1207 -10.2756 -10.2756 -10.2081 -10.2081 -10.2039 -10.2038
-10.2027 -10.2027 -10.2025 -10.2025 -10.1870 -10.1870 -10.1862 -10.1862
-10.1696 -10.1696 -10.1662 -10.1662  -1.0577  -1.0560  -0.8902  -0.8819
 -0.8185  -0.7988  -0.7975  -0.7789  -0.7189  -0.7152  -0.7004  -0.6977
 -0.6593  -0.6480  -0.6107  -0.5855  -0.5645  -0.5563  -0.5311  -0.5040
 -0.4852  -0.4815  -0.4637  -0.4572  -0.4493  -0.4374  -0.4339  -0.4335
 -0.4253  -0.4245  -0.4233  -0.4215  -0.4081  -0.4021  -0.3991  -0.3988
 -0.3839  -0.3787  -0.3768  -0.3651  -0.3605  -0.3600  -0.3542  -0.3491
 -0.2763  -0.2756  -0.2673  -0.2638  -0.2629  -0.2599

          Ground-State Mulliken Net Atomic Charges

     Atom                 Charge (a.u.)
  ----------------------------------------
      1 C                     0.531017
      2 C                     0.802852
      3 C                     0.049423
      4 C                    -0.106526
      5 C                    -0.212761
      6 C                    -0.289027
      7 C                    -1.349998
      8 O                    -0.224799
      9 C                    -0.391460
     10 C                    -0.356208
     11 C                     0.803078
     12 C                     0.531005
     13 C                     0.048916
     14 C                    -0.106658
     15 C                    -0.212731
     16 C                    -0.288852
     17 C                    -1.349956
     18 O                    -0.224806
     19 C                    -0.391821
     20 C                    -0.356681
     21 H                     0.213904
     22 H                     0.232262
     23 H                     0.221375
     24 H                     0.223936
     25 H                     0.149707
     26 H                     0.150057
     27 H                     0.219106
     28 H                     0.137719
     29 H                     0.232261
     30 H                     0.221337
     31 H                     0.213919
     32 H                     0.223879
     33 H                     0.219108
     34 H                     0.149703
     35 H                     0.150063
     36 H                     0.137657
  ----------------------------------------
  Sum of atomic charges =     0.000000

                    Cartesian Multipole Moments
 -----------------------------------------------------------------
    Charge (ESU x 10^10)
                 0.0000
    Dipole Moment (Debye)
         X      -0.0000      Y       0.0000      Z       0.0001
       Tot       0.0001
    Quadrupole Moments (Debye-Ang)
        XX     -81.4484     XY      -2.8109     YY    -121.5933
        XZ       3.8692     YZ       2.5277     ZZ    -123.4465

 Total job time:  980.71s(wall), 7706.32s(cpu)
        *  Thank you very much for using Q-Chem.  Have a nice day.  *
