 Gaussian 16, Revision A.03,
 Gaussian 16:  ES64L-G16RevA.03 25-Dec-2016

 ----------------------------------------------------------------
 #P UB3LYP/6-311++G(d,p) SCRF=(PCM,Solvent=n,n-DiMethylFormamide)
 ----------------------------------------------------------------

 ------------------
 Quinone PCM in DMF
 ------------------
 Symbolic Z-matrix:
 Charge = -1 Multiplicity = 1

                         Standard orientation:
 ---------------------------------------------------------------------
 Center     Atomic      Atomic             Coordinates (Angstroms)
 Number     Number       Type             X           Y           Z
 ---------------------------------------------------------------------
      1          8           0       -2.136406   -1.886091   -1.037090
      2         16           0       -2.909406   -0.960075   -0.180892
      3          8           0       -3.215722   -1.433349    1.184240
      4          8           0       -4.070071   -0.334590   -0.869206
      5          6           0       -1.773656    0.503981    0.042307
      6          6           0       -2.389172    1.752211   -0.069769
      7          6           0       -1.652252    2.934275   -0.035827
      8          6           0       -0.268773    2.884886    0.049230
      9          6           0        0.376968    1.648409    0.141851
     10          6           0        1.866757    1.650628    0.112509
     11          8           0        2.514228    2.690495    0.144310
     12          6           0        2.551493    0.333423   -0.021424
     13          6           0        3.924784    0.280370   -0.286977
     14          6           0        4.558143   -0.948399   -0.422326
     15          6           0        3.827441   -2.132704   -0.273147
     16          6           0        2.469362   -2.085344    0.018684
     17          6           0        1.822844   -0.851786    0.133787
     18          6           0        0.365460   -0.818119    0.496671
     19          8           0       -0.127772   -1.763332    1.071402
     20          6           0       -0.375325    0.447546    0.197492
     21          1           0       -3.462127    1.764604   -0.217082
     22          1           0       -2.160511    3.890042   -0.112779
     23          1           0        0.337159    3.782057    0.026008
     24          1           0        4.468627    1.212231   -0.384510
     25          1           0        5.619737   -0.990386   -0.641685
     26          1           0        4.323305   -3.091506   -0.381741
     27          1           0        1.885803   -2.987166    0.158449
 ---------------------------------------------------------------------

 SCF Done:  E(UB3LYP) =  -1312.41257980     A.U. after   16 cycles

 The electronic state is 1-A.
 Alpha  occ. eigenvalues --  -89.04857 -19.13055 -19.12983 -19.09241 -19.09169
 Alpha  occ. eigenvalues --  -19.09099 -10.28317 -10.28211 -10.21826 -10.21686
 Alpha  occ. eigenvalues --  -10.21115 -10.20639 -10.20554 -10.19816 -10.19757
 Alpha  occ. eigenvalues --  -10.19749 -10.19705 -10.19679 -10.19615 -10.19575
 Alpha  occ. eigenvalues --   -8.10701  -6.06960  -6.06951  -6.06917  -1.11312
 Alpha  occ. eigenvalues --   -1.06819  -1.06273  -0.97892  -0.97486  -0.89485
 Alpha  occ. eigenvalues --   -0.88199  -0.81232  -0.78420  -0.77623  -0.76929
 Alpha  occ. eigenvalues --   -0.69076  -0.67078  -0.64378  -0.63296  -0.59979
 Alpha  occ. eigenvalues --   -0.56732  -0.56097  -0.54920  -0.50838  -0.49182
 Alpha  occ. eigenvalues --   -0.49006  -0.48633  -0.47671  -0.45913  -0.45619
 Alpha  occ. eigenvalues --   -0.45321  -0.45201  -0.44986  -0.44254  -0.43724
 Alpha  occ. eigenvalues --   -0.41643  -0.39761  -0.39246  -0.39157  -0.37613
 Alpha  occ. eigenvalues --   -0.37043  -0.36891  -0.33726  -0.33477  -0.31467
 Alpha  occ. eigenvalues --   -0.30006  -0.29733  -0.28905  -0.28104  -0.27901
 Alpha  occ. eigenvalues --   -0.27329  -0.26890  -0.26768  -0.25660
 Alpha virt. eigenvalues --   -0.11335  -0.07454  -0.03508  -0.02946  -0.00439
 Alpha virt. eigenvalues --    0.00443   0.01298   0.01954   0.02361   0.02593
 Alpha virt. eigenvalues --    0.03178   0.03613   0.04035   0.04384   0.04604

  Beta  occ. eigenvalues --  -89.04857 -19.13055 -19.12983 -19.09241 -19.09169
  Beta  occ. eigenvalues --  -19.09099 -10.28317 -10.28211 -10.21826 -10.21686
  Beta  occ. eigenvalues --  -10.21115 -10.20639 -10.20554 -10.19816 -10.19757
  Beta  occ. eigenvalues --  -10.19749 -10.19705 -10.19679 -10.19615 -10.19575
  Beta  occ. eigenvalues --   -8.10701  -6.06960  -6.06951  -6.06917  -1.11312
  Beta  occ. eigenvalues --   -1.06819  -1.06273  -0.97892  -0.97486  -0.89485
  Beta  occ. eigenvalues --   -0.88199  -0.81232  -0.78420  -0.77623  -0.76929
  Beta  occ. eigenvalues --   -0.69076  -0.67078  -0.64378  -0.63296  -0.59979
  Beta  occ. eigenvalues --   -0.56732  -0.56097  -0.54920  -0.50838  -0.49182
  Beta  occ. eigenvalues --   -0.49006  -0.48633  -0.47671  -0.45913  -0.45619
  Beta  occ. eigenvalues --   -0.45321  -0.45201  -0.44986  -0.44254  -0.43724
  Beta  occ. eigenvalues --   -0.41643  -0.39761  -0.39246  -0.39157  -0.37613
  Beta  occ. eigenvalues --   -0.37043  -0.36891  -0.33726  -0.33477  -0.31467
  Beta  occ. eigenvalues --   -0.30006  -0.29733  -0.28905  -0.28104  -0.27901
  Beta  occ. eigenvalues --   -0.27329  -0.26890  -0.26768  -0.25660
  Beta virt. eigenvalues --   -0.11335  -0.07454  -0.03508  -0.02946  -0.00439
  Beta virt. eigenvalues --    0.00443   0.01298   0.01954   0.02361   0.02593
  Beta virt. eigenvalues --    0.03178   0.03613   0.04035   0.04384   0.04604

 Mulliken charges and spin densities:
               1          2
     1  O   -0.394445  -0.000000
     2  S    0.453852  -0.000000
     3  O   -0.344651   0.000000
     4  O   -0.370998   0.000000
     5  C   -1.021825   0.000000
     6  C    0.404756   0.000000
     7  C   -0.460615   0.000000
     8  C   -0.335003  -0.000000
     9  C    0.954447  -0.000000
    10  C   -0.289218  -0.000000
    11  O   -0.277130  -0.000000
    12  C    0.433137  -0.000000
    13  C    0.302287  -0.000000
    14  C   -0.463645   0.000000
    15  C   -0.407904  -0.000000
    16  C    0.073559  -0.000000
    17  C    0.177391   0.000000
    18  C   -0.918862  -0.000000
    19  O   -0.228717   0.000000
    20  C    0.257124   0.000000
    21  H    0.245194  -0.000000
    22  H    0.215828   0.000000
    23  H    0.186694   0.000000
    24  H    0.193368   0.000000
    25  H    0.203622   0.000000
    26  H    0.212845  -0.000000
    27  H    0.198906  -0.000000
 Sum of Mulliken charges =  -1.00000  -0.00000

 Dipole moment (field-independent basis, Debye):
    X=             15.4923    Y=              6.6970    Z=             -0.7078  Tot=             16.8927
 Quadrupole moment (field-independent basis, Debye-Ang):
   XX=           -164.0761   YY=           -133.6021   ZZ=           -135.8773
   XY=            -37.7196   XZ=             -5.3753   YZ=              1.6599

 Normal termination of Gaussian 16 at Tue Jan 16 16:57:40 2024.
