 Q-Chem 5.4, Q-Chem, Inc., Pleasanton, CA (2021)
 Q-Chem 5.4.0 for Intel X86 EM64T Linux

User input:
--------------------------------------------------------------
$molecule
-2 1
C                  4.5357850000      5.0500000000     -1.3178450000
O                  3.8669080000      3.8792320000     -0.9408630000
C                  4.4784350000      2.6623050000     -1.1641830000
C                  5.7464280000      2.5872600000     -1.7035930000
C                  6.3720200000      1.3294490000     -1.9142680000
C                  5.7009400000      0.1811940000     -1.5732950000
C                  4.4022220000      0.2133240000     -1.0177210000
C                  3.7941820000     -1.0783970000     -0.6909660000
O                  4.3928660000     -2.1511800000     -0.9822870000
C                  2.4973470000     -1.0141580000     -0.0258610000
C                  1.8836870000     -2.1788230000      0.5384260000
O                  2.6200390000     -3.3534600000      0.5640910000
C                  0.6352970000     -2.1472070000      1.1328380000
C                  0.1582430000     -3.3784140000      1.8864290000
C                 -1.3245060000     -3.3682150000      2.3138660000
O                 -2.1800890000     -3.7522830000      1.2329270000
C                 -1.6831630000     -1.9636830000      2.8450260000
C                 -1.4783640000     -0.8967290000      1.7731240000
O                 -2.6013740000     -1.1517830000      0.7969490000
C                 -2.8208730000     -0.0576580000     -0.0303860000
C                 -3.2550910000     -0.4355880000     -1.4344720000
C                 -3.7505880000      0.8335720000     -2.1730910000
N                 -3.3524730000      0.7850940000     -3.5874540000
C                 -3.2997300000      2.1301190000     -1.4410690000
O                 -1.9156980000      2.3925300000     -1.5998970000
C                 -3.8430600000      2.1031510000      0.0132480000
C                 -3.1518400000      3.0904530000      0.9520820000
O                 -3.8394450000      0.7778660000      0.5711100000
C                 -0.1155590000     -0.9226270000      1.1466230000
C                  0.4285970000      0.2607220000      0.6192580000
O                 -0.2836800000      1.3834980000      0.5741780000
C                  1.8008280000      0.2469540000      0.1019270000
C                  2.4237710000      1.4709440000     -0.2684200000
O                  1.7642080000      2.6604160000     -0.0822230000
C                  3.7324370000      1.4748010000     -0.7992810000
C                 -1.5532580000     -4.3854570000      3.4445960000
C                 -2.7024220000     -5.3622890000      3.2886310000
O                 -0.8549020000     -4.3938720000      4.4428690000
H                  3.8614410000      5.8729350000     -1.0697510000
H                  4.7535160000      5.0771560000     -2.3964970000
H                  5.4829290000      5.1867600000     -0.7727530000
H                  6.2821110000      3.4903700000     -1.9682620000
H                  7.3722210000      1.2925880000     -2.3382820000
H                  6.1331720000     -0.8027410000     -1.7144610000
H                  2.0593740000     -4.0356320000      0.9423940000
H                  0.7547660000     -3.5162330000      2.7990380000
H                  0.2783790000     -4.2934930000      1.2850060000
H                 -2.4238240000     -2.9398050000      0.7535080000
H                 -1.0337210000     -1.7459570000      3.6964440000
H                 -2.7233030000     -1.9424620000      3.1873600000
H                 -1.6773820000      0.0943560000      2.1848580000
H                 -1.9010300000      0.5151430000     -0.0625670000
H                 -2.3986850000     -0.8672220000     -1.9597960000
H                 -4.0425060000     -1.1953740000     -1.4015850000
H                 -4.8477440000      0.8420300000     -2.1482370000
H                 -2.3373740000      0.8631590000     -3.6236860000
H                 -3.7028640000      1.6137420000     -4.0638390000
H                 -3.7994360000      2.9712570000     -1.9440420000
H                 -1.3502990000      2.0211640000     -0.8842060000
H                 -4.9071070000      2.3681330000     -0.0613480000
H                 -2.1105200000      2.8058720000      1.1149490000
H                 -3.6680440000      3.0935510000      1.9168400000
H                 -3.1792530000      4.1033150000      0.5347900000
H                  0.8538890000      2.3874570000      0.2235450000
H                 -2.5548490000     -5.9740440000      2.3949810000
H                 -2.7638880000     -5.9863740000      4.1813020000
H                 -3.6381070000     -4.8207120000      3.1260110000
$end

$rem
BASIS  =  6-311++G(d,p)
GUI  =  2
JOB_TYPE  =  SP
METHOD  =  B3LYP
SCF_CONVERGENCE  = 8
SOLVENT_METHOD = sm12
$end

$smx
solvent dimethylformamide
charges CM5
$end

--------------------------------------------------------------

             Standard Nuclear Orientation (Angstroms)
    I     Atom           X                Y                Z
 ----------------------------------------------------------------
    1      C       4.5357850000     5.0500000000    -1.3178450000
    2      O       3.8669080000     3.8792320000    -0.9408630000
    3      C       4.4784350000     2.6623050000    -1.1641830000
    4      C       5.7464280000     2.5872600000    -1.7035930000
    5      C       6.3720200000     1.3294490000    -1.9142680000
    6      C       5.7009400000     0.1811940000    -1.5732950000
    7      C       4.4022220000     0.2133240000    -1.0177210000
    8      C       3.7941820000    -1.0783970000    -0.6909660000
    9      O       4.3928660000    -2.1511800000    -0.9822870000
   10      C       2.4973470000    -1.0141580000    -0.0258610000
   11      C       1.8836870000    -2.1788230000     0.5384260000
   12      O       2.6200390000    -3.3534600000     0.5640910000
   13      C       0.6352970000    -2.1472070000     1.1328380000
   14      C       0.1582430000    -3.3784140000     1.8864290000
   15      C      -1.3245060000    -3.3682150000     2.3138660000
   16      O      -2.1800890000    -3.7522830000     1.2329270000
   17      C      -1.6831630000    -1.9636830000     2.8450260000
   18      C      -1.4783640000    -0.8967290000     1.7731240000
   19      O      -2.6013740000    -1.1517830000     0.7969490000
   20      C      -2.8208730000    -0.0576580000    -0.0303860000
   21      C      -3.2550910000    -0.4355880000    -1.4344720000
   22      C      -3.7505880000     0.8335720000    -2.1730910000
   23      N      -3.3524730000     0.7850940000    -3.5874540000
   24      C      -3.2997300000     2.1301190000    -1.4410690000
   25      O      -1.9156980000     2.3925300000    -1.5998970000
   26      C      -3.8430600000     2.1031510000     0.0132480000
   27      C      -3.1518400000     3.0904530000     0.9520820000
   28      O      -3.8394450000     0.7778660000     0.5711100000
   29      C      -0.1155590000    -0.9226270000     1.1466230000
   30      C       0.4285970000     0.2607220000     0.6192580000
   31      O      -0.2836800000     1.3834980000     0.5741780000
   32      C       1.8008280000     0.2469540000     0.1019270000
   33      C       2.4237710000     1.4709440000    -0.2684200000
   34      O       1.7642080000     2.6604160000    -0.0822230000
   35      C       3.7324370000     1.4748010000    -0.7992810000
   36      C      -1.5532580000    -4.3854570000     3.4445960000
   37      C      -2.7024220000    -5.3622890000     3.2886310000
   38      O      -0.8549020000    -4.3938720000     4.4428690000
   39      H       3.8614410000     5.8729350000    -1.0697510000
   40      H       4.7535160000     5.0771560000    -2.3964970000
   41      H       5.4829290000     5.1867600000    -0.7727530000
   42      H       6.2821110000     3.4903700000    -1.9682620000
   43      H       7.3722210000     1.2925880000    -2.3382820000
   44      H       6.1331720000    -0.8027410000    -1.7144610000
   45      H       2.0593740000    -4.0356320000     0.9423940000
   46      H       0.7547660000    -3.5162330000     2.7990380000
   47      H       0.2783790000    -4.2934930000     1.2850060000
   48      H      -2.4238240000    -2.9398050000     0.7535080000
   49      H      -1.0337210000    -1.7459570000     3.6964440000
   50      H      -2.7233030000    -1.9424620000     3.1873600000
   51      H      -1.6773820000     0.0943560000     2.1848580000
   52      H      -1.9010300000     0.5151430000    -0.0625670000
   53      H      -2.3986850000    -0.8672220000    -1.9597960000
   54      H      -4.0425060000    -1.1953740000    -1.4015850000
   55      H      -4.8477440000     0.8420300000    -2.1482370000
   56      H      -2.3373740000     0.8631590000    -3.6236860000
   57      H      -3.7028640000     1.6137420000    -4.0638390000
   58      H      -3.7994360000     2.9712570000    -1.9440420000
   59      H      -1.3502990000     2.0211640000    -0.8842060000
   60      H      -4.9071070000     2.3681330000    -0.0613480000
   61      H      -2.1105200000     2.8058720000     1.1149490000
   62      H      -3.6680440000     3.0935510000     1.9168400000
   63      H      -3.1792530000     4.1033150000     0.5347900000
   64      H       0.8538890000     2.3874570000     0.2235450000
   65      H      -2.5548490000    -5.9740440000     2.3949810000
   66      H      -2.7638880000    -5.9863740000     4.1813020000
   67      H      -3.6381070000    -4.8207120000     3.1260110000
 ----------------------------------------------------------------

   18   -1853.8458650655      7.51e-09  Convergence criterion met
 Total energy in the final basis set =    -1854.0956684575

                    Orbital Energies (a.u.)
 --------------------------------------------------------------

 Alpha MOs
 -- Occupied --
-19.1406 -19.1270 -19.1236 -19.1182 -19.1106 -19.1087 -19.1019 -19.0850
-19.0503 -19.0235 -14.2920 -10.2628 -10.2451 -10.2364 -10.2287 -10.2208
-10.2188 -10.2166 -10.2156 -10.2024 -10.2015 -10.2005 -10.1942 -10.1929
-10.1773 -10.1763 -10.1674 -10.1645 -10.1633 -10.1633 -10.1620 -10.1559
-10.1558 -10.1536 -10.1501 -10.1496 -10.1475 -10.1441  -1.0587  -1.0571
 -1.0514  -1.0336  -1.0199  -1.0090  -1.0071  -0.9922  -0.9532  -0.9520
 -0.8854  -0.8410  -0.8322  -0.8021  -0.7731  -0.7664  -0.7613  -0.7488
 -0.7458  -0.7400  -0.7228  -0.7011  -0.6908  -0.6864  -0.6558  -0.6509
 -0.6289  -0.6240  -0.6039  -0.5971  -0.5826  -0.5643  -0.5599  -0.5566
 -0.5456  -0.5283  -0.5235  -0.5207  -0.5102  -0.5018  -0.4887  -0.4859
 -0.4821  -0.4759  -0.4687  -0.4629  -0.4605  -0.4588  -0.4578  -0.4505
 -0.4441  -0.4392  -0.4361  -0.4306  -0.4281  -0.4238  -0.4186  -0.4157
 -0.4122  -0.4078  -0.4026  -0.3996  -0.3986  -0.3926  -0.3880  -0.3808
 -0.3768  -0.3719  -0.3717  -0.3697  -0.3661  -0.3645  -0.3593  -0.3573
 -0.3558  -0.3537  -0.3482  -0.3474  -0.3439  -0.3386  -0.3369  -0.3304
 -0.3285  -0.3240  -0.3191  -0.3028  -0.3020  -0.2950  -0.2786  -0.2774
 -0.2721  -0.2672  -0.2520  -0.2512  -0.2442  -0.2365  -0.2267  -0.2231
 -0.2166  -0.1933  -0.1770  -0.1192

          Ground-State Mulliken Net Atomic Charges

     Atom                 Charge (a.u.)
  ----------------------------------------
      1 C                     0.393630
      2 O                    -0.048364
      3 C                    -0.035643
      4 C                     1.834627
      5 C                     0.781148
      6 C                    -1.120031
      7 C                    -1.068825
      8 C                    -2.072476
      9 O                    -0.366026
     10 C                    -0.638811
     11 C                    -0.868576
     12 O                    -0.105708
     13 C                    -1.549272
     14 C                    -1.035785
     15 C                     2.054750
     16 O                    -0.163011
     17 C                     0.352400
     18 C                    -0.217074
     19 O                     0.130342
     20 C                    -0.079937
     21 C                    -0.896098
     22 C                     0.899627
     23 N                    -0.315804
     24 C                    -0.530230
     25 O                    -0.379019
     26 C                     0.730139
     27 C                    -0.531573
     28 O                    -0.035321
     29 C                    -1.477380
     30 C                    -1.061413
     31 O                    -0.257702
     32 C                     0.091513
     33 C                    -0.799559
     34 O                    -0.286991
     35 C                    -0.683133
     36 C                     1.546991
     37 C                     0.442476
     38 O                    -0.335031
     39 H                     0.322739
     40 H                     0.197335
     41 H                     0.199430
     42 H                     0.396069
     43 H                     0.316446
     44 H                     0.007877
     45 H                     0.296523
     46 H                     0.183231
     47 H                     0.185298
     48 H                     0.240243
     49 H                     0.168826
     50 H                     0.284721
     51 H                     0.050095
     52 H                    -0.356465
     53 H                     0.021320
     54 H                     0.162166
     55 H                     0.256802
     56 H                     0.191235
     57 H                     0.336874
     58 H                     0.287836
     59 H                     0.237469
     60 H                     0.278814
     61 H                    -0.112761
     62 H                     0.166886
     63 H                     0.175351
     64 H                     0.529598
     65 H                     0.187714
     66 H                     0.283905
     67 H                     0.205569
  ----------------------------------------
  Sum of atomic charges =    -2.000000

                    Cartesian Multipole Moments
 -----------------------------------------------------------------
    Charge (ESU x 10^10)
                -9.6064
    Dipole Moment (Debye)
         X     -19.4662      Y       4.7145      Z       1.7413
       Tot      20.1045
    Quadrupole Moments (Debye-Ang)
        XX    -358.9295     XY      12.5303     YY    -276.6210
        XZ      19.3343     YZ       8.0253     ZZ    -270.9955

 Total job time:  10150.47s(wall), 42177.36s(cpu)
        *  Thank you very much for using Q-Chem.  Have a nice day.  *
