 Gaussian 16, Revision A.03,
 Gaussian 16:  ES64L-G16RevA.03 25-Dec-2016

 ----------------------------------------------------------------
 #P UB3LYP/6-311++G(d,p) SCRF=(PCM,Solvent=n,n-DiMethylFormamide)
 ----------------------------------------------------------------

 ------------------
 Radical PCM in DMF
 ------------------
 Symbolic Z-matrix:
 Charge = -1 Multiplicity = 2

                         Standard orientation:
 ---------------------------------------------------------------------
 Center     Atomic      Atomic             Coordinates (Angstroms)
 Number     Number       Type             X           Y           Z
 ---------------------------------------------------------------------
      1          6           0       -2.480662    1.382685    0.000006
      2          6           0       -3.690521    0.713913   -0.000084
      3          6           0       -3.690553   -0.713947   -0.000025
      4          6           0       -2.480697   -1.382731   -0.000204
      5          6           0       -1.239364   -0.711183   -0.000166
      6          6           0       -1.239348    0.711143    0.000053
      7          6           0        0.000002    1.488953    0.000214
      8          6           0        1.239368    0.711183    0.000120
      9          6           0        1.239358   -0.711140   -0.000077
     10          6           0       -0.000006   -1.488950   -0.000254
     11          6           0        2.480698    1.382724    0.000137
     12          6           0        3.690562    0.713943   -0.000026
     13          6           0        3.690531   -0.713906    0.000096
     14          6           0        2.480665   -1.382681    0.000009
     15          8           0       -0.000018    2.747109    0.000399
     16          8           0        0.000024   -2.747105   -0.000431
     17          6           0        4.990307    1.484627   -0.000520
     18          6           0        4.990210   -1.484688    0.000490
     19          6           0       -4.990222    1.484651   -0.000299
     20          6           0       -4.990319   -1.484589    0.000477
     21          1           0       -2.450349    2.467429   -0.000031
     22          1           0       -2.450375   -2.467474   -0.000252
     23          1           0        2.450387    2.467468    0.000147
     24          1           0        2.450363   -2.467424    0.000063
     25          1           0        4.799729    2.560163    0.000288
     26          1           0        5.603871    1.254557   -0.880567
     27          1           0        5.605344    1.253410    0.878174
     28          1           0        5.604567   -1.253490    0.879679
     29          1           0        5.604493   -1.254766   -0.879071
     30          1           0        4.799544   -2.560208    0.001313
     31          1           0       -4.799592    2.560171   -0.001298
     32          1           0       -5.604282    1.254798    0.879446
     33          1           0       -5.604807    1.253259   -0.879281
     34          1           0       -5.605545   -1.252993   -0.877983
     35          1           0       -5.603668   -1.254842    0.880762
     36          1           0       -4.799778   -2.560131   -0.000810
 ---------------------------------------------------------------------

 SCF Done:  E(UB3LYP) =  -846.403280947     A.U. after   16 cycles

 The electronic state is 2-A.
 Alpha  occ. eigenvalues --  -19.07074 -19.07073 -10.21814 -10.21812 -10.17684
 Alpha  occ. eigenvalues --  -10.17684 -10.17641 -10.17641 -10.16530 -10.16529
 Alpha  occ. eigenvalues --  -10.16486 -10.16485 -10.16239 -10.16239 -10.16238
 Alpha  occ. eigenvalues --  -10.16238 -10.16162 -10.16162 -10.16161 -10.16161
 Alpha  occ. eigenvalues --   -0.99756  -0.99510  -0.86102  -0.85394  -0.80022
 Alpha  occ. eigenvalues --   -0.76747  -0.76184  -0.76134  -0.70731  -0.70014
 Alpha  occ. eigenvalues --   -0.69681  -0.66378  -0.63806  -0.60632  -0.58354
 Alpha  occ. eigenvalues --   -0.58260  -0.55069  -0.50424  -0.50400  -0.47936
 Alpha  occ. eigenvalues --   -0.45354  -0.44575  -0.43926  -0.43383  -0.43054
 Alpha  occ. eigenvalues --   -0.41998  -0.41556  -0.41003  -0.40855  -0.40713
 Alpha  occ. eigenvalues --   -0.40123  -0.39682  -0.39656  -0.38288  -0.38284
 Alpha  occ. eigenvalues --   -0.37517  -0.37301  -0.37100  -0.35531  -0.34479
 Alpha  occ. eigenvalues --   -0.33429  -0.33394  -0.32426  -0.32071  -0.25352
 Alpha  occ. eigenvalues --   -0.24929  -0.24693  -0.24209  -0.23201  -0.23072
 Alpha  occ. eigenvalues --   -0.13542
 Alpha virt. eigenvalues --   -0.04617  -0.01292  -0.00596  -0.00182   0.00146
 Alpha virt. eigenvalues --    0.01009   0.01407   0.01748   0.03246   0.03533
 Alpha virt. eigenvalues --    0.03557   0.03655   0.03738   0.04559   0.04565

  Beta  occ. eigenvalues --  -19.06537 -19.06536 -10.21622 -10.21621 -10.17641
  Beta  occ. eigenvalues --  -10.17640 -10.17597 -10.17597 -10.16459 -10.16458
  Beta  occ. eigenvalues --  -10.16414 -10.16414 -10.16242 -10.16242 -10.16242
  Beta  occ. eigenvalues --  -10.16242 -10.16152 -10.16152 -10.16151 -10.16151
  Beta  occ. eigenvalues --   -0.98810  -0.98544  -0.85879  -0.85286  -0.79681
  Beta  occ. eigenvalues --   -0.76645  -0.76019  -0.76007  -0.70380  -0.69841
  Beta  occ. eigenvalues --   -0.69616  -0.66271  -0.63223  -0.60557  -0.58311
  Beta  occ. eigenvalues --   -0.58022  -0.54767  -0.50298  -0.50174  -0.47771
  Beta  occ. eigenvalues --   -0.45297  -0.44333  -0.43791  -0.43138  -0.42956
  Beta  occ. eigenvalues --   -0.41943  -0.41479  -0.40749  -0.40129  -0.39957
  Beta  occ. eigenvalues --   -0.39741  -0.39610  -0.39598  -0.38276  -0.38275
  Beta  occ. eigenvalues --   -0.37255  -0.36979  -0.35445  -0.35175  -0.34201
  Beta  occ. eigenvalues --   -0.33365  -0.33301  -0.32295  -0.30792  -0.24545
  Beta  occ. eigenvalues --   -0.23716  -0.23714  -0.23549  -0.22708  -0.22612
  Beta virt. eigenvalues --   -0.07703  -0.03672  -0.00586  -0.00315  -0.00181
  Beta virt. eigenvalues --    0.00377   0.01016   0.01429   0.01745   0.03316
  Beta virt. eigenvalues --    0.03545   0.03556   0.03663   0.03750   0.04563

 Mulliken charges and spin densities:
               1          2
     1  C   -0.216087   0.026964
     2  C    0.335094   0.035637
     3  C    0.334965   0.035626
     4  C   -0.216188   0.026976
     5  C    0.135438   0.037890
     6  C    0.135386   0.037900
     7  C   -0.763319   0.101804
     8  C    0.135319   0.037875
     9  C    0.135256   0.037890
    10  C   -0.763314   0.101801
    11  C   -0.216242   0.026973
    12  C    0.335011   0.035622
    13  C    0.335101   0.035636
    14  C   -0.216133   0.026958
    15  O   -0.460629   0.200171
    16  O   -0.460627   0.200170
    17  C   -0.500619  -0.003507
    18  C   -0.500612  -0.003508
    19  C   -0.500625  -0.003509
    20  C   -0.500606  -0.003507
    21  H    0.127929  -0.001899
    22  H    0.127938  -0.001900
    23  H    0.127934  -0.001900
    24  H    0.127927  -0.001899
    25  H    0.165791   0.000121
    26  H    0.157415   0.001909
    27  H    0.157221   0.001904
    28  H    0.157277   0.001907
    29  H    0.157354   0.001908
    30  H    0.165795   0.000121
    31  H    0.165794   0.000121
    32  H    0.157378   0.001908
    33  H    0.157251   0.001906
    34  H    0.157187   0.001903
    35  H    0.157447   0.001910
    36  H    0.165791   0.000121
 Sum of Mulliken charges =  -1.00000   1.00000

 Dipole moment (field-independent basis, Debye):
    X=             -0.0001    Y=             -0.0001    Z=              0.0003  Tot=              0.0003
 Quadrupole moment (field-independent basis, Debye-Ang):
   XX=           -105.3498   YY=           -156.9761   ZZ=           -125.0485
   XY=              0.0003   XZ=             -0.0029   YZ=             -0.0084

 Normal termination of Gaussian 16 at Sun Jan 14 01:15:13 2024.
