 Q-Chem 5.4, Q-Chem, Inc., Pleasanton, CA (2021)
 Q-Chem 5.4.0 for Intel X86 EM64T Linux

User input:
--------------------------------------------------------------
$molecule
-2 1
C                  1.2354580000      1.6765060000     -0.6761900000
C                  0.0418290000      1.2607710000      0.0258000000
C                 -0.3174080000     -0.0743280000      0.1380160000
C                  0.4691450000     -1.1582820000     -0.4224700000
C                  1.6487450000     -0.7838540000     -1.1376320000
C                  2.0152180000      0.5951260000     -1.2235570000
O                  1.5663820000      2.9159530000     -0.7715070000
O                  0.0832030000     -2.3917070000     -0.2930600000
S                  3.5519960000      1.1243510000     -1.9554630000
C                  4.4451490000      2.0496200000     -0.6599510000
C                  4.2419480000      3.4219740000     -0.4768370000
C                  5.3488650000      1.3526280000      0.1437210000
C                  6.0586530000      2.0240450000      1.1379980000
C                  4.9590120000      4.0857560000      0.5203640000
C                  5.8646360000      3.3976290000      1.3298680000
O                  3.3877140000      2.0567710000     -3.0958080000
O                  4.4369780000     -0.0451520000     -2.2102230000
H                  3.5197130000      3.9257810000     -1.1010450000
H                  5.4893300000      0.2925610000     -0.0303350000
H                  4.8004330000      5.1504290000      0.6708470000
H                  6.7625180000      1.4785290000      1.7608060000
C                 -1.5846000000     -0.4709730000      0.8601560000
C                 -0.7969950000      2.3567890000      0.6417520000
H                  6.4116290000      3.9233210000      2.1083210000
H                 -2.4499040000      0.1213880000      0.5319890000
H                 -1.5018350000     -0.3281020000      1.9493480000
H                 -1.7650640000     -1.5318050000      0.6714260000
H                 -1.7826510000      2.4519220000      0.1589220000
H                 -0.2678600000      3.3049510000      0.5243510000
H                 -0.9894700000      2.1809680000      1.7101170000
C                  2.3784610000     -1.9191610000     -1.8179270000
H                  1.7043800000     -2.7794660000     -1.8036110000
H                  3.3042860000     -2.2033780000     -1.3002450000
H                  2.6699670000     -1.6771820000     -2.8436390000
$end
$rem
MAX_SCF_CYCLES=200
BASIS  =  6-311++G(d,p)
GUI  =  2
JOB_TYPE  =  SP
METHOD  =  B3LYP
SOLVENT_METHOD = COSMO
$end
$solvent
dielectric 37.219
opticaldielectric 1.43
$end

--------------------------------------------------------------

             Standard Nuclear Orientation (Angstroms)
    I     Atom           X                Y                Z
 ----------------------------------------------------------------
    1      C      -0.7376708647    -0.9344609331     0.7033037254
    2      C      -1.9792943453    -1.5190124735     0.2482802434
    3      C      -2.9688648702    -0.7611291593    -0.3604036245
    4      C      -2.8419216603     0.6649423785    -0.6011770501
    5      C      -1.6333592903     1.2806030050    -0.1501247646
    6      C      -0.6153126208     0.4798038979     0.4545017105
    7      O       0.1787522663    -1.6438923450     1.2616052628
    8      O      -3.8027546454     1.3281679850    -1.1703581950
    9      S       0.9795310889     1.1447771411     0.8923786822
   10      C       2.2144597745     0.1604260970    -0.0231542279
   11      C       2.7378605639    -1.0236405963     0.5080844795
   12      C       2.6341060942     0.6247828419    -1.2708156083
   13      C       3.5830953629    -0.0920923191    -1.9979303978
   14      C       3.6892114905    -1.7334057952    -0.2270086675
   15      C       4.1149926246    -1.2778065745    -1.4760523415
   16      O       1.3174127369     1.0060722804     2.3288254457
   17      O       1.1464392990     2.5116403020     0.3269940224
   18      H       2.3753122400    -1.3656825935     1.4655010559
   19      H       2.2157364096     1.5497969042    -1.6490797268
   20      H       4.0944288317    -2.6569150670     0.1782697070
   21      H       3.9085971302     0.2731899912    -2.9682503876
   22      C      -4.2641483688    -1.4018810759    -0.8034235341
   23      C      -2.1452877626    -3.0059519598     0.4621380816
   24      H       4.8504894150    -1.8428224391    -2.0429244948
   25      H      -4.7058458773    -2.0281520009    -0.0160073886
   26      H      -4.1243172914    -2.0534626039    -1.6806294181
   27      H      -4.9590329058    -0.6059562877    -1.0812544398
   28      H      -2.9432141525    -3.2390467171     1.1850994619
   29      H      -1.2065637421    -3.4066022023     0.8507955371
   30      H      -2.4045564162    -3.5323233483    -0.4679567252
   31      C      -1.5810256459     2.7838379592    -0.2976190843
   32      H      -2.5993443528     3.1136133411    -0.5189560312
   33      H      -0.9310254988     3.1102831279    -1.1203336445
   34      H      -1.2030013577     3.2816481030     0.5995416536
 ----------------------------------------------------------------

   12   -1279.3054019909      4.66e-06  Convergence criterion met
 Total energy in the final basis set =    -1279.3054019909
    6   -1279.5765402522      4.05e-06  Convergence criterion met
 Total energy in the final basis set =    -1279.5765402522

                    Orbital Energies (a.u.)
 --------------------------------------------------------------

 Alpha MOs
 -- Occupied --
-89.0305 -19.0997 -19.0942 -19.0287 -19.0192 -10.1950 -10.1901 -10.1791
-10.1767 -10.1749 -10.1747 -10.1734 -10.1729 -10.1620 -10.1430 -10.1414
-10.1385 -10.1373 -10.1365 -10.1322  -8.0939  -6.0571  -6.0558  -6.0544
 -1.0859  -0.9807  -0.9513  -0.9352  -0.8601  -0.8016  -0.7709  -0.7560
 -0.7481  -0.7066  -0.7004  -0.6698  -0.6263  -0.6121  -0.6070  -0.5830
 -0.5408  -0.5209  -0.5145  -0.4762  -0.4686  -0.4610  -0.4563  -0.4413
 -0.4349  -0.4237  -0.4121  -0.4072  -0.3887  -0.3866  -0.3777  -0.3753
 -0.3740  -0.3673  -0.3651  -0.3604  -0.3473  -0.3434  -0.3432  -0.3301
 -0.3175  -0.3167  -0.3141  -0.3073  -0.2891  -0.2767  -0.2607  -0.2568
 -0.2333  -0.2098  -0.2092  -0.1981  -0.1284

          Ground-State Mulliken Net Atomic Charges

     Atom                 Charge (a.u.)
  ----------------------------------------
      1 C                    -0.760562
      2 C                     0.389339
      3 C                     0.815987
      4 C                    -1.349546
      5 C                     0.715263
      6 C                     0.234017
      7 O                    -0.578489
      8 O                    -0.727517
      9 S                     0.131871
     10 C                     0.017348
     11 C                    -0.062484
     12 C                     0.133858
     13 C                    -0.517699
     14 C                    -0.438305
     15 C                    -0.306150
     16 O                    -0.285367
     17 O                    -0.303435
     18 H                     0.272085
     19 H                     0.241666
     20 H                     0.219873
     21 H                     0.221124
     22 C                    -0.500248
     23 C                    -0.575777
     24 H                     0.203052
     25 H                     0.140748
     26 H                     0.159216
     27 H                     0.174057
     28 H                     0.153931
     29 H                     0.165453
     30 H                     0.144044
     31 C                    -0.600251
     32 H                     0.159809
     33 H                     0.161399
     34 H                     0.151689
  ----------------------------------------
  Sum of atomic charges =    -2.000000

                    Cartesian Multipole Moments
 -----------------------------------------------------------------
    Charge (ESU x 10^10)
                -9.6064
    Dipole Moment (Debye)
         X      11.7611      Y      -6.6170      Z      -4.7498
       Tot      14.3062
    Quadrupole Moments (Debye-Ang)
        XX    -191.1098     XY       8.3664     YY    -161.8783
        XZ     -28.2893     YZ       4.9680     ZZ    -152.6481

 Total job time:  121.36s(wall), 930.14s(cpu)
        *  Thank you very much for using Q-Chem.  Have a nice day.  *
