 Gaussian 16, Revision A.03,
 Gaussian 16:  ES64L-G16RevA.03 25-Dec-2016

 ----------------------------------------------------------------
 #P UB3LYP/6-311++G(d,p) SCRF=(PCM,Solvent=n,n-DiMethylFormamide)
 ----------------------------------------------------------------

 ------------------
 Radical PCM in DMF
 ------------------
 Symbolic Z-matrix:
 Charge = -1 Multiplicity = 2

                         Standard orientation:
 ---------------------------------------------------------------------
 Center     Atomic      Atomic             Coordinates (Angstroms)
 Number     Number       Type             X           Y           Z
 ---------------------------------------------------------------------
      1          6           0       -3.215769    1.393626    0.000025
      2          6           0       -4.414573    0.703656   -0.000191
      3          6           0       -4.414578   -0.703683   -0.000243
      4          6           0       -1.986343    0.706661    0.000169
      5          6           0       -1.986357   -0.706661    0.000146
      6          6           0       -3.215766   -1.393641   -0.000048
      7          6           0       -0.733604    1.487386    0.000283
      8          6           0        0.478833    0.692965    0.000155
      9          6           0        0.478832   -0.692967    0.000146
     10          6           0       -0.733614   -1.487392    0.000276
     11          8           0       -0.743487    2.736629    0.000043
     12          8           0       -0.743508   -2.736638    0.000074
     13          1           0       -3.183196    2.476837    0.000071
     14          1           0       -3.183082   -2.476844   -0.000059
     15         35           0        2.106110    1.711204   -0.000072
     16         35           0        2.106151   -1.711193   -0.000058
     17          1           0       -5.354631    1.247056   -0.000307
     18          1           0       -5.354634   -1.247088   -0.000388
 ---------------------------------------------------------------------

 SCF Done:  E(UB3LYP) =  -5682.49660303     A.U. after   17 cycles

 The electronic state is 2-A.
 Alpha  occ. eigenvalues -- -482.82954-482.82954 -62.48228 -62.48228 -56.30259
 Alpha  occ. eigenvalues --  -56.30259 -56.29896 -56.29896 -56.29853 -56.29853
 Alpha  occ. eigenvalues --  -19.08977 -19.08977 -10.24272 -10.24271 -10.23169
 Alpha  occ. eigenvalues --  -10.23114 -10.18522 -10.18475 -10.17984 -10.17935
 Alpha  occ. eigenvalues --  -10.17717 -10.17717  -8.69196  -8.69195  -6.52319
 Alpha  occ. eigenvalues --   -6.52319  -6.51101  -6.51101  -6.50980  -6.50980
 Alpha  occ. eigenvalues --   -2.63418  -2.63417  -2.63090  -2.63090  -2.62999
 Alpha  occ. eigenvalues --   -2.62999  -2.62026  -2.62026  -2.62025  -2.62025
 Alpha  occ. eigenvalues --   -1.02089  -1.01831  -0.87180  -0.85122  -0.79401
 Alpha  occ. eigenvalues --   -0.78294  -0.75856  -0.72525  -0.68043  -0.62024
 Alpha  occ. eigenvalues --   -0.61065  -0.56928  -0.52743  -0.50142  -0.47561
 Alpha  occ. eigenvalues --   -0.45718  -0.43706  -0.43206  -0.42773  -0.42749
 Alpha  occ. eigenvalues --   -0.39908  -0.39845  -0.39568  -0.36942  -0.36119
 Alpha  occ. eigenvalues --   -0.34824  -0.33591  -0.30608  -0.30541  -0.27899
 Alpha  occ. eigenvalues --   -0.27571  -0.26327  -0.26022  -0.24948  -0.24942
 Alpha  occ. eigenvalues --   -0.16619
 Alpha virt. eigenvalues --   -0.04105  -0.03551  -0.02854  -0.00136   0.00871
 Alpha virt. eigenvalues --    0.01174   0.01666   0.03179   0.03590   0.03901
 Alpha virt. eigenvalues --    0.04367   0.04567   0.05536   0.05837   0.05876

  Beta  occ. eigenvalues -- -482.82952-482.82952 -62.48226 -62.48226 -56.30261
  Beta  occ. eigenvalues --  -56.30261 -56.29887 -56.29887 -56.29852 -56.29852
  Beta  occ. eigenvalues --  -19.08375 -19.08374 -10.24136 -10.24135 -10.22963
  Beta  occ. eigenvalues --  -10.22906 -10.18492 -10.18444 -10.17960 -10.17912
  Beta  occ. eigenvalues --  -10.17708 -10.17707  -8.69192  -8.69192  -6.52323
  Beta  occ. eigenvalues --   -6.52323  -6.51085  -6.51085  -6.50978  -6.50978
  Beta  occ. eigenvalues --   -2.63419  -2.63418  -2.63082  -2.63082  -2.63001
  Beta  occ. eigenvalues --   -2.63001  -2.62018  -2.62018  -2.62017  -2.62016
  Beta  occ. eigenvalues --   -1.01057  -1.00773  -0.86867  -0.84840  -0.79206
  Beta  occ. eigenvalues --   -0.78067  -0.75694  -0.72326  -0.67196  -0.61877
  Beta  occ. eigenvalues --   -0.60726  -0.56648  -0.52518  -0.49898  -0.47291
  Beta  occ. eigenvalues --   -0.45592  -0.43152  -0.42504  -0.42192  -0.42168
  Beta  occ. eigenvalues --   -0.39702  -0.39615  -0.37118  -0.36496  -0.35990
  Beta  occ. eigenvalues --   -0.34736  -0.32183  -0.30564  -0.30165  -0.27813
  Beta  occ. eigenvalues --   -0.25765  -0.25713  -0.25455  -0.24447  -0.24167
  Beta virt. eigenvalues --   -0.10031  -0.03382  -0.03312  -0.01690  -0.00117
  Beta virt. eigenvalues --    0.01012   0.01193   0.01698   0.03189   0.03957
  Beta virt. eigenvalues --    0.03983   0.04609   0.05536   0.05608   0.05924

 Mulliken charges and spin densities:
               1          2
     1  C    0.174093   0.028321
     2  C   -0.384250   0.018100
     3  C   -0.384284   0.018101
     4  C    0.445134   0.010728
     5  C    0.445254   0.010728
     6  C    0.174172   0.028322
     7  C   -1.059853   0.078830
     8  C    0.467221   0.135812
     9  C    0.467310   0.135814
    10  C   -1.059861   0.078830
    11  O   -0.385963   0.223418
    12  O   -0.385969   0.223415
    13  H    0.168098  -0.002674
    14  H    0.168094  -0.002674
    15  Br  -0.117451   0.008963
    16  Br  -0.117463   0.008961
    17  H    0.192857  -0.001498
    18  H    0.192860  -0.001498
 Sum of Mulliken charges =  -1.00000   1.00000

 Dipole moment (field-independent basis, Debye):
    X=             -0.8530    Y=              0.0001    Z=             -0.0001  Tot=              0.8530
 Quadrupole moment (field-independent basis, Debye-Ang):
   XX=           -105.7909   YY=           -143.8924   ZZ=           -110.5134
   XY=             -0.0000   XZ=              0.0008   YZ=              0.0004

 Normal termination of Gaussian 16 at Sun Jan 21 08:19:43 2024.
