 Gaussian 16, Revision A.03,
 Gaussian 16:  ES64L-G16RevA.03 25-Dec-2016

 --------------------------------------
 #P UB3LYP/6-311++G(d,p) nosym opt freq
 --------------------------------------

 -------
 Radical
 -------
 Symbolic Z-matrix:
 Charge = -1 Multiplicity = 2

 SCF Done:  E(UB3LYP) =  -420.954470240     A.U. after   20 cycles
 SCF Done:  E(UB3LYP) =  -420.970058804     A.U. after   18 cycles
 SCF Done:  E(UB3LYP) =  -420.970283996     A.U. after   15 cycles
 SCF Done:  E(UB3LYP) =  -420.970303073     A.U. after   13 cycles
 SCF Done:  E(UB3LYP) =  -420.970307388     A.U. after   13 cycles
 SCF Done:  E(UB3LYP) =  -420.970311149     A.U. after   11 cycles
 SCF Done:  E(UB3LYP) =  -420.970317800     A.U. after   13 cycles
 SCF Done:  E(UB3LYP) =  -420.970320668     A.U. after   11 cycles
 SCF Done:  E(UB3LYP) =  -420.970321814     A.U. after   12 cycles
 Optimization completed.
    -- Stationary point found.
 Normal termination of Gaussian 16 at Sun Dec 17 20:54:58 2023.

 ----------------------------------------------------------------------
 #P Geom=AllCheck Guess=TCheck SCRF=Check GenChk UB3LYP/6-311++G(d,p) F
 req
 ----------------------------------------------------------------------

 Structure from the checkpoint file:  "032-rad.chk"
 -------
 Radical
 -------
 Charge = -1 Multiplicity = 2

                          Input orientation:
 ---------------------------------------------------------------------
 Center     Atomic      Atomic             Coordinates (Angstroms)
 Number     Number       Type             X           Y           Z
 ---------------------------------------------------------------------
      1          6           0       -2.201532   -0.378519    0.002799
      2          6           0       -0.722191   -0.097396    0.000020
      3          6           0       -0.224801    1.181517   -0.038503
      4          6           0        1.190890    1.493488   -0.042413
      5          8           0        1.622915    2.683536   -0.078259
      6          6           0        2.071542    0.344654   -0.002216
      7          6           0        1.591369   -0.938369    0.036429
      8          6           0        0.178033   -1.246750    0.040213
      9          8           0       -0.258173   -2.435875    0.076113
     10          1           0       -2.491366   -0.945626    0.894269
     11          1           0       -2.483885   -1.001982   -0.852718
     12          1           0       -2.778773    0.550320   -0.029503
     13          1           0       -0.900883    2.033713   -0.068454
     14          1           0        3.139618    0.546735   -0.004051
     15          1           0        2.267239   -1.789445    0.066274
 ---------------------------------------------------------------------

 SCF Done:  E(UB3LYP) =  -420.970321814     A.U. after    1 cycles

 Alpha  occ. eigenvalues --  -18.92741 -18.92601 -10.07121 -10.07105 -10.03481
 Alpha  occ. eigenvalues --  -10.03257 -10.02157 -10.02067 -10.01869  -0.84747
 Alpha  occ. eigenvalues --   -0.84391  -0.68217  -0.62652  -0.55994  -0.52374
 Alpha  occ. eigenvalues --   -0.44969  -0.41361  -0.33451  -0.32177  -0.29828
 Alpha  occ. eigenvalues --   -0.29048  -0.27057  -0.25598  -0.25116  -0.24659
 Alpha  occ. eigenvalues --   -0.22079  -0.21997  -0.21112  -0.13298  -0.11219
 Alpha  occ. eigenvalues --   -0.09163  -0.08738  -0.01431
 Alpha virt. eigenvalues --    0.09694   0.10991   0.12123   0.12683   0.13317
 Alpha virt. eigenvalues --    0.14210   0.14392   0.16773   0.17716   0.18382
 Alpha virt. eigenvalues --    0.18614   0.19896   0.19913   0.20952   0.21802

  Beta  occ. eigenvalues --  -18.92014 -18.91850 -10.07011 -10.06996 -10.03490
  Beta  occ. eigenvalues --  -10.03144 -10.02045 -10.01933 -10.01771  -0.83486
  Beta  occ. eigenvalues --   -0.83076  -0.67632  -0.62377  -0.55639  -0.51479
  Beta  occ. eigenvalues --   -0.44562  -0.40978  -0.33258  -0.31717  -0.29522
  Beta  occ. eigenvalues --   -0.28608  -0.26939  -0.25456  -0.24405  -0.22944
  Beta  occ. eigenvalues --   -0.21652  -0.20877  -0.19067  -0.10472  -0.09652
  Beta  occ. eigenvalues --   -0.08471  -0.08060
  Beta virt. eigenvalues --    0.05912   0.09690   0.11001   0.12133   0.13295
  Beta virt. eigenvalues --    0.13333   0.14219   0.15205   0.17734   0.18086
  Beta virt. eigenvalues --    0.18420   0.18650   0.19996   0.20927   0.21004

 Mulliken charges and spin densities:
               1          2
     1  C   -0.444847   0.006194
     2  C    1.473829   0.092556
     3  C   -0.703139   0.042235
     4  C   -0.625283   0.095985
     5  O   -0.427004   0.264265
     6  C    0.182538   0.103861
     7  C    0.225487   0.088177
     8  C   -1.063896   0.059023
     9  O   -0.415812   0.263659
    10  H    0.146302   0.004621
    11  H    0.146348   0.004613
    12  H    0.115289  -0.000570
    13  H    0.111218  -0.007902
    14  H    0.138657  -0.008365
    15  H    0.140312  -0.008353
 Sum of Mulliken charges =  -1.00000   1.00000

 Dipole moment (field-independent basis, Debye):
    X=             -3.2383    Y=             -0.8036    Z=              0.0120  Tot=              3.3365
 Quadrupole moment (field-independent basis, Debye-Ang):
   XX=            -63.6773   YY=            -90.7180   ZZ=            -57.4819
   XY=            -13.0746   XZ=              0.3883   YZ=              0.9996

  Exact polarizability: 121.317  19.791 146.606  -0.372  -2.656  60.311
 Approx polarizability: 168.394  42.802 256.023  -1.024  -5.121  89.026

                      1                      2                      3
                      A                      A                      A
 Frequencies --    118.8070               122.3858               195.9498
 Red. masses --      1.3433                 2.8939                 3.3858
 Frc consts  --      0.0112                 0.0255                 0.0766
 IR Inten    --      2.9549                 9.6380                 0.0048

                      4                      5                      6
                      A                      A                      A
 Frequencies --    284.9021               323.1973               381.7102
 Red. masses --      3.1475                 5.6056                 9.7035
 Frc consts  --      0.1505                 0.3450                 0.8330
 IR Inten    --      2.0690                 0.1712                 9.6084

                      7                      8                      9
                      A                      A                      A
 Frequencies --    420.3769               457.3906               507.0110
 Red. masses --      3.1190                 7.6152                 6.0273
 Frc consts  --      0.3247                 0.9387                 0.9129
 IR Inten    --      1.6538                 0.2221                 1.1916

                     10                     11                     12
                      A                      A                      A
 Frequencies --    586.4798               588.6243               714.2261
 Red. masses --      2.1791                 4.5333                 6.2383
 Frc consts  --      0.4416                 0.9254                 1.8750
 IR Inten    --      3.6213                 0.2888                 4.9278

                     13                     14                     15
                      A                      A                      A
 Frequencies --    744.7944               794.4476               802.0768
 Red. masses --      4.2945                 4.2810                 1.5835
 Frc consts  --      1.4036                 1.5919                 0.6002
 IR Inten    --      0.0004                27.8798                17.1556

                     16                     17                     18
                      A                      A                      A
 Frequencies --    873.2692               919.2950               931.8352
 Red. masses --      1.6224                 3.3232                 1.2572
 Frc consts  --      0.7289                 1.6547                 0.6432
 IR Inten    --     38.3811                 7.9812                 0.1904

                     19                     20                     21
                      A                      A                      A
 Frequencies --   1010.7470              1049.1176              1094.2638
 Red. masses --      1.5980                 1.4914                 1.7423
 Frc consts  --      0.9618                 0.9671                 1.2292
 IR Inten    --     26.7124                 0.8593                 6.7718

                     22                     23                     24
                      A                      A                      A
 Frequencies --   1150.9661              1212.0998              1249.2878
 Red. masses --      2.0442                 2.7649                 1.5996
 Frc consts  --      1.5955                 2.3933                 1.4709
 IR Inten    --     18.2975                13.4664                 2.2813

                     25                     26                     27
                      A                      A                      A
 Frequencies --   1350.9280              1396.3033              1433.2890
 Red. masses --      2.0304                 1.2930                 4.4737
 Frc consts  --      2.1832                 1.4852                 5.4148
 IR Inten    --     20.5182                 5.8045                40.5486

                     28                     29                     30
                      A                      A                      A
 Frequencies --   1463.7906              1480.5007              1483.6700
 Red. masses --      1.0467                 1.3721                 5.9495
 Frc consts  --      1.3214                 1.7720                 7.7162
 IR Inten    --      3.9755                 2.9932                 7.5201

                     31                     32                     33
                      A                      A                      A
 Frequencies --   1524.3556              1526.3313              1644.4155
 Red. masses --      4.0913                 4.8411                 6.5702
 Frc consts  --      5.6013                 6.6450                10.4678
 IR Inten    --    351.2018               164.0800                 4.7681

                     34                     35                     36
                      A                      A                      A
 Frequencies --   3004.6782              3046.6295              3074.4342
 Red. masses --      1.0342                 1.0987                 1.1024
 Frc consts  --      5.5009                 6.0088                 6.1392
 IR Inten    --     80.2721                35.4125                27.8966

                     37                     38                     39
                      A                      A                      A
 Frequencies --   3124.3962              3126.1614              3149.5366
 Red. masses --      1.0887                 1.0850                 1.0943
 Frc consts  --      6.2615                 6.2472                 6.3957
 IR Inten    --     51.0298                20.4482                42.5924

 - Thermochemistry -
 -------------------
 Temperature   298.150 Kelvin.  Pressure   1.00000 Atm.
 Atom     1 has atomic number  6 and mass  12.00000

 Molecular mass:   122.03678 amu.
 Principal axes and moments of inertia in atomic units:
                           1         2         3
     Eigenvalues --   590.681481297.300831876.98663
           X            0.57731   0.81652  -0.00420
           Y            0.81619  -0.57692   0.03169
           Z           -0.02345   0.02172   0.99949
 This molecule is an asymmetric top.
 Rotational symmetry number  1.
 Warning -- assumption of classical behavior for rotation
           may cause significant error
 Rotational temperatures (Kelvin)      0.14663     0.06676     0.04615
 Rotational constants (GHZ):           3.05535     1.39115     0.96151
 Zero-point vibrational energy     289273.1 (Joules/Mol)
                                   69.13792 (Kcal/Mol)
 Warning -- explicit consideration of  11 degrees of freedom as
           vibrations may cause significant error
 Vibrational temperatures:    170.94   176.09   281.93   409.91   465.01
          (Kelvin)            549.20   604.83   658.08   729.48   843.81
                              846.90  1027.61  1071.59  1143.03  1154.01
                             1256.44  1322.66  1340.70  1454.24  1509.45
                             1574.40  1655.98  1743.94  1797.45  1943.68
                             2008.97  2062.18  2106.07  2130.11  2134.67
                             2193.21  2196.05  2365.95  4323.06  4383.42
                             4423.43  4495.31  4497.85  4531.48

 Zero-point correction=                           0.110178 (Hartree/Particle)
 Thermal correction to Energy=                    0.117940
 Thermal correction to Enthalpy=                  0.118884
 Thermal correction to Gibbs Free Energy=         0.077204
 Sum of electronic and zero-point Energies=           -420.860144
 Sum of electronic and thermal Energies=              -420.852382
 Sum of electronic and thermal Enthalpies=            -420.851437
 Sum of electronic and thermal Free Energies=         -420.893118

                     E (Thermal)             CV                S
                      KCal/Mol        Cal/Mol-Kelvin    Cal/Mol-Kelvin
 Total                   74.009             29.300             87.724
 Electronic               0.000              0.000              1.377
 Translational            0.889              2.981             40.312
 Rotational               0.889              2.981             28.755
 Vibrational             72.231             23.338             17.280
 Vibration     1          0.609              1.934              3.120
 Vibration     2          0.610              1.930              3.062
 Vibration     3          0.636              1.846              2.171
 Vibration     4          0.683              1.702              1.504
 Vibration     5          0.708              1.629              1.294
 Vibration     6          0.751              1.509              1.032
 Vibration     7          0.783              1.426              0.891
 Vibration     8          0.816              1.345              0.774
 Vibration     9          0.862              1.234              0.641
 Vibration    10          0.944              1.061              0.474
 Vibration    11          0.946              1.056              0.470

 Optimization completed.
    -- Stationary point found.
 Normal termination of Gaussian 16 at Sun Dec 17 20:59:00 2023.
