 Gaussian 16, Revision A.03,
 Gaussian 16:  ES64L-G16RevA.03 25-Dec-2016

 ----------------------------------------------------------------
 #P UB3LYP/6-311++G(d,p) SCRF=(PCM,Solvent=n,n-DiMethylFormamide)
 ----------------------------------------------------------------

 ------------------
 Quinone PCM in DMF
 ------------------
 Symbolic Z-matrix:
 Charge =  0 Multiplicity = 1

                         Standard orientation:
 ---------------------------------------------------------------------
 Center     Atomic      Atomic             Coordinates (Angstroms)
 Number     Number       Type             X           Y           Z
 ---------------------------------------------------------------------
      1          6           0        6.421996    0.063164   -0.885452
      2          6           0        7.058112   -1.174755   -0.803546
      3          6           0        6.422998   -2.249678   -0.170158
      4          6           0        5.151450    0.218764   -0.332112
      5          6           0        4.505680   -0.850733    0.304545
      6          6           0        5.158943   -2.083616    0.377453
      7          6           0        4.470576    1.526225   -0.415388
      8          6           0        3.112237    1.650423    0.181115
      9          6           0        2.474892    0.632930    0.809673
     10          6           0        3.144122   -0.686527    0.899514
     11          8           0        4.958916    2.516758   -0.948425
     12          8           0        2.593484   -1.628071    1.454759
     13          8           0        2.566274    2.872429    0.049304
     14          8           0        8.297072   -1.400930   -1.320409
     15          6           0        1.098567    0.781278    1.393228
     16          6           0       -0.016391    0.375429    0.405005
     17          6           0       -1.417131    0.522494    1.007968
     18          6           0       -2.538602    0.124505    0.041794
     19          6           0       -3.942772    0.272439    0.638806
     20          6           0       -5.065072   -0.129685   -0.324750
     21          6           0       -6.469576    0.017698    0.271441
     22          6           0       -7.591906   -0.386621   -0.691246
     23          6           0       -8.996469   -0.239132   -0.095703
     24          6           0      -10.119524   -0.644099   -1.057319
     25          6           0      -11.518844   -0.492690   -0.453555
     26          1           0        6.892995    0.911704   -1.370698
     27          1           0        6.936615   -3.202023   -0.118774
     28          1           0        4.656842   -2.906930    0.870250
     29          1           0        3.226946    3.415849   -0.419361
     30          1           0        8.639213   -0.598415   -1.729507
     31          1           0        0.948991    1.819893    1.699099
     32          1           0        1.029567    0.149564    2.282234
     33          1           0        0.142708   -0.662976    0.095836
     34          1           0        0.061581    0.992267   -0.497467
     35          1           0       -1.566555    1.561629    1.328547
     36          1           0       -1.485536   -0.090783    1.915389
     37          1           0       -2.388645   -0.915035   -0.276797
     38          1           0       -2.466271    0.734793   -0.867766
     39          1           0       -4.093332    1.312667    0.955605
     40          1           0       -4.013707   -0.335386    1.550104
     41          1           0       -4.914066   -1.169971   -0.641100
     42          1           0       -4.993808    0.477604   -1.236510
     43          1           0       -6.621138    1.058270    0.586723
     44          1           0       -6.540269   -0.588535    1.183894
     45          1           0       -7.440432   -1.427354   -1.006100
     46          1           0       -7.521016    0.219258   -1.603999
     47          1           0       -9.149309    0.801695    0.218700
     48          1           0       -9.068328   -0.844597    0.817397
     49          1           0       -9.967933   -1.684286   -1.370714
     50          1           0      -10.048357   -0.039260   -1.969627
     51          1           0      -11.632843   -1.113036    0.441166
     52          1           0      -12.295701   -0.789349   -1.163882
     53          1           0      -11.713903    0.544383   -0.162357
 ---------------------------------------------------------------------

 SCF Done:  E(UB3LYP) =  -1118.35402558     A.U. after   15 cycles

 The electronic state is 1-A.
 Alpha  occ. eigenvalues --  -19.17943 -19.17707 -19.15204 -19.12831 -10.29597
 Alpha  occ. eigenvalues --  -10.28042 -10.26751 -10.26682 -10.21662 -10.20560
 Alpha  occ. eigenvalues --  -10.20524 -10.20419 -10.20263 -10.19928 -10.17766
 Alpha  occ. eigenvalues --  -10.16886 -10.16275 -10.16159 -10.16078 -10.15980
 Alpha  occ. eigenvalues --  -10.15940 -10.15928 -10.15915 -10.15901 -10.15522
 Alpha  occ. eigenvalues --   -1.10950  -1.08951  -1.06911  -1.06190  -0.89449
 Alpha  occ. eigenvalues --   -0.84512  -0.81406  -0.80408  -0.79127  -0.78264
 Alpha  occ. eigenvalues --   -0.77152  -0.74851  -0.72116  -0.69752  -0.67713
 Alpha  occ. eigenvalues --   -0.66698  -0.64299  -0.62429  -0.61357  -0.59305
 Alpha  occ. eigenvalues --   -0.58630  -0.57965  -0.57377  -0.57193  -0.55786
 Alpha  occ. eigenvalues --   -0.53139  -0.51886  -0.50818  -0.48665  -0.47615
 Alpha  occ. eigenvalues --   -0.47431  -0.47083  -0.46152  -0.45842  -0.45039
 Alpha  occ. eigenvalues --   -0.44819  -0.43864  -0.43230  -0.43106  -0.42819
 Alpha  occ. eigenvalues --   -0.42091  -0.42058  -0.41510  -0.40866  -0.40171
 Alpha  occ. eigenvalues --   -0.40019  -0.39451  -0.38266  -0.37926  -0.37762
 Alpha  occ. eigenvalues --   -0.37237  -0.35834  -0.35637  -0.35027  -0.34170
 Alpha  occ. eigenvalues --   -0.33746  -0.33416  -0.32824  -0.32486  -0.32289
 Alpha  occ. eigenvalues --   -0.32045  -0.31963  -0.30632  -0.29969  -0.28959
 Alpha  occ. eigenvalues --   -0.27924  -0.26905  -0.25006
 Alpha virt. eigenvalues --   -0.12669  -0.05554  -0.02220  -0.01069  -0.00453
 Alpha virt. eigenvalues --   -0.00115   0.00430   0.00552   0.00652   0.01161
 Alpha virt. eigenvalues --    0.01563   0.01750   0.02106   0.02219   0.02845

  Beta  occ. eigenvalues --  -19.17943 -19.17707 -19.15204 -19.12831 -10.29597
  Beta  occ. eigenvalues --  -10.28042 -10.26751 -10.26682 -10.21662 -10.20560
  Beta  occ. eigenvalues --  -10.20524 -10.20419 -10.20263 -10.19928 -10.17766
  Beta  occ. eigenvalues --  -10.16886 -10.16275 -10.16159 -10.16078 -10.15980
  Beta  occ. eigenvalues --  -10.15940 -10.15928 -10.15915 -10.15901 -10.15522
  Beta  occ. eigenvalues --   -1.10950  -1.08951  -1.06911  -1.06190  -0.89449
  Beta  occ. eigenvalues --   -0.84512  -0.81406  -0.80408  -0.79127  -0.78264
  Beta  occ. eigenvalues --   -0.77152  -0.74851  -0.72116  -0.69752  -0.67713
  Beta  occ. eigenvalues --   -0.66698  -0.64299  -0.62429  -0.61357  -0.59305
  Beta  occ. eigenvalues --   -0.58630  -0.57965  -0.57377  -0.57193  -0.55786
  Beta  occ. eigenvalues --   -0.53139  -0.51886  -0.50818  -0.48665  -0.47615
  Beta  occ. eigenvalues --   -0.47431  -0.47083  -0.46152  -0.45842  -0.45039
  Beta  occ. eigenvalues --   -0.44819  -0.43864  -0.43230  -0.43106  -0.42819
  Beta  occ. eigenvalues --   -0.42091  -0.42058  -0.41510  -0.40866  -0.40171
  Beta  occ. eigenvalues --   -0.40019  -0.39451  -0.38266  -0.37926  -0.37762
  Beta  occ. eigenvalues --   -0.37237  -0.35834  -0.35637  -0.35027  -0.34170
  Beta  occ. eigenvalues --   -0.33746  -0.33416  -0.32824  -0.32486  -0.32289
  Beta  occ. eigenvalues --   -0.32045  -0.31963  -0.30632  -0.29969  -0.28959
  Beta  occ. eigenvalues --   -0.27924  -0.26905  -0.25006
  Beta virt. eigenvalues --   -0.12669  -0.05554  -0.02220  -0.01069  -0.00453
  Beta virt. eigenvalues --   -0.00115   0.00430   0.00552   0.00652   0.01161
  Beta virt. eigenvalues --    0.01563   0.01750   0.02106   0.02219   0.02845

 Mulliken charges and spin densities:
               1          2
     1  C    0.379082   0.000000
     2  C   -0.704571  -0.000000
     3  C   -0.080031   0.000000
     4  C    0.838289   0.000000
     5  C   -0.476703  -0.000000
     6  C    0.085367   0.000000
     7  C   -0.847512  -0.000000
     8  C   -0.630324   0.000000
     9  C    1.972195  -0.000000
    10  C   -0.714615  -0.000000
    11  O   -0.308305   0.000000
    12  O   -0.282824   0.000000
    13  O   -0.225801   0.000000
    14  O   -0.248497  -0.000000
    15  C   -0.290070   0.000000
    16  C   -0.894468  -0.000000
    17  C   -0.337164   0.000000
    18  C   -0.009213  -0.000000
    19  C    0.031185   0.000000
    20  C    0.054699   0.000000
    21  C   -0.045198   0.000000
    22  C   -0.306079  -0.000000
    23  C   -0.496311  -0.000000
    24  C   -0.287348  -0.000000
    25  C   -0.690493  -0.000000
    26  H    0.180960  -0.000000
    27  H    0.231293   0.000000
    28  H    0.196696  -0.000000
    29  H    0.307188  -0.000000
    30  H    0.310471  -0.000000
    31  H    0.234901  -0.000000
    32  H    0.222036  -0.000000
    33  H    0.180059  -0.000000
    34  H    0.178297   0.000000
    35  H    0.119355  -0.000000
    36  H    0.121542  -0.000000
    37  H    0.128074  -0.000000
    38  H    0.128125  -0.000000
    39  H    0.133118  -0.000000
    40  H    0.133587  -0.000000
    41  H    0.129539   0.000000
    42  H    0.130018   0.000000
    43  H    0.128782   0.000000
    44  H    0.128831   0.000000
    45  H    0.127007   0.000000
    46  H    0.126933   0.000000
    47  H    0.123893   0.000000
    48  H    0.123919  -0.000000
    49  H    0.130995   0.000000
    50  H    0.130933   0.000000
    51  H    0.139987   0.000000
    52  H    0.148241   0.000000
    53  H    0.139935   0.000000
 Sum of Mulliken charges =  -0.00000   0.00000

 Dipole moment (field-independent basis, Debye):
    X=              2.8476    Y=              1.0554    Z=             -1.9394  Tot=              3.6033
 Quadrupole moment (field-independent basis, Debye-Ang):
   XX=           -124.6661   YY=           -157.4324   ZZ=           -156.0201
   XY=              2.4061   XZ=             -9.3407   YZ=              1.5061

 Normal termination of Gaussian 16 at Thu Jan 25 05:52:00 2024.
