 Q-Chem 5.4, Q-Chem, Inc., Pleasanton, CA (2021)
 Q-Chem 5.4.0 for Intel X86 EM64T Linux

User input:
--------------------------------------------------------------
$molecule
0 1
C                  0.8174400000      1.6355810000     -0.6761270000
C                 -0.5576680000      1.0000910000     -0.6270030000
C                 -0.6815080000     -0.2292040000     -0.0582670000
C                  0.5803750000     -0.9729120000      0.3313930000
C                  1.9326100000     -0.3522460000      0.2239470000
C                  2.0437040000      0.9090360000     -0.2360000000
C                  3.3199860000      1.6900330000     -0.3727390000
C                  3.0653570000     -1.2320520000      0.6714690000
O                  0.9459630000      2.7837040000     -1.0790330000
O                  0.5095100000     -2.1232830000      0.7420690000
H                  4.1812850000      1.1502600000      0.0137120000
H                  3.2354880000      2.6433500000      0.1544150000
H                  3.5037570000      1.9410690000     -1.4212790000
H                  3.0402020000     -2.1812090000      0.1308240000
H                  2.9570920000     -1.4855260000      1.7299030000
H                  4.0370450000     -0.7677020000      0.5207410000
C                 -1.9277550000     -1.0642220000      0.2406050000
C                 -3.1152720000     -0.3426290000      0.8962010000
C                 -2.3478730000     -1.9463340000     -0.9558600000
C                 -1.6160770000      1.9296200000     -1.2233250000
C                 -2.2553490000      2.8535660000     -0.1632570000
C                 -2.6508200000      1.2992740000     -2.1681870000
H                 -1.5780610000     -1.7747860000      0.9906410000
H                 -3.8141830000     -1.0956870000      1.2726060000
H                 -3.6725680000      0.3039650000      0.2209690000
H                 -2.7894030000      0.2570320000      1.7499490000
H                 -3.1380320000     -2.6348670000     -0.6416100000
H                 -1.5056970000     -2.5482860000     -1.3043720000
H                 -2.7232280000     -1.3638580000     -1.7969920000
H                 -1.0313720000      2.6030350000     -1.8512910000
H                 -2.8809320000      3.6008940000     -0.6605810000
H                 -1.4843720000      3.3885790000      0.3957010000
H                 -2.8786970000      2.3112160000      0.5473220000
H                 -3.1689850000      2.1022660000     -2.7010830000
H                 -3.4110760000      0.7048730000     -1.6648810000
H                 -2.1667580000      0.6682790000     -2.9180090000
$end

$rem
BASIS  =  6-311++G(d,p)
GUI  =  2
JOB_TYPE  =  SP
METHOD  =  B3LYP
SCF_CONVERGENCE  = 8
SOLVENT_METHOD = sm12
$end

$smx
solvent dimethylformamide
charges CM5
$end

--------------------------------------------------------------

             Standard Nuclear Orientation (Angstroms)
    I     Atom           X                Y                Z
 ----------------------------------------------------------------
    1      C       0.8174400000     1.6355810000    -0.6761270000
    2      C      -0.5576680000     1.0000910000    -0.6270030000
    3      C      -0.6815080000    -0.2292040000    -0.0582670000
    4      C       0.5803750000    -0.9729120000     0.3313930000
    5      C       1.9326100000    -0.3522460000     0.2239470000
    6      C       2.0437040000     0.9090360000    -0.2360000000
    7      C       3.3199860000     1.6900330000    -0.3727390000
    8      C       3.0653570000    -1.2320520000     0.6714690000
    9      O       0.9459630000     2.7837040000    -1.0790330000
   10      O       0.5095100000    -2.1232830000     0.7420690000
   11      H       4.1812850000     1.1502600000     0.0137120000
   12      H       3.2354880000     2.6433500000     0.1544150000
   13      H       3.5037570000     1.9410690000    -1.4212790000
   14      H       3.0402020000    -2.1812090000     0.1308240000
   15      H       2.9570920000    -1.4855260000     1.7299030000
   16      H       4.0370450000    -0.7677020000     0.5207410000
   17      C      -1.9277550000    -1.0642220000     0.2406050000
   18      C      -3.1152720000    -0.3426290000     0.8962010000
   19      C      -2.3478730000    -1.9463340000    -0.9558600000
   20      C      -1.6160770000     1.9296200000    -1.2233250000
   21      C      -2.2553490000     2.8535660000    -0.1632570000
   22      C      -2.6508200000     1.2992740000    -2.1681870000
   23      H      -1.5780610000    -1.7747860000     0.9906410000
   24      H      -3.8141830000    -1.0956870000     1.2726060000
   25      H      -3.6725680000     0.3039650000     0.2209690000
   26      H      -2.7894030000     0.2570320000     1.7499490000
   27      H      -3.1380320000    -2.6348670000    -0.6416100000
   28      H      -1.5056970000    -2.5482860000    -1.3043720000
   29      H      -2.7232280000    -1.3638580000    -1.7969920000
   30      H      -1.0313720000     2.6030350000    -1.8512910000
   31      H      -2.8809320000     3.6008940000    -0.6605810000
   32      H      -1.4843720000     3.3885790000     0.3957010000
   33      H      -2.8786970000     2.3112160000     0.5473220000
   34      H      -3.1689850000     2.1022660000    -2.7010830000
   35      H      -3.4110760000     0.7048730000    -1.6648810000
   36      H      -2.1667580000     0.6682790000    -2.9180090000
 ----------------------------------------------------------------

   14    -696.1560868749      3.45e-09  Convergence criterion met
 Total energy in the final basis set =     -696.1663127602

                    Orbital Energies (a.u.)
 --------------------------------------------------------------

 Alpha MOs
 -- Occupied --
-19.1290 -19.1289 -10.2744 -10.2744 -10.2101 -10.2094 -10.2066 -10.2059
-10.1844 -10.1844 -10.1692 -10.1692 -10.1616 -10.1616 -10.1612 -10.1612
 -1.0638  -1.0619  -0.8614  -0.8333  -0.7991  -0.7643  -0.7462  -0.6931
 -0.6884  -0.6869  -0.6775  -0.6181  -0.6027  -0.5729  -0.5398  -0.5317
 -0.4872  -0.4643  -0.4599  -0.4529  -0.4519  -0.4482  -0.4342  -0.4294
 -0.4238  -0.4226  -0.4062  -0.4059  -0.3956  -0.3924  -0.3916  -0.3900
 -0.3810  -0.3786  -0.3605  -0.3521  -0.3488  -0.3484  -0.3331  -0.3239
 -0.2892  -0.2848  -0.2654  -0.2598

          Ground-State Mulliken Net Atomic Charges

     Atom                 Charge (a.u.)
  ----------------------------------------
      1 C                    -1.778505
      2 C                     0.767035
      3 C                     0.765726
      4 C                    -1.771175
      5 C                     0.464840
      6 C                     0.468045
      7 C                     0.001868
      8 C                     0.003999
      9 O                    -0.222906
     10 O                    -0.222987
     11 H                     0.204333
     12 H                     0.183526
     13 H                     0.184682
     14 H                     0.183760
     15 H                     0.184857
     16 H                     0.204141
     17 C                     0.105249
     18 C                    -0.396473
     19 C                    -0.600624
     20 C                     0.102310
     21 C                    -0.599300
     22 C                    -0.395053
     23 H                     0.159006
     24 H                     0.199326
     25 H                     0.129649
     26 H                     0.136903
     27 H                     0.170461
     28 H                     0.147024
     29 H                     0.138326
     30 H                     0.159214
     31 H                     0.170234
     32 H                     0.146772
     33 H                     0.139123
     34 H                     0.199197
     35 H                     0.129872
     36 H                     0.137548
  ----------------------------------------
  Sum of atomic charges =     0.000000

                    Cartesian Multipole Moments
 -----------------------------------------------------------------
    Charge (ESU x 10^10)
                 0.0000
    Dipole Moment (Debye)
         X       0.2450      Y      -0.0122      Z       0.0353
       Tot       0.2478
    Quadrupole Moments (Debye-Ang)
        XX     -87.3801     XY      -1.4190     YY    -111.3605
        XZ       1.6868     YZ       3.9898     ZZ     -99.4242

 Total job time:  1150.48s(wall), 8788.36s(cpu)
        *  Thank you very much for using Q-Chem.  Have a nice day.  *
