 Gaussian 16, Revision A.03,
 Gaussian 16:  ES64L-G16RevA.03 25-Dec-2016

 --------------------------------------
 #P UB3LYP/6-311++G(d,p) nosym opt freq
 --------------------------------------

 --------
 Oxidized
 --------
 Symbolic Z-matrix:
 Charge =  0 Multiplicity = 1

 SCF Done:  E(UB3LYP) =  -566.054749351     A.U. after   16 cycles
 SCF Done:  E(UB3LYP) =  -566.069600001     A.U. after   15 cycles
 SCF Done:  E(UB3LYP) =  -566.071206169     A.U. after   14 cycles
 SCF Done:  E(UB3LYP) =  -566.071400898     A.U. after   13 cycles
 SCF Done:  E(UB3LYP) =  -566.071406277     A.U. after   12 cycles
 SCF Done:  E(UB3LYP) =  -566.071409219     A.U. after   12 cycles
 SCF Done:  E(UB3LYP) =  -566.071410143     A.U. after   12 cycles
 Optimization completed.
    -- Stationary point found.
 Normal termination of Gaussian 16 at Sun Dec 17 20:58:42 2023.

 ----------------------------------------------------------------------
 #P Geom=AllCheck Guess=TCheck SCRF=Check GenChk UB3LYP/6-311++G(d,p) F
 req
 ----------------------------------------------------------------------

 Structure from the checkpoint file:  "001.chk"
 --------
 Oxidized
 --------
 Charge =  0 Multiplicity = 1

                          Input orientation:
 ---------------------------------------------------------------------
 Center     Atomic      Atomic             Coordinates (Angstroms)
 Number     Number       Type             X           Y           Z
 ---------------------------------------------------------------------
      1          8           0       -1.064704    1.711234   -1.826468
      2          6           0       -0.821777    0.862780   -0.995622
      3          6           0       -1.867011   -0.036507   -0.461397
      4          6           0       -1.595635   -0.972931    0.455480
      5          6           0       -0.232688   -1.169398    0.994466
      6          8           0        0.016264   -2.016921    1.824476
      7          6           0        0.854714   -0.266171    0.466768
      8          6           0        0.579161    0.684471   -0.464105
      9          6           0        1.577337    1.555981   -0.986616
     10          7           0        2.383578    2.264176   -1.412525
     11          6           0        2.163349   -0.465473    0.992892
     12          7           0        3.222384   -0.630575    1.421998
     13          1           0       -2.861820    0.117164   -0.863876
     14          1           0       -2.353152   -1.637830    0.854528
 ---------------------------------------------------------------------

 SCF Done:  E(UB3LYP) =  -566.071410143     A.U. after    1 cycles

 Alpha  occ. eigenvalues --  -19.18650 -19.18649 -14.36479 -14.36478 -10.33697
 Alpha  occ. eigenvalues --  -10.33696 -10.30366 -10.30296 -10.26069 -10.25987
 Alpha  occ. eigenvalues --  -10.25637 -10.25635  -1.12102  -1.11894  -0.96747
 Alpha  occ. eigenvalues --   -0.95549  -0.92303  -0.86538  -0.78562  -0.72553
 Alpha  occ. eigenvalues --   -0.69268  -0.61055  -0.58955  -0.57897  -0.53630
 Alpha  occ. eigenvalues --   -0.50869  -0.50227  -0.48445  -0.46978  -0.46861
 Alpha  occ. eigenvalues --   -0.43204  -0.41045  -0.40967  -0.39992  -0.38935
 Alpha  occ. eigenvalues --   -0.38092  -0.35609  -0.33534  -0.33531  -0.32711
 Alpha virt. eigenvalues --   -0.18955  -0.11701  -0.05991  -0.03592  -0.02164
 Alpha virt. eigenvalues --   -0.00553  -0.00499   0.00706   0.01273   0.02307
 Alpha virt. eigenvalues --    0.02773   0.03122   0.03845   0.04847   0.06123

  Beta  occ. eigenvalues --  -19.18650 -19.18649 -14.36479 -14.36478 -10.33697
  Beta  occ. eigenvalues --  -10.33696 -10.30366 -10.30296 -10.26069 -10.25987
  Beta  occ. eigenvalues --  -10.25637 -10.25635  -1.12102  -1.11894  -0.96747
  Beta  occ. eigenvalues --   -0.95549  -0.92303  -0.86538  -0.78562  -0.72553
  Beta  occ. eigenvalues --   -0.69268  -0.61055  -0.58955  -0.57897  -0.53630
  Beta  occ. eigenvalues --   -0.50869  -0.50227  -0.48445  -0.46978  -0.46861
  Beta  occ. eigenvalues --   -0.43204  -0.41045  -0.40967  -0.39992  -0.38935
  Beta  occ. eigenvalues --   -0.38092  -0.35609  -0.33534  -0.33531  -0.32711
  Beta virt. eigenvalues --   -0.18955  -0.11701  -0.05991  -0.03592  -0.02164
  Beta virt. eigenvalues --   -0.00553  -0.00499   0.00706   0.01273   0.02307
  Beta virt. eigenvalues --    0.02773   0.03122   0.03845   0.04847   0.06123

 Mulliken charges and spin densities:
               1          2
     1  O   -0.160954   0.000000
     2  C   -0.864281  -0.000000
     3  C    0.215953   0.000000
     4  C    0.215416  -0.000000
     5  C   -0.862987  -0.000000
     6  O   -0.160944  -0.000000
     7  C    1.601505   0.000000
     8  C    1.599686   0.000000
     9  C   -0.914556   0.000000
    10  N   -0.119319  -0.000000
    11  C   -0.915116  -0.000000
    12  N   -0.119295   0.000000
    13  H    0.242451   0.000000
    14  H    0.242443   0.000000
 Sum of Mulliken charges =   0.00000   0.00000

 Dipole moment (field-independent basis, Debye):
    X=             -5.6525    Y=             -1.6462    Z=             -0.0086  Tot=              5.8873
 Quadrupole moment (field-independent basis, Debye-Ang):
   XX=            -76.1250   YY=            -77.2735   ZZ=            -75.9013
   XY=              0.3464   XZ=             -3.3502   YZ=             11.4925

  Exact polarizability: 116.249   3.201 106.496  14.333 -49.066  99.267
 Approx polarizability: 175.890  -9.585 206.681  34.575-118.732 194.240

                      1                      2                      3
                      A                      A                      A
 Frequencies --     66.0055                74.8587               120.8370
 Red. masses --     13.8500                 7.7021                13.6601
 Frc consts  --      0.0356                 0.0254                 0.1175
 IR Inten    --      0.0000                 7.9890                 1.5654

                      4                      5                      6
                      A                      A                      A
 Frequencies --    163.9426               165.9180               242.8776
 Red. masses --     12.9317                 9.8519                 5.6930
 Frc consts  --      0.2048                 0.1598                 0.1979
 IR Inten    --      1.8119                13.9167                 0.0000

                      7                      8                      9
                      A                      A                      A
 Frequencies --    322.9078               355.6885               366.4095
 Red. masses --      7.2737                11.0240                14.5349
 Frc consts  --      0.4469                 0.8217                 1.1497
 IR Inten    --      0.0000                 0.4467                10.0416

                     10                     11                     12
                      A                      A                      A
 Frequencies --    433.7431               447.8043               455.2393
 Red. masses --     12.0361                12.5352                 6.4712
 Frc consts  --      1.3341                 1.4810                 0.7902
 IR Inten    --      3.4733                 0.0032                 1.8846

                     13                     14                     15
                      A                      A                      A
 Frequencies --    521.0259               587.6138               623.8096
 Red. masses --     12.0861                 8.9096                 4.4572
 Frc consts  --      1.9331                 1.8126                 1.0219
 IR Inten    --      0.4645                24.5296                 0.9049

                     16                     17                     18
                      A                      A                      A
 Frequencies --    632.9879               634.1356               737.8073
 Red. masses --      2.6534                 9.9384                 8.6743
 Frc consts  --      0.6264                 2.3547                 2.7821
 IR Inten    --      1.6775                 0.0001                 2.1302

                     19                     20                     21
                      A                      A                      A
 Frequencies --    778.0610               867.8597               935.4462
 Red. masses --     10.8059                 2.0465                 8.9257
 Frc consts  --      3.8542                 0.9082                 4.6018
 IR Inten    --      0.0000                43.4743                 0.0820

                     22                     23                     24
                      A                      A                      A
 Frequencies --   1004.2404              1012.9204              1134.0610
 Red. masses --      6.8664                 1.2429                 1.5690
 Frc consts  --      4.0800                 0.7513                 1.1889
 IR Inten    --     43.5579                 0.0001                29.9751

                     25                     26                     27
                      A                      A                      A
 Frequencies --   1138.5117              1291.1627              1312.9648
 Red. masses --      4.4992                 2.9497                 4.6741
 Frc consts  --      3.4361                 2.8973                 4.7474
 IR Inten    --     16.6938               126.5270                54.3310

                     28                     29                     30
                      A                      A                      A
 Frequencies --   1392.5342              1617.0078              1675.9552
 Red. masses --      1.9320                11.4259                 7.9563
 Frc consts  --      2.2074                17.6021                13.1669
 IR Inten    --      0.0072                25.3275                 5.2522

                     31                     32                     33
                      A                      A                      A
 Frequencies --   1740.3076              1745.7960              2335.0199
 Red. masses --     11.5423                12.1504                12.6807
 Frc consts  --     20.5965                21.8186                40.7356
 IR Inten    --      1.2291               368.3208                 5.4691

                     34                     35                     36
                      A                      A                      A
 Frequencies --   2345.2257              3184.9822              3200.6442
 Red. masses --     12.6749                 1.0880                 1.0994
 Frc consts  --     41.0737                 6.5024                 6.6355
 IR Inten    --      4.6452                 0.0185                 0.0147

 - Thermochemistry -
 -------------------
 Temperature   298.150 Kelvin.  Pressure   1.00000 Atm.
 Atom     1 has atomic number  8 and mass  15.99491

 Molecular mass:   158.01163 amu.
 Principal axes and moments of inertia in atomic units:
                           1         2         3
     Eigenvalues --  1515.733861687.903523203.63732
           X           -0.20330   0.95994  -0.19284
           Y            0.69949   0.28020   0.65742
           Z           -0.68512   0.00123   0.72843
 This molecule is an asymmetric top.
 Rotational symmetry number  1.
 Warning -- assumption of classical behavior for rotation
           may cause significant error
 Rotational temperatures (Kelvin)      0.05714     0.05131     0.02704
 Rotational constants (GHZ):           1.19067     1.06922     0.56334
 Zero-point vibrational energy     213331.9 (Joules/Mol)
                                   50.98755 (Kcal/Mol)
 Warning -- explicit consideration of  14 degrees of freedom as
           vibrations may cause significant error
 Vibrational temperatures:     94.97   107.70   173.86   235.88   238.72
          (Kelvin)            349.45   464.59   511.76   527.18   624.06
                              644.29   654.99   749.64   845.45   897.52
                              910.73   912.38  1061.54  1119.46  1248.66
                             1345.90  1444.88  1457.37  1631.66  1638.06
                             1857.70  1889.06  2003.55  2326.51  2411.33
                             2503.91  2511.81  3359.57  3374.26  4582.48
                             4605.01

 Zero-point correction=                           0.081254 (Hartree/Particle)
 Thermal correction to Energy=                    0.091247
 Thermal correction to Enthalpy=                  0.092191
 Thermal correction to Gibbs Free Energy=         0.045104
 Sum of electronic and zero-point Energies=           -565.990156
 Sum of electronic and thermal Energies=              -565.980164
 Sum of electronic and thermal Enthalpies=            -565.979219
 Sum of electronic and thermal Free Energies=         -566.026306

                     E (Thermal)             CV                S
                      KCal/Mol        Cal/Mol-Kelvin    Cal/Mol-Kelvin
 Total                   57.258             35.631             99.103
 Electronic               0.000              0.000              0.000
 Translational            0.889              2.981             41.082
 Rotational               0.889              2.981             30.484
 Vibrational             55.481             29.669             27.537
 Vibration     1          0.597              1.970              4.269
 Vibration     2          0.599              1.966              4.021
 Vibration     3          0.609              1.932              3.087
 Vibration     4          0.623              1.887              2.504
 Vibration     5          0.624              1.884              2.481
 Vibration     6          0.659              1.775              1.782
 Vibration     7          0.708              1.630              1.295
 Vibration     8          0.731              1.564              1.141
 Vibration     9          0.739              1.541              1.095
 Vibration    10          0.794              1.397              0.847
 Vibration    11          0.807              1.366              0.802
 Vibration    12          0.814              1.349              0.780
 Vibration    13          0.876              1.203              0.608
 Vibration    14          0.945              1.058              0.471

 Optimization completed.
    -- Stationary point found.
 Normal termination of Gaussian 16 at Sun Dec 17 21:06:56 2023.
