 Gaussian 16, Revision A.03,
 Gaussian 16:  ES64L-G16RevA.03 25-Dec-2016

 ----------------------------------------------------------------------
 #P UB3LYP/6-311++G(d,p) nosym opt freq SCRF=(PCM,Solvent=n,n-DiMethylF
 ormamide)
 ----------------------------------------------------------------------

 -------
 Radical
 -------
 Symbolic Z-matrix:
 Charge = -1 Multiplicity = 2

 SCF Done:  E(UB3LYP) =  -1090.14188524     A.U. after   20 cycles
 SCF Done:  E(UB3LYP) =  -1090.14227185     A.U. after   16 cycles
 SCF Done:  E(UB3LYP) =  -1090.14237306     A.U. after   16 cycles
 SCF Done:  E(UB3LYP) =  -1090.14253363     A.U. after   15 cycles
 SCF Done:  E(UB3LYP) =  -1090.14256405     A.U. after   15 cycles
 SCF Done:  E(UB3LYP) =  -1090.14258974     A.U. after   15 cycles
 SCF Done:  E(UB3LYP) =  -1090.14260772     A.U. after   15 cycles
 SCF Done:  E(UB3LYP) =  -1090.14261765     A.U. after   13 cycles
 SCF Done:  E(UB3LYP) =  -1090.14262182     A.U. after   13 cycles
 SCF Done:  E(UB3LYP) =  -1090.14262322     A.U. after   12 cycles
 SCF Done:  E(UB3LYP) =  -1090.14262650     A.U. after   11 cycles
 SCF Done:  E(UB3LYP) =  -1090.14262661     A.U. after   10 cycles
 SCF Done:  E(UB3LYP) =  -1090.14262665     A.U. after    9 cycles
 SCF Done:  E(UB3LYP) =  -1090.14262672     A.U. after   10 cycles
 SCF Done:  E(UB3LYP) =  -1090.14262681     A.U. after    9 cycles
 SCF Done:  E(UB3LYP) =  -1090.14262695     A.U. after    9 cycles
 SCF Done:  E(UB3LYP) =  -1090.14262710     A.U. after   10 cycles
 SCF Done:  E(UB3LYP) =  -1090.14262721     A.U. after   11 cycles
 SCF Done:  E(UB3LYP) =  -1090.14262726     A.U. after    9 cycles
 Optimization completed.
    -- Stationary point found.
 Normal termination of Gaussian 16 at Sat Feb 10 20:26:48 2024.

 ----------------------------------------------------------------------
 #P Geom=AllCheck Guess=TCheck SCRF=Check GenChk UB3LYP/6-311++G(d,p) F
 req
 ----------------------------------------------------------------------

 Structure from the checkpoint file:  "182-rad.chk"
 -------
 Radical
 -------
 Charge = -1 Multiplicity = 2

                          Input orientation:
 ---------------------------------------------------------------------
 Center     Atomic      Atomic             Coordinates (Angstroms)
 Number     Number       Type             X           Y           Z
 ---------------------------------------------------------------------
      1          6           0        6.697455    0.413403    0.740479
      2          6           0        5.212708    0.372964    0.467848
      3          6           0        4.587691    1.353159   -0.314989
      4          6           0        3.229841    1.296214   -0.605293
      5          6           0        2.421280    0.254929   -0.109027
      6          7           0        1.053554    0.304015   -0.392120
      7          6           0        0.107524   -0.712829   -0.361773
      8          6           0        0.475193   -2.047701   -0.517030
      9          6           0       -0.478324   -3.063331   -0.492929
     10          6           0       -1.824443   -2.787312   -0.311037
     11          8           0       -2.715608   -3.833386   -0.279190
     12          6           0       -2.276768   -1.444850   -0.176250
     13          6           0       -3.698876   -1.147305    0.018890
     14          8           0       -4.585734   -2.035941    0.116562
     15          6           0       -4.081848    0.264731    0.106884
     16          6           0       -5.441760    0.603437    0.287174
     17          6           0       -5.846680    1.921164    0.367831
     18          6           0       -4.891888    2.955445    0.269391
     19          6           0       -3.558335    2.646749    0.091959
     20          6           0       -3.123516    1.302404    0.009233
     21          6           0       -1.709256    1.012693   -0.176761
     22          8           0       -0.890885    1.991218   -0.297117
     23          6           0       -1.291618   -0.379342   -0.230926
     24          6           0        3.038416   -0.719019    0.694185
     25          6           0        4.404479   -0.653580    0.965858
     26          1           0        6.950980   -0.151937    1.640368
     27          1           0        7.267833   -0.020200   -0.088964
     28          1           0        7.051195    1.439189    0.873372
     29          1           0        5.175235    2.174887   -0.713441
     30          1           0        2.776589    2.065110   -1.222420
     31          1           0        0.609115    1.228400   -0.443505
     32          1           0        1.511236   -2.306501   -0.683408
     33          1           0       -0.159973   -4.093853   -0.622170
     34          1           0       -2.215135   -4.649403   -0.403261
     35          1           0       -6.160733   -0.203115    0.358717
     36          1           0       -6.895181    2.162319    0.505775
     37          1           0       -5.206848    3.991525    0.333031
     38          1           0       -2.814398    3.429408    0.014125
     39          1           0        2.451794   -1.513678    1.135086
     40          1           0        4.845693   -1.420081    1.596116
 ---------------------------------------------------------------------

 SCF Done:  E(UB3LYP) =  -1090.14262726     A.U. after    2 cycles

 Alpha  occ. eigenvalues --  -19.14751 -19.07707 -19.06955 -14.31911 -10.23198
 Alpha  occ. eigenvalues --  -10.22600 -10.22597 -10.21625 -10.21552 -10.18023
 Alpha  occ. eigenvalues --  -10.17900 -10.17639 -10.17240 -10.17224 -10.17183
 Alpha  occ. eigenvalues --  -10.17178 -10.17178 -10.17094 -10.17070 -10.17020
 Alpha  occ. eigenvalues --  -10.16967 -10.16930 -10.16908 -10.16774 -10.16338
 Alpha  occ. eigenvalues --   -1.05905  -1.00213  -0.99596  -0.94118  -0.86066
 Alpha  occ. eigenvalues --   -0.85521  -0.83810  -0.78573  -0.77147  -0.74981
 Alpha  occ. eigenvalues --   -0.74801  -0.74187  -0.73007  -0.68093  -0.66792
 Alpha  occ. eigenvalues --   -0.64139  -0.62904  -0.61293  -0.59804  -0.58118
 Alpha  occ. eigenvalues --   -0.56643  -0.55354  -0.54285  -0.51600  -0.50912
 Alpha  occ. eigenvalues --   -0.47934  -0.47424  -0.46819  -0.46204  -0.45805
 Alpha  occ. eigenvalues --   -0.44638  -0.43558  -0.43170  -0.42737  -0.42215
 Alpha  occ. eigenvalues --   -0.41975  -0.41827  -0.40932  -0.40704  -0.39944
 Alpha  occ. eigenvalues --   -0.39391  -0.38700  -0.38158  -0.37965  -0.37075
 Alpha  occ. eigenvalues --   -0.36487  -0.35521  -0.35253  -0.34839  -0.34124
 Alpha  occ. eigenvalues --   -0.33907  -0.33622  -0.30012  -0.26741  -0.25729
 Alpha  occ. eigenvalues --   -0.25535  -0.25114  -0.24905  -0.23847  -0.23117
 Alpha  occ. eigenvalues --   -0.19064  -0.13732
 Alpha virt. eigenvalues --   -0.04944  -0.02405  -0.01666  -0.01070  -0.00533
 Alpha virt. eigenvalues --    0.00043   0.00273   0.01148   0.01326   0.01627
 Alpha virt. eigenvalues --    0.02153   0.02414   0.03200   0.03705   0.03954

  Beta  occ. eigenvalues --  -19.14723 -19.07205 -19.06435 -14.31868 -10.23179
  Beta  occ. eigenvalues --  -10.22468 -10.22382 -10.21588 -10.21557 -10.18016
  Beta  occ. eigenvalues --  -10.17835 -10.17630 -10.17211 -10.17187 -10.17182
  Beta  occ. eigenvalues --  -10.17172 -10.17127 -10.17014 -10.17012 -10.16965
  Beta  occ. eigenvalues --  -10.16958 -10.16916 -10.16915 -10.16673 -10.16339
  Beta  occ. eigenvalues --   -1.05840  -0.99360  -0.98693  -0.93979  -0.85891
  Beta  occ. eigenvalues --   -0.85418  -0.83684  -0.78186  -0.77085  -0.74838
  Beta  occ. eigenvalues --   -0.74716  -0.74023  -0.72845  -0.67999  -0.66172
  Beta  occ. eigenvalues --   -0.63974  -0.62690  -0.61227  -0.59766  -0.58035
  Beta  occ. eigenvalues --   -0.56459  -0.55190  -0.54207  -0.51510  -0.50797
  Beta  occ. eigenvalues --   -0.47651  -0.47299  -0.46797  -0.46102  -0.45711
  Beta  occ. eigenvalues --   -0.44535  -0.43483  -0.42858  -0.42290  -0.42156
  Beta  occ. eigenvalues --   -0.41903  -0.41802  -0.40804  -0.40211  -0.39345
  Beta  occ. eigenvalues --   -0.38973  -0.38558  -0.37989  -0.37693  -0.36471
  Beta  occ. eigenvalues --   -0.35838  -0.35485  -0.34733  -0.34411  -0.33903
  Beta  occ. eigenvalues --   -0.33502  -0.33123  -0.29572  -0.25713  -0.25011
  Beta  occ. eigenvalues --   -0.24763  -0.24659  -0.24442  -0.23383  -0.22637
  Beta  occ. eigenvalues --   -0.18283
  Beta virt. eigenvalues --   -0.08331  -0.03991  -0.01689  -0.01329  -0.00945
  Beta virt. eigenvalues --   -0.00522   0.00050   0.00281   0.01173   0.01549
  Beta virt. eigenvalues --    0.01669   0.02161   0.02460   0.03346   0.03741

 Mulliken charges and spin densities:
               1          2
     1  C   -0.578772  -0.000527
     2  C    0.416317   0.007160
     3  C   -0.248773  -0.003607
     4  C   -0.437103   0.007864
     5  C   -0.311771  -0.011906
     6  N    0.007387   0.021901
     7  C    0.014172   0.034783
     8  C   -0.138231   0.071573
     9  C   -0.422849   0.073507
    10  C   -0.419380   0.026712
    11  O   -0.241965   0.006250
    12  C    0.541808   0.044172
    13  C   -0.247861   0.062696
    14  O   -0.456679   0.195155
    15  C    0.122828   0.038819
    16  C    0.057001   0.013960
    17  C   -0.540485   0.042797
    18  C   -0.520305   0.021249
    19  C   -0.034570   0.036493
    20  C    0.081450  -0.004534
    21  C   -0.142041   0.119605
    22  O   -0.439684   0.187312
    23  C    0.285979   0.016866
    24  C    0.204900   0.009568
    25  C   -0.511317   0.001337
    26  H    0.151586   0.000086
    27  H    0.169741   0.000490
    28  H    0.147298   0.000095
    29  H    0.185040   0.000161
    30  H    0.165222  -0.000806
    31  H    0.429895  -0.000012
    32  H    0.199395  -0.006103
    33  H    0.171958  -0.006628
    34  H    0.290888  -0.000787
    35  H    0.163057  -0.000606
    36  H    0.179688  -0.003376
    37  H    0.182501  -0.001908
    38  H    0.154408  -0.002048
    39  H    0.188106   0.002064
    40  H    0.181159   0.000170
 Sum of Mulliken charges =  -1.00000   1.00000

 Dipole moment (field-independent basis, Debye):
    X=             13.9102    Y=             -0.0527    Z=              0.2412  Tot=             13.9124
 Quadrupole moment (field-independent basis, Debye-Ang):
   XX=           -200.4928   YY=           -151.9162   ZZ=           -154.0726
   XY=            -22.9455   XZ=              1.1776   YZ=              0.4469

  Exact polarizability: 724.142 -26.398 521.637 -14.947  -3.239 221.218
 Approx polarizability: 711.975  -4.022 598.670 -18.414 -13.553 257.601

                      1                      2                      3
                      A                      A                      A
 Frequencies --     18.9934                30.3515                42.0749
 Red. masses --      5.5194                 1.9128                 1.8683
 Frc consts  --      0.0012                 0.0010                 0.0019
 IR Inten    --      2.4482                 3.5401                 6.2100

                      4                      5                      6
                      A                      A                      A
 Frequencies --     44.5111                58.6206                72.3531
 Red. masses --      3.0179                 5.8058                 6.0382
 Frc consts  --      0.0035                 0.0118                 0.0186
 IR Inten    --      4.0620                 2.7943                 4.8693

                      7                      8                      9
                      A                      A                      A
 Frequencies --    119.7480               130.8574               140.3794
 Red. masses --      4.6644                 4.7659                 5.5017
 Frc consts  --      0.0394                 0.0481                 0.0639
 IR Inten    --      1.6761                 4.5730                 2.9379

                     10                     11                     12
                      A                      A                      A
 Frequencies --    171.2931               192.3913               230.0761
 Red. masses --      7.3546                 5.5707                 5.6815
 Frc consts  --      0.1271                 0.1215                 0.1772
 IR Inten    --      1.1701                 4.6014                 9.4905

                     13                     14                     15
                      A                      A                      A
 Frequencies --    252.7277               268.8787               318.8163
 Red. masses --      5.1925                 4.6263                 4.5370
 Frc consts  --      0.1954                 0.1971                 0.2717
 IR Inten    --     17.0347                 9.6804                 0.8732

                     16                     17                     18
                      A                      A                      A
 Frequencies --    328.2243               357.9173               362.4300
 Red. masses --      5.3512                 3.0777                 6.4201
 Frc consts  --      0.3397                 0.2323                 0.4969
 IR Inten    --      5.2420                17.3296                11.3662

                     19                     20                     21
                      A                      A                      A
 Frequencies --    381.7517               393.1993               402.2239
 Red. masses --      3.8271                 1.6722                 4.9085
 Frc consts  --      0.3286                 0.1523                 0.4679
 IR Inten    --     22.0210                94.1422                11.5484

                     22                     23                     24
                      A                      A                      A
 Frequencies --    419.1629               424.4519               430.4156
 Red. masses --      5.1199                 3.4617                11.1164
 Frc consts  --      0.5300                 0.3674                 1.2134
 IR Inten    --      4.4192                 2.6336                24.2251

                     25                     26                     27
                      A                      A                      A
 Frequencies --    436.0675               471.6378               490.1919
 Red. masses --      3.2460                 6.1595                 9.1297
 Frc consts  --      0.3637                 0.8073                 1.2925
 IR Inten    --      9.4355                25.4558                 5.2732

                     28                     29                     30
                      A                      A                      A
 Frequencies --    503.5476               513.1122               516.1860
 Red. masses --      4.5037                 2.6301                 5.7882
 Frc consts  --      0.6728                 0.4080                 0.9087
 IR Inten    --      2.5407                48.8161                11.6613

                     31                     32                     33
                      A                      A                      A
 Frequencies --    572.3841               592.5062               629.9606
 Red. masses --      5.7920                 3.5314                 5.3174
 Frc consts  --      1.1180                 0.7304                 1.2433
 IR Inten    --     20.5137                72.7420                50.6573

                     34                     35                     36
                      A                      A                      A
 Frequencies --    646.2405               652.7156               666.8202
 Red. masses --      5.1224                 6.8390                 5.9719
 Frc consts  --      1.2604                 1.7167                 1.5645
 IR Inten    --      0.2712                 9.7868                15.7749

                     37                     38                     39
                      A                      A                      A
 Frequencies --    707.8057               718.3556               720.6516
 Red. masses --      1.9218                 4.6181                 3.1180
 Frc consts  --      0.5673                 1.4041                 0.9541
 IR Inten    --     33.8289                 5.0181                20.5053

                     40                     41                     42
                      A                      A                      A
 Frequencies --    730.7838               743.8478               779.2049
 Red. masses --      2.4046                 3.2876                 4.9063
 Frc consts  --      0.7566                 1.0718                 1.7551
 IR Inten    --    111.1078                70.9562                33.8269

                     43                     44                     45
                      A                      A                      A
 Frequencies --    791.8033               792.8285               806.2721
 Red. masses --      1.9894                 2.5563                 3.1503
 Frc consts  --      0.7349                 0.9467                 1.2066
 IR Inten    --     39.4460                50.4959                40.2136

                     46                     47                     48
                      A                      A                      A
 Frequencies --    814.3715               830.2766               838.5412
 Red. masses --      2.1881                 1.9435                 1.2976
 Frc consts  --      0.8550                 0.7894                 0.5376
 IR Inten    --     44.9570                63.3744                 5.4038

                     49                     50                     51
                      A                      A                      A
 Frequencies --    861.1962               872.3464               884.1003
 Red. masses --      3.4434                 7.4983                 1.5028
 Frc consts  --      1.5047                 3.3620                 0.6921
 IR Inten    --     52.2490               103.1003                 0.0481

                     52                     53                     54
                      A                      A                      A
 Frequencies --    914.5820               917.8526               956.0298
 Red. masses --      3.9825                 1.5293                 1.2889
 Frc consts  --      1.9627                 0.7591                 0.6941
 IR Inten    --     63.4068                 2.1924                 1.3206

                     55                     56                     57
                      A                      A                      A
 Frequencies --    961.2692               979.1246               987.7448
 Red. masses --      5.6826                 1.3355                 1.3674
 Frc consts  --      3.0938                 0.7543                 0.7860
 IR Inten    --    116.9873                 1.9795                 2.3737

                     58                     59                     60
                      A                      A                      A
 Frequencies --    999.9362              1004.5353              1026.4718
 Red. masses --      1.2887                 1.4177                 2.7795
 Frc consts  --      0.7592                 0.8429                 1.7255
 IR Inten    --      0.0041                 1.1000                 0.4339

                     61                     62                     63
                      A                      A                      A
 Frequencies --   1034.1865              1058.0673              1071.0858
 Red. masses --      2.4569                 1.5072                 2.7318
 Frc consts  --      1.5482                 0.9941                 1.8465
 IR Inten    --     66.4881                33.5827               138.0570

                     64                     65                     66
                      A                      A                      A
 Frequencies --   1112.3895              1139.4999              1148.1186
 Red. masses --      2.1831                 1.3011                 1.3800
 Frc consts  --      1.5916                 0.9954                 1.0718
 IR Inten    --     44.1076                22.0068                39.0172

                     67                     68                     69
                      A                      A                      A
 Frequencies --   1186.3456              1188.9234              1201.9215
 Red. masses --      1.8009                 1.5462                 1.1890
 Frc consts  --      1.4934                 1.2878                 1.0120
 IR Inten    --     53.2081                59.0033                14.9463

                     70                     71                     72
                      A                      A                      A
 Frequencies --   1212.9489              1224.5386              1230.2094
 Red. masses --      2.0654                 2.5789                 3.3114
 Frc consts  --      1.7903                 2.2784                 2.9527
 IR Inten    --    130.5928                54.9363                 0.8909

                     73                     74                     75
                      A                      A                      A
 Frequencies --   1239.0987              1251.3804              1269.9148
 Red. masses --      2.8414                 2.4559                 2.7149
 Frc consts  --      2.5704                 2.2659                 2.5796
 IR Inten    --      3.3583                87.4061                82.3907

                     76                     77                     78
                      A                      A                      A
 Frequencies --   1282.5310              1316.9247              1332.7077
 Red. masses --      3.3194                 4.0448                 3.1026
 Frc consts  --      3.2170                 4.1330                 3.2467
 IR Inten    --     14.0839               522.0661                46.9876

                     79                     80                     81
                      A                      A                      A
 Frequencies --   1337.0370              1357.6102              1367.6980
 Red. masses --      2.1336                 2.6175                 9.7024
 Frc consts  --      2.2472                 2.8425                10.6932
 IR Inten    --     75.5109                45.2319                14.3362

                     82                     83                     84
                      A                      A                      A
 Frequencies --   1387.2158              1409.0466              1411.5480
 Red. masses --      3.1898                 1.2594                 3.7911
 Frc consts  --      3.6166                 1.4733                 4.4505
 IR Inten    --   1187.0015                 8.8535               925.4020

                     85                     86                     87
                      A                      A                      A
 Frequencies --   1439.3070              1472.7363              1477.1770
 Red. masses --      2.5449                 3.0628                 1.5932
 Frc consts  --      3.1062                 3.9139                 2.0482
 IR Inten    --     40.8513                31.2263               153.0786

                     88                     89                     90
                      A                      A                      A
 Frequencies --   1477.6546              1484.7940              1504.3373
 Red. masses --      1.4827                 1.1728                 2.9557
 Frc consts  --      1.9075                 1.5233                 3.9409
 IR Inten    --    123.9782                40.5854               491.0852

                     91                     92                     93
                      A                      A                      A
 Frequencies --   1511.8046              1538.2293              1554.7252
 Red. masses --      4.9608                 2.6263                 3.0194
 Frc consts  --      6.6802                 3.6613                 4.3001
 IR Inten    --   1880.2232               174.1407               180.6507

                     94                     95                     96
                      A                      A                      A
 Frequencies --   1579.6966              1599.7078              1614.8713
 Red. masses --      4.5167                 5.8908                 3.8920
 Frc consts  --      6.6407                 8.8819                 5.9799
 IR Inten    --    579.4228                68.1085               241.2574

                     97                     98                     99
                      A                      A                      A
 Frequencies --   1623.7869              1630.2926              1646.6494
 Red. masses --      3.4747                 4.9901                 5.6837
 Frc consts  --      5.3980                 7.8143                 9.0800
 IR Inten    --     23.5196                 8.5587                65.3689

                    100                    101                    102
                      A                      A                      A
 Frequencies --   3013.1397              3065.2188              3094.9993
 Red. masses --      1.0422                 1.0932                 1.1021
 Frc consts  --      5.5748                 6.0517                 6.2202
 IR Inten    --     96.0465                36.4281                32.6259

                    103                    104                    105
                      A                      A                      A
 Frequencies --   3146.9636              3150.5635              3152.1052
 Red. masses --      1.0898                 1.0874                 1.0893
 Frc consts  --      6.3590                 6.3595                 6.3765
 IR Inten    --     51.3280                29.5542                57.5400

                    106                    107                    108
                      A                      A                      A
 Frequencies --   3158.8830              3169.6662              3173.4506
 Red. masses --      1.0862                 1.0940                 1.0911
 Frc consts  --      6.3860                 6.4759                 6.4740
 IR Inten    --     14.9773                24.0418                30.3012

                    109                    110                    111
                      A                      A                      A
 Frequencies --   3192.5951              3196.7221              3197.3380
 Red. masses --      1.0921                 1.0933                 1.0919
 Frc consts  --      6.5585                 6.5828                 6.5768
 IR Inten    --     22.1647                38.4652                14.5700

                    112                    113                    114
                      A                      A                      A
 Frequencies --   3210.7177              3248.7330              3791.2859
 Red. masses --      1.0907                 1.0813                 1.0659
 Frc consts  --      6.6244                 6.7241                 9.0270
 IR Inten    --      6.0245               709.8392               106.4385

 - Thermochemistry -
 -------------------
 Temperature   298.150 Kelvin.  Pressure   1.00000 Atm.
 Atom     1 has atomic number  6 and mass  12.00000

 Molecular mass:   329.10519 amu.
 Principal axes and moments of inertia in atomic units:
                           1         2         3
     Eigenvalues --  4105.05123********************
           X            0.99980   0.00026  -0.01982
           Y           -0.00121   0.99884  -0.04818
           Z            0.01978   0.04820   0.99864
 This molecule is an asymmetric top.
 Rotational symmetry number  1.
 Warning -- assumption of classical behavior for rotation
           may cause significant error
 Rotational temperatures (Kelvin)      0.02110     0.00568     0.00457
 Rotational constants (GHZ):           0.43964     0.11825     0.09522
 Zero-point vibrational energy     800375.0 (Joules/Mol)
                                  191.29422 (Kcal/Mol)
 Warning -- explicit consideration of  32 degrees of freedom as
           vibrations may cause significant error
 Vibrational temperatures:     27.33    43.67    60.54    64.04    84.34
          (Kelvin)            104.10   172.29   188.27   201.97   246.45
                              276.81   331.03   363.62   386.86   458.71
                              472.24   514.96   521.46   549.26   565.73
                              578.71   603.08   610.69   619.27   627.40
                              678.58   705.28   724.49   738.25   742.68
                              823.53   852.48   906.37   929.80   939.11
                              959.41  1018.37  1033.55  1036.86  1051.43
                             1070.23  1121.10  1139.23  1140.70  1160.05
                             1171.70  1194.58  1206.47  1239.07  1255.11
                             1272.02  1315.88  1320.59  1375.51  1383.05
                             1408.74  1421.14  1438.69  1445.30  1476.86
                             1487.96  1522.32  1541.05  1600.48  1639.49
                             1651.89  1706.89  1710.60  1729.30  1745.16
                             1761.84  1770.00  1782.79  1800.46  1827.12
                             1845.28  1894.76  1917.47  1923.70  1953.30
                             1967.81  1995.89  2027.30  2030.90  2070.84
                             2118.94  2125.33  2126.02  2136.29  2164.41
                             2175.15  2213.17  2236.90  2272.83  2301.62
                             2323.44  2336.27  2345.63  2369.16  4335.24
                             4410.17  4453.01  4527.78  4532.96  4535.18
                             4544.93  4560.44  4565.89  4593.43  4599.37
                             4600.26  4619.51  4674.20  5454.81

 Zero-point correction=                           0.304847 (Hartree/Particle)
 Thermal correction to Energy=                    0.325052
 Thermal correction to Enthalpy=                  0.325997
 Thermal correction to Gibbs Free Energy=         0.253580
 Sum of electronic and zero-point Energies=          -1089.837781
 Sum of electronic and thermal Energies=             -1089.817575
 Sum of electronic and thermal Enthalpies=           -1089.816631
 Sum of electronic and thermal Free Energies=        -1089.889047

                     E (Thermal)             CV                S
                      KCal/Mol        Cal/Mol-Kelvin    Cal/Mol-Kelvin
 Total                  203.973             80.450            152.413
 Electronic               0.000              0.000              1.377
 Translational            0.889              2.981             43.269
 Rotational               0.889              2.981             35.428
 Vibrational            202.196             74.488             72.339
 Vibration     1          0.593              1.986              6.737
 Vibration     2          0.594              1.984              5.806
 Vibration     3          0.595              1.980              5.159
 Vibration     4          0.595              1.980              5.047
 Vibration     5          0.596              1.974              4.503
 Vibration     6          0.598              1.967              4.088
 Vibration     7          0.609              1.933              3.104
 Vibration     8          0.612              1.922              2.933
 Vibration     9          0.615              1.913              2.799
 Vibration    10          0.626              1.878              2.421
 Vibration    11          0.634              1.850              2.205
 Vibration    12          0.652              1.795              1.878
 Vibration    13          0.664              1.758              1.711
 Vibration    14          0.673              1.730              1.603
 Vibration    15          0.705              1.638              1.316
 Vibration    16          0.711              1.619              1.269
 Vibration    17          0.733              1.559              1.131
 Vibration    18          0.736              1.550              1.112
 Vibration    19          0.751              1.509              1.032
 Vibration    20          0.760              1.485              0.988
 Vibration    21          0.768              1.465              0.955
 Vibration    22          0.782              1.429              0.895
 Vibration    23          0.786              1.417              0.877
 Vibration    24          0.792              1.404              0.857
 Vibration    25          0.797              1.392              0.839
 Vibration    26          0.829              1.313              0.733
 Vibration    27          0.846              1.272              0.683
 Vibration    28          0.859              1.242              0.649
 Vibration    29          0.868              1.221              0.626
 Vibration    30          0.871              1.214              0.619
 Vibration    31          0.929              1.091              0.500
 Vibration    32          0.950              1.048              0.463

                           ! Non-Optimized Parameters !
 Normal termination of Gaussian 16 at Sat Feb 10 22:14:49 2024.
