 Gaussian 16, Revision A.03,
 Gaussian 16:  ES64L-G16RevA.03 25-Dec-2016

 --------------------------------------
 #P UB3LYP/6-311++G(d,p) nosym opt freq
 --------------------------------------

 --------
 Oxidized
 --------
 Symbolic Z-matrix:
 Charge =  0 Multiplicity = 1

 SCF Done:  E(UB3LYP) =  -1239.95301262     A.U. after   18 cycles
 SCF Done:  E(UB3LYP) =  -1239.95967857     A.U. after   15 cycles
 SCF Done:  E(UB3LYP) =  -1239.96061441     A.U. after   18 cycles
 SCF Done:  E(UB3LYP) =  -1239.96062292     A.U. after   17 cycles
 SCF Done:  E(UB3LYP) =  -1239.96078756     A.U. after   15 cycles
 SCF Done:  E(UB3LYP) =  -1239.96084210     A.U. after   14 cycles
 SCF Done:  E(UB3LYP) =  -1239.96084129     A.U. after   14 cycles
 SCF Done:  E(UB3LYP) =  -1239.96084750     A.U. after   15 cycles
 SCF Done:  E(UB3LYP) =  -1239.96085315     A.U. after   13 cycles
 SCF Done:  E(UB3LYP) =  -1239.96085378     A.U. after   13 cycles
 SCF Done:  E(UB3LYP) =  -1239.95912372     A.U. after   15 cycles
 SCF Done:  E(UB3LYP) =  -1239.96085494     A.U. after    4 cycles
 SCF Done:  E(UB3LYP) =  -1239.96085494     A.U. after    7 cycles
 SCF Done:  E(UB3LYP) =  -1239.96085473     A.U. after   13 cycles
 SCF Done:  E(UB3LYP) =  -1239.96085462     A.U. after   13 cycles
 SCF Done:  E(UB3LYP) =  -1239.96075816     A.U. after   16 cycles
 SCF Done:  E(UB3LYP) =  -1239.96085366     A.U. after   12 cycles
 SCF Done:  E(UB3LYP) =  -1239.95855717     A.U. after   16 cycles
 SCF Done:  E(UB3LYP) =  -1239.96085494     A.U. after    4 cycles
 Optimization completed.
    -- Stationary point found.
 Normal termination of Gaussian 16 at Wed Dec 20 03:56:59 2023.

 ----------------------------------------------------------------------
 #P Geom=AllCheck Guess=TCheck SCRF=Check GenChk UB3LYP/6-311++G(d,p) F
 req
 ----------------------------------------------------------------------

 Structure from the checkpoint file:  "070.chk"
 --------
 Oxidized
 --------
 Charge =  0 Multiplicity = 1

                          Input orientation:
 ---------------------------------------------------------------------
 Center     Atomic      Atomic             Coordinates (Angstroms)
 Number     Number       Type             X           Y           Z
 ---------------------------------------------------------------------
      1          6           0        1.052749    1.708176   -0.487705
      2          6           0       -0.241534    1.225983    0.097578
      3          6           0       -0.534665   -0.096593    0.136774
      4          6           0        0.422371   -1.087937   -0.441283
      5          6           0        1.676083   -0.600234   -1.075042
      6          6           0        1.964113    0.702289   -1.102799
      7          8           0        1.351862    2.887357   -0.443143
      8          8           0        0.195164   -2.285476   -0.406475
      9         16           0        3.461631    1.237920   -2.008065
     10          6           0        4.508320    2.042762   -0.785698
     11          6           0        4.415723    3.421593   -0.609975
     12          6           0        5.420418    1.266076   -0.072159
     13          6           0        6.250800    1.891416    0.854497
     14          6           0        5.257618    4.033022    0.315356
     15          6           0        6.168535    3.270545    1.046703
     16          8           0        3.040204    2.221346   -3.004764
     17          8           0        4.127454   -0.006422   -2.410153
     18          1           0        3.699691    3.991321   -1.186139
     19          1           0        5.488282    0.201582   -0.257879
     20          1           0        5.203392    5.105329    0.462143
     21          1           0        2.331056   -1.345109   -1.513185
     22          1           0        6.968651    1.304169    1.415037
     23          6           0       -1.777803   -0.703135    0.722002
     24          6           0       -1.112601    2.329582    0.627066
     25          1           0        6.820485    3.753618    1.765756
     26          1           0       -2.372699    0.015536    1.280104
     27          1           0       -1.514296   -1.533301    1.380825
     28          1           0       -2.399873   -1.130874   -0.070690
     29          1           0       -1.259404    3.092347   -0.141382
     30          1           0       -0.621834    2.833683    1.464785
     31          1           0       -2.085146    1.971120    0.954670
 ---------------------------------------------------------------------

 SCF Done:  E(UB3LYP) =  -1239.96085494     A.U. after    2 cycles

 Alpha  occ. eigenvalues --  -89.06503 -19.15292 -19.15247 -19.12696 -19.12668
 Alpha  occ. eigenvalues --  -10.30346 -10.29764 -10.24842 -10.23470 -10.23206
 Alpha  occ. eigenvalues --  -10.23045 -10.22652 -10.20913 -10.20590 -10.20476
 Alpha  occ. eigenvalues --  -10.20230 -10.20100 -10.19222 -10.19185  -8.12861
 Alpha  occ. eigenvalues --   -6.09102  -6.09062  -6.08984  -1.12325  -1.08703
 Alpha  occ. eigenvalues --   -1.08309  -1.01881  -0.89157  -0.88751  -0.84091
 Alpha  occ. eigenvalues --   -0.79480  -0.77850  -0.77080  -0.72982  -0.71290
 Alpha  occ. eigenvalues --   -0.68120  -0.63765  -0.63133  -0.61585  -0.59255
 Alpha  occ. eigenvalues --   -0.56070  -0.55147  -0.52555  -0.50213  -0.49142
 Alpha  occ. eigenvalues --   -0.49013  -0.48067  -0.47531  -0.46979  -0.46161
 Alpha  occ. eigenvalues --   -0.45508  -0.45185  -0.44744  -0.44469  -0.42974
 Alpha  occ. eigenvalues --   -0.42645  -0.41646  -0.41175  -0.39978  -0.39670
 Alpha  occ. eigenvalues --   -0.39498  -0.37649  -0.35069  -0.34193  -0.33168
 Alpha  occ. eigenvalues --   -0.31982  -0.31773  -0.30417  -0.29836  -0.28777
 Alpha  occ. eigenvalues --   -0.28472  -0.28042
 Alpha virt. eigenvalues --   -0.14841  -0.06554  -0.04135  -0.03797  -0.02040
 Alpha virt. eigenvalues --   -0.01887  -0.01200   0.00335   0.00911   0.01125
 Alpha virt. eigenvalues --    0.01647   0.01996   0.02833   0.03407   0.03826

  Beta  occ. eigenvalues --  -89.06503 -19.15292 -19.15247 -19.12696 -19.12668
  Beta  occ. eigenvalues --  -10.30346 -10.29764 -10.24842 -10.23470 -10.23206
  Beta  occ. eigenvalues --  -10.23045 -10.22652 -10.20913 -10.20590 -10.20476
  Beta  occ. eigenvalues --  -10.20230 -10.20100 -10.19222 -10.19185  -8.12861
  Beta  occ. eigenvalues --   -6.09102  -6.09062  -6.08984  -1.12325  -1.08703
  Beta  occ. eigenvalues --   -1.08309  -1.01881  -0.89157  -0.88751  -0.84091
  Beta  occ. eigenvalues --   -0.79480  -0.77850  -0.77080  -0.72982  -0.71290
  Beta  occ. eigenvalues --   -0.68120  -0.63765  -0.63133  -0.61585  -0.59255
  Beta  occ. eigenvalues --   -0.56070  -0.55147  -0.52555  -0.50213  -0.49142
  Beta  occ. eigenvalues --   -0.49013  -0.48067  -0.47531  -0.46979  -0.46161
  Beta  occ. eigenvalues --   -0.45508  -0.45185  -0.44744  -0.44469  -0.42974
  Beta  occ. eigenvalues --   -0.42645  -0.41646  -0.41175  -0.39978  -0.39670
  Beta  occ. eigenvalues --   -0.39498  -0.37649  -0.35069  -0.34193  -0.33168
  Beta  occ. eigenvalues --   -0.31982  -0.31773  -0.30417  -0.29836  -0.28777
  Beta  occ. eigenvalues --   -0.28472  -0.28042
  Beta virt. eigenvalues --   -0.14841  -0.06554  -0.04135  -0.03797  -0.02040
  Beta virt. eigenvalues --   -0.01887  -0.01200   0.00335   0.00911   0.01125
  Beta virt. eigenvalues --    0.01647   0.01996   0.02833   0.03407   0.03826

 Mulliken charges and spin densities:
               1          2
     1  C   -0.495616  -0.000000
     2  C   -0.146637  -0.000000
     3  C    0.645473   0.000000
     4  C   -0.779894   0.000000
     5  C    0.099421   0.000000
     6  C    0.109862  -0.000000
     7  O   -0.149691  -0.000000
     8  O   -0.188782  -0.000000
     9  S    0.423301   0.000000
    10  C    0.545438  -0.000000
    11  C   -0.285394   0.000000
    12  C    0.022123  -0.000000
    13  C   -0.510969  -0.000000
    14  C   -0.385725   0.000000
    15  C   -0.270509   0.000000
    16  O   -0.064666  -0.000000
    17  O   -0.108643  -0.000000
    18  H    0.279584   0.000000
    19  H    0.245680  -0.000000
    20  H    0.192009  -0.000000
    21  H    0.286497  -0.000000
    22  H    0.184215   0.000000
    23  C   -0.337734   0.000000
    24  C   -0.490829  -0.000000
    25  H    0.169153   0.000000
    26  H    0.123516   0.000000
    27  H    0.185417   0.000000
    28  H    0.194735   0.000000
    29  H    0.187954   0.000000
    30  H    0.198010   0.000000
    31  H    0.122700  -0.000000
 Sum of Mulliken charges =  -0.00000   0.00000

 Dipole moment (field-independent basis, Debye):
    X=             -1.3153    Y=              1.5956    Z=              5.3969  Tot=              5.7795
 Quadrupole moment (field-independent basis, Debye-Ang):
   XX=           -105.1963   YY=           -121.1916   ZZ=           -131.3555
   XY=              4.7461   XZ=             20.6063   YZ=              8.1687

  Exact polarizability: 209.374  33.903 230.838   6.376  10.441 146.803
 Approx polarizability: 270.937  36.512 456.146  23.232   7.192 233.074

 ******    1 imaginary frequencies (negative Signs) ******

                      1                      2                      3
                      A                      A                      A
 Frequencies --    -14.7558                26.1387                32.6305
 Red. masses --      1.0860                 4.7730                 5.6359
 Frc consts  --      0.0001                 0.0019                 0.0035
 IR Inten    --      0.1158                 0.7646                 0.9205

                      4                      5                      6
                      A                      A                      A
 Frequencies --     48.5925                52.0810                74.1794
 Red. masses --      4.7024                 1.0599                 5.3040
 Frc consts  --      0.0065                 0.0017                 0.0172
 IR Inten    --      1.1094                 0.5071                 1.5934

                      7                      8                      9
                      A                      A                      A
 Frequencies --    103.8861               132.0039               141.1997
 Red. masses --      3.4310                 7.4758                 7.3116
 Frc consts  --      0.0218                 0.0768                 0.0859
 IR Inten    --      0.0356                 8.3810                 1.3383

                     10                     11                     12
                      A                      A                      A
 Frequencies --    179.8711               204.3092               230.3287
 Red. masses --      6.6142                 5.4618                 8.9835
 Frc consts  --      0.1261                 0.1343                 0.2808
 IR Inten    --      0.7306                 0.6801                 1.2025

                     13                     14                     15
                      A                      A                      A
 Frequencies --    259.8749               274.0958               301.8784
 Red. masses --      3.5510                10.5110                 8.3894
 Frc consts  --      0.1413                 0.4653                 0.4504
 IR Inten    --      0.4890                 0.2430                 1.9948

                     16                     17                     18
                      A                      A                      A
 Frequencies --    322.4440               358.4565               363.5569
 Red. masses --      3.8886                 2.8965                 5.5995
 Frc consts  --      0.2382                 0.2193                 0.4361
 IR Inten    --      1.4937                 0.5199                 3.5987

                     19                     20                     21
                      A                      A                      A
 Frequencies --    408.7688               411.8278               422.8437
 Red. masses --      7.7332                 2.9882                 8.3012
 Frc consts  --      0.7613                 0.2986                 0.8745
 IR Inten    --     21.6129                 1.4727                 1.2676

                     22                     23                     24
                      A                      A                      A
 Frequencies --    448.9405               461.7484               486.4230
 Red. masses --      5.4839                 6.0549                 4.0101
 Frc consts  --      0.6512                 0.7606                 0.5590
 IR Inten    --      8.6862                 2.9711                 3.7851

                     25                     26                     27
                      A                      A                      A
 Frequencies --    493.3005               541.4631               591.4286
 Red. masses --      6.9489                 8.1893                 7.9116
 Frc consts  --      0.9963                 1.4146                 1.6305
 IR Inten    --      8.9463                46.6824               181.3347

                     28                     29                     30
                      A                      A                      A
 Frequencies --    626.7043               650.4028               686.7094
 Red. masses --      6.4421                 4.3671                 5.4112
 Frc consts  --      1.4908                 1.0885                 1.5035
 IR Inten    --      0.1153                 5.7193                 9.5206

                     31                     32                     33
                      A                      A                      A
 Frequencies --    698.3445               702.3905               725.6842
 Red. masses --      4.9093                 2.0566                 6.8279
 Frc consts  --      1.4106                 0.5978                 2.1185
 IR Inten    --      3.7365                53.0397                68.6346

                     34                     35                     36
                      A                      A                      A
 Frequencies --    766.8088               791.9091               807.1393
 Red. masses --      1.6522                 6.4926                 5.0063
 Frc consts  --      0.5724                 2.3989                 1.9216
 IR Inten    --     19.5374                12.3028                 7.4313

                     37                     38                     39
                      A                      A                      A
 Frequencies --    853.2728               856.0384               947.2737
 Red. masses --      3.0318                 1.2500                 1.3539
 Frc consts  --      1.3005                 0.5397                 0.7158
 IR Inten    --      7.6380                 0.1519                 1.0765

                     40                     41                     42
                      A                      A                      A
 Frequencies --    952.2159               954.3613               994.1644
 Red. masses --      1.3836                 2.0988                 1.3811
 Frc consts  --      0.7392                 1.1263                 0.8042
 IR Inten    --      9.1935                 7.2283                 0.2448

                     43                     44                     45
                      A                      A                      A
 Frequencies --   1012.1180              1014.5074              1031.2745
 Red. masses --      1.3129                 6.1000                 1.4901
 Frc consts  --      0.7924                 3.6990                 0.9337
 IR Inten    --      0.0371                 4.3946                 1.4370

                     46                     47                     48
                      A                      A                      A
 Frequencies --   1040.1609              1060.3136              1066.5533
 Red. masses --      3.6413                 1.5795                 3.2994
 Frc consts  --      2.3212                 1.0463                 2.2113
 IR Inten    --     11.6955                 0.8977                59.3239

                     49                     50                     51
                      A                      A                      A
 Frequencies --   1095.0402              1101.1649              1114.3358
 Red. masses --      2.3009                 1.5676                 4.5679
 Frc consts  --      1.6256                 1.1199                 3.3419
 IR Inten    --     77.3013                 7.6224               119.2873

                     52                     53                     54
                      A                      A                      A
 Frequencies --   1117.1798              1142.8698              1185.4781
 Red. masses --      2.2565                 3.0580                 1.1213
 Frc consts  --      1.6593                 2.3533                 0.9284
 IR Inten    --     14.9466                48.7041                 0.2322

                     55                     56                     57
                      A                      A                      A
 Frequencies --   1200.7309              1240.7720              1281.8580
 Red. masses --      1.1561                 4.9169                17.7387
 Frc consts  --      0.9821                 4.4599                17.1732
 IR Inten    --      5.7300               146.5400               156.6148

                     58                     59                     60
                      A                      A                      A
 Frequencies --   1312.1158              1332.7081              1345.5659
 Red. masses --      2.5721                 2.5989                 3.6365
 Frc consts  --      2.6091                 2.7197                 3.8793
 IR Inten    --     58.9591                 0.1881                 3.9348

                     61                     62                     63
                      A                      A                      A
 Frequencies --   1347.2876              1413.7855              1420.8761
 Red. masses --      1.9429                 1.3718                 1.1985
 Frc consts  --      2.0779                 1.6155                 1.4256
 IR Inten    --      2.3709                25.6866                 6.2485

                     64                     65                     66
                      A                      A                      A
 Frequencies --   1469.3441              1471.5257              1476.7789
 Red. masses --      1.0553                 1.0518                 2.1467
 Frc consts  --      1.3424                 1.3419                 2.7584
 IR Inten    --      0.5541                12.3615                15.7280

                     67                     68                     69
                      A                      A                      A
 Frequencies --   1478.9944              1489.6205              1506.3450
 Red. masses --      1.0440                 1.0954                 2.0153
 Frc consts  --      1.3456                 1.4321                 2.6943
 IR Inten    --     13.4166                 3.8365                 3.2914

                     70                     71                     72
                      A                      A                      A
 Frequencies --   1621.7519              1624.3944              1650.6774
 Red. masses --      5.3098                 5.7634                 7.5684
 Frc consts  --      8.2281                 8.9600                12.1501
 IR Inten    --      3.1061                 0.2542                47.3746

                     73                     74                     75
                      A                      A                      A
 Frequencies --   1687.4765              1714.7347              1719.2749
 Red. masses --      8.3826                11.2745                12.8273
 Frc consts  --     14.0638                19.5318                22.3396
 IR Inten    --      2.4778               101.6528               332.5352

                     76                     77                     78
                      A                      A                      A
 Frequencies --   3040.1365              3043.7260              3089.5886
 Red. masses --      1.0435                 1.0420                 1.0969
 Frc consts  --      5.6825                 5.6877                 6.1692
 IR Inten    --      4.7699                 5.9502                 5.6397

                     79                     80                     81
                      A                      A                      A
 Frequencies --   3091.2670              3143.7001              3159.2014
 Red. masses --      1.0933                 1.1010                 1.0960
 Frc consts  --      6.1553                 6.4110                 6.4447
 IR Inten    --      4.9661                 1.7110                22.4439

                     82                     83                     84
                      A                      A                      A
 Frequencies --   3169.6682              3182.1567              3191.0568
 Red. masses --      1.0865                 1.0900                 1.0948
 Frc consts  --      6.4313                 6.5034                 6.5684
 IR Inten    --      0.6822                 9.5816                10.4055

                     85                     86                     87
                      A                      A                      A
 Frequencies --   3193.4924              3203.4539              3220.8873
 Red. masses --      1.0925                 1.0944                 1.0934
 Frc consts  --      6.5644                 6.6173                 6.6830
 IR Inten    --      6.8871                 4.7118                 3.9113

 - Thermochemistry -
 -------------------
 Temperature   298.150 Kelvin.  Pressure   1.00000 Atm.
 Atom     1 has atomic number  6 and mass  12.00000

 Molecular mass:   276.04563 amu.
 Principal axes and moments of inertia in atomic units:
                           1         2         3
     Eigenvalues --  2969.099547872.676658739.52994
           X            0.89914  -0.34539   0.26879
           Y            0.43446   0.77852  -0.45294
           Z           -0.05281   0.52404   0.85006
 This molecule is an asymmetric top.
 Rotational symmetry number  1.
 Warning -- assumption of classical behavior for rotation
           may cause significant error
 Rotational temperatures (Kelvin)      0.02917     0.01100     0.00991
 Rotational constants (GHZ):           0.60784     0.22924     0.20650
    1 imaginary frequencies ignored.
 Zero-point vibrational energy     603525.8 (Joules/Mol)
                                  144.24614 (Kcal/Mol)
 Warning -- explicit consideration of  26 degrees of freedom as
           vibrations may cause significant error
 Vibrational temperatures:     37.61    46.95    69.91    74.93   106.73
          (Kelvin)            149.47   189.92   203.15   258.79   293.96
                              331.39   373.90   394.36   434.34   463.93
                              515.74   523.08   588.13   592.53   608.38
                              645.93   664.35   699.85   709.75   779.04
                              850.93   901.69   935.78   988.02  1004.76
                             1010.58  1044.10  1103.27  1139.38  1161.29
                             1227.67  1231.65  1362.92  1370.03  1373.11
                             1430.38  1456.21  1459.65  1483.77  1496.56
                             1525.55  1534.53  1575.52  1584.33  1603.28
                             1607.37  1644.33  1705.64  1727.58  1785.19
                             1844.31  1887.84  1917.47  1935.97  1938.45
                             2034.12  2044.32  2114.06  2117.20  2124.76
                             2127.94  2143.23  2167.29  2333.34  2337.14
                             2374.96  2427.90  2467.12  2473.65  4374.08
                             4379.24  4445.23  4447.64  4523.08  4545.39
                             4560.45  4578.41  4591.22  4594.72  4609.06
                             4634.14

 Zero-point correction=                           0.229871 (Hartree/Particle)
 Thermal correction to Energy=                    0.247042
 Thermal correction to Enthalpy=                  0.247987
 Thermal correction to Gibbs Free Energy=         0.183054
 Sum of electronic and zero-point Energies=          -1239.730984
 Sum of electronic and thermal Energies=             -1239.713812
 Sum of electronic and thermal Enthalpies=           -1239.712868
 Sum of electronic and thermal Free Energies=        -1239.777801

                     E (Thermal)             CV                S
                      KCal/Mol        Cal/Mol-Kelvin    Cal/Mol-Kelvin
 Total                  155.021             64.371            136.662
 Electronic               0.000              0.000              0.000
 Translational            0.889              2.981             42.745
 Rotational               0.889              2.981             33.679
 Vibrational            153.244             58.410             60.239
 Vibration     1          0.593              1.985              6.103
 Vibration     2          0.594              1.983              5.663
 Vibration     3          0.595              1.978              4.874
 Vibration     4          0.596              1.977              4.737
 Vibration     5          0.599              1.966              4.039
 Vibration     6          0.605              1.946              3.380
 Vibration     7          0.612              1.921              2.917
 Vibration     8          0.615              1.912              2.788
 Vibration     9          0.629              1.867              2.330
 Vibration    10          0.640              1.834              2.094
 Vibration    11          0.652              1.795              1.876
 Vibration    12          0.668              1.746              1.663
 Vibration    13          0.676              1.721              1.570
 Vibration    14          0.694              1.670              1.406
 Vibration    15          0.707              1.630              1.298
 Vibration    16          0.733              1.558              1.129
 Vibration    17          0.737              1.547              1.107
 Vibration    18          0.773              1.451              0.931
 Vibration    19          0.776              1.445              0.920
 Vibration    20          0.785              1.421              0.882
 Vibration    21          0.808              1.363              0.799
 Vibration    22          0.819              1.335              0.761
 Vibration    23          0.842              1.280              0.693
 Vibration    24          0.849              1.265              0.675
 Vibration    25          0.897              1.158              0.562
 Vibration    26          0.949              1.050              0.465

                           ! Non-Optimized Parameters !
 Normal termination of Gaussian 16 at Wed Dec 20 04:59:44 2023.
