 Q-Chem 5.4, Q-Chem, Inc., Pleasanton, CA (2021)
 Q-Chem 5.4.0 for Intel X86 EM64T Linux

User input:
--------------------------------------------------------------
$molecule
-1 2
C                  0.6491370000     -1.7247800000     -0.9505770000
C                 -0.5061100000     -1.1456530000     -0.2785310000
C                 -0.4308930000      0.0189200000      0.4421270000
C                  0.8104070000      0.7778350000      0.5976250000
C                  1.9453880000      0.1712390000     -0.0897820000
C                  1.9086610000     -0.9809320000     -0.8254490000
O                  0.5918470000     -2.7927120000     -1.6016910000
O                  0.8828380000      1.8336760000      1.2518320000
Br                -2.1376060000     -2.1336320000     -0.4725070000
Br                -1.9479130000      0.7807350000      1.3295960000
Br                 3.6017470000      1.1565940000      0.1181950000
C                  3.0976260000     -1.5904910000     -1.5236230000
C                  3.8331440000     -2.6303350000     -0.6569840000
C                  5.0157870000     -3.2777240000     -1.3852820000
C                  5.7596460000     -4.3190710000     -0.5415970000
C                  6.9426980000     -4.9719900000     -1.2656960000
C                  7.6791430000     -6.0116510000     -0.4147080000
H                  3.7970470000     -0.8048380000     -1.8186490000
H                  2.7331610000     -2.0888240000     -2.4255970000
H                  3.1178290000     -3.4036870000     -0.3586740000
H                  4.1874970000     -2.1478850000      0.2612520000
H                  5.7215720000     -2.4964120000     -1.6984870000
H                  4.6543760000     -3.7515480000     -2.3074510000
H                  5.0540270000     -5.0994470000     -0.2278330000
H                  6.1192200000     -3.8465530000      0.3821300000
H                  7.6480830000     -4.1923150000     -1.5795230000
H                  6.5835260000     -5.4447510000     -2.1882880000
H                  8.0794340000     -5.5610760000      0.4995360000
H                  8.5167490000     -6.4591070000     -0.9591600000
H                  7.0071640000     -6.8220850000     -0.1137330000
$end
$rem
MAX_SCF_CYCLES=200
BASIS  =  6-311++G(d,p)
GUI  =  2
JOB_TYPE  =  SP
METHOD  =  B3LYP
SOLVENT_METHOD = PCM
$end
$pcm
theory = CPCM
$end
$solvent
dielectric 37.219
opticaldielectric 1.43
$end

--------------------------------------------------------------

             Standard Nuclear Orientation (Angstroms)
    I     Atom           X                Y                Z
 ----------------------------------------------------------------
    1      C       0.6491370000    -1.7247800000    -0.9505770000
    2      C      -0.5061100000    -1.1456530000    -0.2785310000
    3      C      -0.4308930000     0.0189200000     0.4421270000
    4      C       0.8104070000     0.7778350000     0.5976250000
    5      C       1.9453880000     0.1712390000    -0.0897820000
    6      C       1.9086610000    -0.9809320000    -0.8254490000
    7      O       0.5918470000    -2.7927120000    -1.6016910000
    8      O       0.8828380000     1.8336760000     1.2518320000
    9      Br     -2.1376060000    -2.1336320000    -0.4725070000
   10      Br     -1.9479130000     0.7807350000     1.3295960000
   11      Br      3.6017470000     1.1565940000     0.1181950000
   12      C       3.0976260000    -1.5904910000    -1.5236230000
   13      C       3.8331440000    -2.6303350000    -0.6569840000
   14      C       5.0157870000    -3.2777240000    -1.3852820000
   15      C       5.7596460000    -4.3190710000    -0.5415970000
   16      C       6.9426980000    -4.9719900000    -1.2656960000
   17      C       7.6791430000    -6.0116510000    -0.4147080000
   18      H       3.7970470000    -0.8048380000    -1.8186490000
   19      H       2.7331610000    -2.0888240000    -2.4255970000
   20      H       3.1178290000    -3.4036870000    -0.3586740000
   21      H       4.1874970000    -2.1478850000     0.2612520000
   22      H       5.7215720000    -2.4964120000    -1.6984870000
   23      H       4.6543760000    -3.7515480000    -2.3074510000
   24      H       5.0540270000    -5.0994470000    -0.2278330000
   25      H       6.1192200000    -3.8465530000     0.3821300000
   26      H       7.6480830000    -4.1923150000    -1.5795230000
   27      H       6.5835260000    -5.4447510000    -2.1882880000
   28      H       8.0794340000    -5.5610760000     0.4995360000
   29      H       8.5167490000    -6.4591070000    -0.9591600000
   30      H       7.0071640000    -6.8220850000    -0.1137330000
 ----------------------------------------------------------------

    8   -8338.2989182233      8.18e-06  Convergence criterion met
 Total energy in the final basis set =    -8338.2989182233

                    Orbital Energies (a.u.)
 --------------------------------------------------------------

 Alpha MOs
 -- Occupied --
********-482.8336-482.8280 -62.4868 -62.4863 -62.4808 -56.3073 -56.3068
-56.3036 -56.3032 -56.3031 -56.3027 -56.3012 -56.2976 -56.2972 -19.0981
-19.0951 -10.2537 -10.2473 -10.2383 -10.2366 -10.2287 -10.1948 -10.1656
-10.1598 -10.1575 -10.1564 -10.1552 -10.1513  -8.6955  -8.6950  -8.6894
 -6.5271  -6.5265  -6.5205  -6.5144  -6.5139  -6.5133  -6.5128  -6.5084
 -6.5075  -2.6381  -2.6375  -2.6344  -2.6339  -2.6336  -2.6331  -2.6316
 -2.6280  -2.6274  -2.6236  -2.6236  -2.6232  -2.6231  -2.6179  -2.6178
 -1.0308  -1.0243  -0.8725  -0.8392  -0.8020  -0.7982  -0.7794  -0.7670
 -0.7323  -0.6964  -0.6851  -0.6402  -0.5906  -0.5800  -0.5711  -0.5657
 -0.5225  -0.4735  -0.4694  -0.4458  -0.4439  -0.4405  -0.4286  -0.4202
 -0.4143  -0.4078  -0.4027  -0.3952  -0.3864  -0.3816  -0.3730  -0.3506
 -0.3493  -0.3420  -0.3302  -0.3229  -0.3214  -0.3162  -0.3122  -0.3090
 -0.3078  -0.2899  -0.2835  -0.2767  -0.2675  -0.2542  -0.2458  -0.1784

 Beta MOs
 -- Occupied --
********-482.8335-482.8280 -62.4868 -62.4863 -62.4808 -56.3073 -56.3068
-56.3035 -56.3032 -56.3030 -56.3027 -56.3012 -56.2975 -56.2972 -19.0920
-19.0886 -10.2523 -10.2458 -10.2369 -10.2352 -10.2279 -10.1938 -10.1656
-10.1597 -10.1575 -10.1564 -10.1552 -10.1513  -8.6955  -8.6950  -8.6894
 -6.5271  -6.5265  -6.5206  -6.5143  -6.5138  -6.5133  -6.5128  -6.5083
 -6.5075  -2.6381  -2.6375  -2.6343  -2.6338  -2.6336  -2.6331  -2.6316
 -2.6280  -2.6274  -2.6236  -2.6236  -2.6231  -2.6231  -2.6178  -2.6178
 -1.0201  -1.0128  -0.8676  -0.8376  -0.8017  -0.7967  -0.7781  -0.7657
 -0.7308  -0.6945  -0.6775  -0.6387  -0.5892  -0.5756  -0.5710  -0.5632
 -0.5204  -0.4734  -0.4654  -0.4423  -0.4376  -0.4321  -0.4263  -0.4154
 -0.4125  -0.4053  -0.3952  -0.3865  -0.3823  -0.3741  -0.3712  -0.3496
 -0.3453  -0.3388  -0.3267  -0.3222  -0.3170  -0.3148  -0.3088  -0.3084
 -0.3032  -0.2896  -0.2825  -0.2620  -0.2579  -0.2493  -0.2401

          Ground-State Mulliken Net Atomic Charges

     Atom                 Charge (a.u.)    Spin (a.u.)
  --------------------------------------------------------
      1 C                    -1.042771       0.098650
      2 C                    -0.235155       0.077830
      3 C                     0.698065       0.091770
      4 C                    -0.903220       0.091058
      5 C                     0.447940       0.043905
      6 C                     1.954572       0.085667
      7 O                    -0.384169       0.247635
      8 O                    -0.356851       0.230408
      9 Br                   -0.169614       0.008002
     10 Br                   -0.159676       0.008315
     11 Br                   -0.123391       0.004021
     12 C                    -0.833787       0.012666
     13 C                    -0.496181      -0.002870
     14 C                    -0.165253       0.005077
     15 C                    -0.254562      -0.002538
     16 C                    -0.205902       0.000083
     17 C                    -0.697329       0.000020
     18 H                     0.174752       0.000656
     19 H                     0.212486       0.001759
     20 H                     0.192899      -0.001288
     21 H                     0.127189      -0.000821
     22 H                     0.126344      -0.000218
     23 H                     0.124842       0.000159
     24 H                     0.125691      -0.000064
     25 H                     0.130701       0.000138
     26 H                     0.137282      -0.000008
     27 H                     0.136422      -0.000008
     28 H                     0.145472      -0.000003
     29 H                     0.147463      -0.000007
     30 H                     0.145739       0.000005
  --------------------------------------------------------
  Sum of atomic charges =    -1.000002

                    Cartesian Multipole Moments
 -----------------------------------------------------------------
    Charge (ESU x 10^10)
                -4.8032
    Dipole Moment (Debye)
         X      -1.4543      Y       0.7471      Z      -0.6106
       Tot       1.7452
    Quadrupole Moments (Debye-Ang)
        XX    -151.2094     XY      -6.2564     YY    -171.9975
        XZ      -2.8324     YZ     -15.1510     ZZ    -153.7692

 Total job time:  77.71s(wall), 516.74s(cpu)
        *  Thank you very much for using Q-Chem.  Have a nice day.  *
