 Q-Chem 6.0, Q-Chem, Inc., Pleasanton, CA (2022)
 Q-Chem 6.0.2 for Intel X86 EM64T Linux

User input:
--------------------------------------------------------------
$molecule
-2 1
C                 -0.2592790000      0.8804410000     -1.0268300000
C                 -0.8519810000      1.3972350000      0.1087790000
C                 -0.2048530000      1.2768030000      1.3625360000
C                  0.9952210000      0.2235730000     -0.9718460000
C                  1.6550930000      0.1019160000      0.3027220000
C                  1.0238330000      0.6393300000      1.4394690000
C                  1.6013090000     -0.3102450000     -2.1584130000
C                  2.8704610000     -0.9517720000     -1.9814800000
C                  3.5345110000     -1.0951030000     -0.7698200000
C                  2.9577300000     -0.5634570000      0.4391990000
O                  1.1069510000     -0.2622140000     -3.3529840000
O                  3.5414380000     -0.6663320000      1.5658960000
O                  3.3937460000     -1.4373990000     -3.1555470000
H                 -0.7368380000      0.9612980000     -1.9979350000
H                 -1.8155850000      1.8973830000      0.0406450000
H                 -0.6692760000      1.6826710000      2.2577850000
H                  1.5453360000      0.5326160000      2.3852250000
H                  2.6802340000     -1.1755430000     -3.7862740000
C                  4.8661730000     -1.7964390000     -0.6818870000
C                  6.0638760000     -0.8263270000     -0.6531830000
H                  4.9798990000     -2.4838100000     -1.5271380000
H                  4.8834980000     -2.3811370000      0.2453790000
H                  5.9159040000     -0.1316150000      0.1803170000
H                  6.0641890000     -0.2311290000     -1.5749210000
C                  7.4153320000     -1.5340580000     -0.5002670000
C                  8.6068300000     -0.5548320000     -0.4544660000
C                  9.9522020000     -1.2257140000     -0.2893950000
C                 10.4380670000     -1.5690480000      0.9778200000
C                 10.7459660000     -1.5527140000     -1.3967640000
C                 11.9719100000     -2.2009230000     -1.2540470000
C                 12.4318380000     -2.5214130000      0.0205520000
C                 11.6667670000     -2.2077900000      1.1394070000
O                 13.6051280000     -3.2428450000      0.2079290000
C                 14.8201810000     -2.7278430000     -0.1978870000
C                 15.0492430000     -1.3683070000     -0.4139500000
C                 15.8616760000     -3.6493480000     -0.3304060000
C                 17.1351600000     -3.2063400000     -0.6735790000
C                 16.3295080000     -0.9417130000     -0.7713660000
C                 17.3756060000     -1.8513470000     -0.9004380000
H                  7.5642550000     -2.2397980000     -1.3279670000
H                  7.4110700000     -2.1346900000      0.4179000000
H                  8.4483180000      0.1483380000      0.3709550000
H                  8.6101560000      0.0422480000     -1.3733080000
H                  9.8450540000     -1.3302080000      1.8552390000
H                 10.3942940000     -1.3016750000     -2.3927670000
H                 12.5710260000     -2.4538000000     -2.1214930000
H                 12.0393660000     -2.4703890000      2.1229200000
H                 14.2421500000     -0.6544570000     -0.3035970000
H                 15.6579420000     -4.7007520000     -0.1578530000
H                 17.9440820000     -3.9258070000     -0.7735420000
H                 16.5068980000      0.1160320000     -0.9454660000
H                 18.3690740000     -1.5106180000     -1.1770790000
$end
$rem
BASIS  =  6-311++G(d,p)
GUI  =  2
JOB_TYPE  =  SP
SCF_CONVERGENCE  = 8
METHOD  =  B3LYP
SOLVENT_METHOD = COSMO
SCF_Algorithm = DIIS_GDM
MAX_SCF_CYCLES = 200
$end
$solvent
dielectric 37.219
opticaldielectric 1.43
$end

--------------------------------------------------------------

             Standard Nuclear Orientation (Angstroms)
    I     Atom           X                Y                Z
 ----------------------------------------------------------------
    1      C       8.0225811196    -0.2798914116     0.6727734322
    2      C       8.6802963843     0.9225947438     0.8442877956
    3      C       8.0035175531     2.1414533763     0.5962168829
    4      C       6.6711188259    -0.3289937114     0.2492079797
    5      C       5.9812722166     0.9102886765    -0.0018814213
    6      C       6.6805597336     2.1171410234     0.1825125003
    7      C       5.9979800443    -1.5845009630     0.0736195735
    8      C       4.6329952154    -1.5107372687    -0.3564784522
    9      C       3.9361436666    -0.3372890265    -0.6154056146
   10      C       4.5797222361     0.9404018798    -0.4411549140
   11      O       6.5107417765    -2.7563891081     0.2671402812
   12      O       3.9703477192     2.0368278881    -0.6585419675
   13      O       4.0496735798    -2.7462436518    -0.5026083311
   14      H       8.5212870090    -1.2259151298     0.8571017655
   15      H       9.7179858674     0.9340555715     1.1704658431
   16      H       8.5189656170     3.0891801726     0.7304388681
   17      H       6.1344156755     3.0341452617    -0.0140518993
   18      H       4.8075053120    -3.3279227614    -0.2519592405
   19      C       2.5003982142    -0.3612168342    -1.0747426755
   20      C       1.4925510211    -0.1190255357     0.0663187158
   21      H       2.2796391633    -1.3220971977    -1.5520644917
   22      H       2.3663133007     0.4339391780    -1.8175362497
   23      H       1.7484849762     0.8310739939     0.5469967995
   24      H       1.6110493258    -0.9063498539     0.8212625996
   25      C       0.0352301284    -0.0800880639    -0.4084438356
   26      C      -0.9651547418     0.1805230737     0.7369647033
   27      C      -2.4101609399     0.2384618811     0.2942942915
   28      C      -2.9677942231     1.4236464982    -0.1998306266
   29      C      -3.2326571418    -0.8951340333     0.3357272580
   30      C      -4.5557896646    -0.8571021623    -0.1017149035
   31      C      -5.0839719407     0.3392638362    -0.5798175043
   32      C      -4.2922475735     1.4820875041    -0.6313550899
   33      O      -6.3688787162     0.4056938130    -1.1059214213
   34      C      -7.4677189129     0.1331877230    -0.3156315177
   35      C      -7.4498492435     0.1918971051     1.0785437362
   36      C      -8.6534976330    -0.1558390501    -0.9952173744
   37      C      -9.8234887636    -0.3798202098    -0.2763721277
   38      C      -8.6292011683    -0.0491216952     1.7855416736
   39      C      -9.8174648005    -0.3323535522     1.1175417660
   40      H      -0.2236734982    -1.0266384416    -0.9007299233
   41      H      -0.0802882871     0.7025920146    -1.1686247315
   42      H      -0.6972339135     1.1241416764     1.2255302493
   43      H      -0.8493324027    -0.6035325419     1.4936867044
   44      H      -2.3550241649     2.3186133728    -0.2458764142
   45      H      -2.8274212537    -1.8297296203     0.7112678216
   46      H      -5.1771932285    -1.7449123087    -0.0700909233
   47      H      -4.7199351501     2.4026006985    -1.0119137142
   48      H      -6.5311048560     0.4233337143     1.6034290229
   49      H      -8.6412314650    -0.1964288573    -2.0791613123
   50      H     -10.7451795250    -0.6021311479    -0.8083910697
   51      H      -8.6143975412    -0.0093431471     2.8712677103
   52      H     -10.7309235085    -0.5167889963     1.6753785854
 ----------------------------------------------------------------

   59   -1305.2809180188      9.32e-09  Convergence criterion met
 Total energy in the final basis set =    -1305.2809180188
   23   -1305.5334924926      8.07e-09  Convergence criterion met
 Total energy in the final basis set =    -1305.5334924926

                    Orbital Energies (a.u.)
 --------------------------------------------------------------

 Alpha MOs
 -- Occupied --
-19.1686 -19.1143 -19.0305 -19.0217 -10.2439 -10.2365 -10.1813 -10.1804
-10.1799 -10.1783 -10.1780 -10.1775 -10.1771 -10.1763 -10.1762 -10.1756
-10.1747 -10.1724 -10.1638 -10.1635 -10.1552 -10.1479 -10.1457 -10.1449
-10.1445 -10.1434 -10.1411 -10.1367 -10.1326 -10.1245  -1.0856  -1.0293
 -0.9460  -0.9388  -0.8701  -0.8568  -0.8253  -0.7987  -0.7784  -0.7609
 -0.7556  -0.7526  -0.7414  -0.7222  -0.7171  -0.6851  -0.6490  -0.6304
 -0.6224  -0.6162  -0.6093  -0.5869  -0.5785  -0.5701  -0.5546  -0.5514
 -0.5359  -0.5065  -0.5039  -0.4904  -0.4793  -0.4749  -0.4711  -0.4574
 -0.4483  -0.4451  -0.4430  -0.4293  -0.4284  -0.4257  -0.4240  -0.4125
 -0.4113  -0.4017  -0.3984  -0.3970  -0.3873  -0.3806  -0.3771  -0.3690
 -0.3681  -0.3623  -0.3576  -0.3543  -0.3522  -0.3472  -0.3445  -0.3356
 -0.3329  -0.3264  -0.3243  -0.3159  -0.3127  -0.3071  -0.3011  -0.2992
 -0.2660  -0.2605  -0.2507  -0.2313  -0.2294  -0.2276  -0.2192  -0.1998
 -0.1938  -0.1092

          Ground-State Mulliken Net Atomic Charges

     Atom                 Charge (a.u.)
  ----------------------------------------
      1 C                    -0.038091
      2 C                    -0.405196
      3 C                    -0.518087
      4 C                     0.344801
      5 C                     0.001622
      6 C                     0.041125
      7 C                    -0.888913
      8 C                    -0.631135
      9 C                     2.006468
     10 C                    -0.767311
     11 O                    -0.767464
     12 O                    -0.671703
     13 O                    -0.355372
     14 H                     0.155973
     15 H                     0.176582
     16 H                     0.170461
     17 H                     0.153142
     18 H                     0.293706
     19 C                    -0.362158
     20 C                    -0.666942
     21 H                     0.209488
     22 H                     0.170266
     23 H                     0.171366
     24 H                     0.146715
     25 C                    -0.415363
     26 C                    -1.013173
     27 C                     1.427145
     28 C                    -0.265256
     29 C                    -0.426256
     30 C                     0.086963
     31 C                    -0.601529
     32 C                    -0.122045
     33 O                    -0.060058
     34 C                    -0.292556
     35 C                     0.178735
     36 C                    -0.262061
     37 C                    -0.236526
     38 C                    -0.166873
     39 C                    -0.360014
     40 H                     0.136331
     41 H                     0.135254
     42 H                     0.176342
     43 H                     0.181062
     44 H                     0.218720
     45 H                     0.213263
     46 H                     0.221826
     47 H                     0.229463
     48 H                     0.199441
     49 H                     0.211864
     50 H                     0.216122
     51 H                     0.230444
     52 H                     0.189390
  ----------------------------------------
  Sum of atomic charges =    -2.000000

                    Cartesian Multipole Moments
 -----------------------------------------------------------------
    Charge (ESU x 10^10)
                -9.6064
    Dipole Moment (Debye)
         X     -49.7001      Y       2.3217      Z       3.1000
       Tot      49.8507
    Quadrupole Moments (Debye-Ang)
        XX    -485.3086     XY      33.2509     YY    -228.5394
        XZ      -5.0641     YZ       4.0317     ZZ    -189.5981

 Total job time:  1458.38s(wall), 11355.94s(cpu)
        *  Thank you very much for using Q-Chem.  Have a nice day.  *
