 Q-Chem 5.4, Q-Chem, Inc., Pleasanton, CA (2021)
 Q-Chem 5.4.0 for Intel X86 EM64T Linux

User input:
--------------------------------------------------------------
$molecule
-2 1
Br                -2.4543940000      2.1910550000      0.4899220000
C                 -0.9313630000      0.8447400000      0.4630110000
C                 -1.2583440000     -0.4988240000      0.3002160000
Br                -2.8776210000     -1.2386740000      1.1694780000
C                 -0.3951180000     -1.4802040000     -0.2839220000
O                 -0.6605740000     -2.6865970000     -0.4213770000
C                  1.0514060000     -0.9963040000     -0.5739970000
O                  1.8995300000     -1.8301830000     -0.9346670000
C                  1.3202750000      0.3638340000     -0.2171220000
C                  0.3561150000      1.2755430000      0.2046190000
Br                 0.7047500000      3.2476380000     -0.1429670000
Br                 3.2441380000      0.8091770000     -0.0587940000
$end
$rem
MAX_SCF_CYCLES=200
BASIS  =  6-311++G(d,p)
GUI  =  2
JOB_TYPE  =  SP
METHOD  =  B3LYP
SOLVENT_METHOD = COSMO
$end
$solvent
dielectric 37.219
opticaldielectric 1.43
$end

--------------------------------------------------------------

             Standard Nuclear Orientation (Angstroms)
    I     Atom           X                Y                Z
 ----------------------------------------------------------------
    1      Br     -1.6953706865    -2.1160501395     0.1537799514
    2      C      -0.6909892768    -0.3682597738    -0.1095801249
    3      C      -1.3839110320     0.8171886110     0.1209726383
    4      Br     -3.2855036927     0.9751200554    -0.4119958988
    5      C      -0.7763776245     2.0469874090     0.5308276247
    6      O      -1.3739667320     3.1195508054     0.7238039303
    7      C       0.7762763594     2.0469603067     0.5307674561
    8      O       1.3739495718     3.1195047713     0.7236053611
    9      C       1.3839569844     0.8171131854     0.1211017388
   10      C       0.6910227399    -0.3683747810    -0.1094274172
   11      Br      1.6953676359    -2.1159225907     0.1530398423
   12      Br      3.2855144112     0.9750774074    -0.4116023471
 ----------------------------------------------------------------

   11  -10675.7477898957      5.57e-06  Convergence criterion met
 Total energy in the final basis set =   -10675.7477898957
    6  -10676.0059355707      5.85e-06  Convergence criterion met
 Total energy in the final basis set =   -10676.0059355707

                    Orbital Energies (a.u.)
 --------------------------------------------------------------

 Alpha MOs
 -- Occupied --
********-482.8140-482.8101-482.8100 -62.4668 -62.4668 -62.4628 -62.4628
-56.2872 -56.2872 -56.2835 -56.2835 -56.2833 -56.2832 -56.2831 -56.2831
-56.2796 -56.2796 -56.2794 -56.2794 -19.0645 -19.0645 -10.2215 -10.2213
-10.2190 -10.2184 -10.1975 -10.1975  -8.6751  -8.6751  -8.6713  -8.6713
 -6.5061  -6.5061  -6.5020  -6.5020  -6.4941  -6.4940  -6.4935  -6.4934
 -6.4905  -6.4904  -6.4899  -6.4899  -2.6171  -2.6171  -2.6137  -2.6136
 -2.6132  -2.6132  -2.6130  -2.6130  -2.6098  -2.6098  -2.6094  -2.6094
 -2.6038  -2.6037  -2.6037  -2.6037  -2.6002  -2.6002  -2.6002  -2.6002
 -1.0083  -0.9802  -0.8566  -0.7970  -0.7740  -0.7556  -0.7477  -0.6784
 -0.6694  -0.5547  -0.5523  -0.4871  -0.4432  -0.4148  -0.4143  -0.3970
 -0.3835  -0.3617  -0.3601  -0.3454  -0.3418  -0.3077  -0.3021  -0.2906
 -0.2896  -0.2819  -0.2727  -0.2637  -0.2608  -0.2439  -0.2187  -0.2033
 -0.1635

          Ground-State Mulliken Net Atomic Charges

     Atom                 Charge (a.u.)
  ----------------------------------------
      1 Br                   -0.265961
      2 C                    -0.142152
      3 C                     0.729387
      4 Br                   -0.264798
      5 C                    -0.524543
      6 O                    -0.531395
      7 C                    -0.523766
      8 O                    -0.531619
      9 C                     0.730481
     10 C                    -0.145153
     11 Br                   -0.265471
     12 Br                   -0.265010
  ----------------------------------------
  Sum of atomic charges =    -2.000000

                    Cartesian Multipole Moments
 -----------------------------------------------------------------
    Charge (ESU x 10^10)
                -9.6064
    Dipole Moment (Debye)
         X       0.0006      Y     -14.0668      Z      -2.9254
       Tot      14.3678
    Quadrupole Moments (Debye-Ang)
        XX    -166.1048     XY      -0.0090     YY    -191.2387
        XZ       0.0023     YZ     -11.9784     ZZ    -130.3049

 Total job time:  33.85s(wall), 254.12s(cpu)
        *  Thank you very much for using Q-Chem.  Have a nice day.  *
