 Gaussian 16, Revision A.03,
 Gaussian 16:  ES64L-G16RevA.03 25-Dec-2016

 ----------------------------------------------
 #P UB3LYP/6-311++G(d,p) nosym opt freq SCF=YQC
 ----------------------------------------------

 -------
 Reduced
 -------
 Symbolic Z-matrix:
 Charge = -2 Multiplicity = 1

 SCF Done:  E(UB3LYP) =  -914.590733386     a.u. after    8 cycles
 SCF Done:  E(UB3LYP) =  -914.596931304     A.U. after   33 cycles
 SCF Done:  E(UB3LYP) =  -914.602779614     a.u. after   14 cycles
 SCF Done:  E(UB3LYP) =  -914.650881461     a.u. after   23 cycles
 SCF Done:  E(UB3LYP) =  -914.651505205     A.U. after   28 cycles
 SCF Done:  E(UB3LYP) =  -914.682311402     a.u. after   35 cycles
 SCF Done:  E(UB3LYP) =  -914.682842118     A.U. after   30 cycles
 SCF Done:  E(UB3LYP) =  -914.692609309     a.u. after   64 cycles
 SCF Done:  E(UB3LYP) =  -914.693758238     A.U. after   28 cycles
 SCF Done:  E(UB3LYP) =  -914.698848486     a.u. after   24 cycles
 SCF Done:  E(UB3LYP) =  -914.705238231     a.u. after    9 cycles
 SCF Done:  E(UB3LYP) =  -914.705276930     A.U. after   14 cycles
 SCF Done:  E(UB3LYP) =  -914.705253451     a.u. after    1 cycles
 SCF Done:  E(UB3LYP) =  -914.705277636     A.U. after   15 cycles
 SCF Done:  E(UB3LYP) =  -914.705266906     a.u. after    1 cycles
 SCF Done:  E(UB3LYP) =  -914.705278476     A.U. after   14 cycles
 SCF Done:  E(UB3LYP) =  -914.705277406     a.u. after    1 cycles
 SCF Done:  E(UB3LYP) =  -914.705278852     A.U. after   14 cycles
 Optimization completed.
    -- Stationary point found.
 Normal termination of Gaussian 16 at Fri Dec 22 07:50:31 2023.

 ----------------------------------------------------------------------
 #P Geom=AllCheck Guess=TCheck SCRF=Check GenChk UB3LYP/6-311++G(d,p) F
 req
 ----------------------------------------------------------------------

 Structure from the checkpoint file:  "201-an.chk"
 -------
 Reduced
 -------
 Charge = -2 Multiplicity = 1

                          Input orientation:
 ---------------------------------------------------------------------
 Center     Atomic      Atomic             Coordinates (Angstroms)
 Number     Number       Type             X           Y           Z
 ---------------------------------------------------------------------
      1          8           0       -2.694305    2.524128   -0.453887
      2          6           0       -2.650748    1.185443   -0.220201
      3          6           0       -3.826793    0.468632   -0.100282
      4          6           0       -3.784410   -0.930855    0.144010
      5          6           0       -2.576007   -1.582290    0.262884
      6          6           0       -1.345927   -0.884267    0.146562
      7          6           0       -0.097556   -1.634371    0.282228
      8          8           0       -0.122656   -2.886793    0.498305
      9          6           0        1.123751   -0.849497    0.152483
     10          6           0        2.427549   -1.434053    0.261930
     11          8           0        2.560849   -2.799719    0.503336
     12          6           0        3.575907   -0.680750    0.135771
     13          6           0        3.517546    0.720436   -0.108944
     14          6           0        2.300052    1.344044   -0.224575
     15          8           0        2.252652    2.687706   -0.459596
     16          6           0        1.068095    0.591499   -0.099641
     17          6           0       -0.167172    1.272895   -0.224551
     18          8           0       -0.217255    2.609202   -0.458594
     19          6           0       -1.370364    0.530330   -0.100281
     20          1           0       -1.704367    2.798212   -0.497513
     21          1           0       -4.770682    0.998802   -0.196893
     22          1           0       -4.717829   -1.484163    0.236511
     23          1           0       -2.514051   -2.648685    0.448792
     24          1           0        3.510759   -2.952806    0.555741
     25          1           0        4.546348   -1.171603    0.225079
     26          1           0        4.424823    1.309377   -0.206992
     27          1           0        1.251791    2.899147   -0.501683
 ---------------------------------------------------------------------

 SCF Done:  E(UB3LYP) =  -914.705278852     a.u. after    1 cycles
 SCF Done:  E(UB3LYP) =  -914.705278852     A.U. after    1 cycles

 Alpha  occ. eigenvalues --  -18.90679 -18.87207 -18.86620 -18.81622 -18.77827
 Alpha  occ. eigenvalues --   -9.98123  -9.97936  -9.97238  -9.94893  -9.94736
 Alpha  occ. eigenvalues --   -9.92600  -9.92285  -9.91617  -9.91611  -9.91497
 Alpha  occ. eigenvalues --   -9.91342  -9.91269  -9.90966  -9.90464  -0.81353
 Alpha  occ. eigenvalues --   -0.79095  -0.78166  -0.70893  -0.70222  -0.59504
 Alpha  occ. eigenvalues --   -0.58349  -0.52805  -0.48528  -0.48399  -0.47492
 Alpha  occ. eigenvalues --   -0.41393  -0.38714  -0.37790  -0.33325  -0.32485
 Alpha  occ. eigenvalues --   -0.29891  -0.27820  -0.26871  -0.24503  -0.22234
 Alpha  occ. eigenvalues --   -0.21975  -0.21042  -0.19486  -0.18555  -0.17248
 Alpha  occ. eigenvalues --   -0.16093  -0.15822  -0.15525  -0.14279  -0.13727
 Alpha  occ. eigenvalues --   -0.13280  -0.12410  -0.11683  -0.10631  -0.10432
 Alpha  occ. eigenvalues --   -0.09762  -0.08603  -0.07577  -0.06424  -0.04943
 Alpha  occ. eigenvalues --   -0.00026   0.00474   0.01125   0.03046   0.04237
 Alpha  occ. eigenvalues --    0.04960   0.12397
 Alpha virt. eigenvalues --    0.15846   0.16700   0.17908   0.18640   0.20350
 Alpha virt. eigenvalues --    0.21262   0.21624   0.21795   0.22503   0.24319
 Alpha virt. eigenvalues --    0.25237   0.25985   0.26297   0.26486   0.26990

  Beta  occ. eigenvalues --  -18.90679 -18.87207 -18.86620 -18.81622 -18.77827
  Beta  occ. eigenvalues --   -9.98123  -9.97936  -9.97238  -9.94893  -9.94736
  Beta  occ. eigenvalues --   -9.92600  -9.92285  -9.91617  -9.91611  -9.91497
  Beta  occ. eigenvalues --   -9.91342  -9.91269  -9.90966  -9.90464  -0.81353
  Beta  occ. eigenvalues --   -0.79095  -0.78166  -0.70893  -0.70222  -0.59504
  Beta  occ. eigenvalues --   -0.58349  -0.52805  -0.48528  -0.48399  -0.47492
  Beta  occ. eigenvalues --   -0.41393  -0.38714  -0.37790  -0.33325  -0.32485
  Beta  occ. eigenvalues --   -0.29891  -0.27820  -0.26871  -0.24503  -0.22234
  Beta  occ. eigenvalues --   -0.21975  -0.21042  -0.19486  -0.18555  -0.17248
  Beta  occ. eigenvalues --   -0.16093  -0.15822  -0.15525  -0.14279  -0.13727
  Beta  occ. eigenvalues --   -0.13280  -0.12410  -0.11683  -0.10631  -0.10432
  Beta  occ. eigenvalues --   -0.09762  -0.08603  -0.07577  -0.06424  -0.04943
  Beta  occ. eigenvalues --   -0.00026   0.00474   0.01125   0.03046   0.04237
  Beta  occ. eigenvalues --    0.04960   0.12397
  Beta virt. eigenvalues --    0.15846   0.16700   0.17908   0.18640   0.20350
  Beta virt. eigenvalues --    0.21262   0.21624   0.21795   0.22503   0.24319
  Beta virt. eigenvalues --    0.25237   0.25985   0.26297   0.26486   0.26990

 Mulliken charges and spin densities:
               1          2
     1  O   -0.453072  -0.000000
     2  C   -0.112825   0.000000
     3  C   -0.218340  -0.000000
     4  C   -0.375201  -0.000000
     5  C   -0.219186  -0.000000
     6  C    0.383296  -0.000000
     7  C   -0.414482   0.000000
     8  O   -0.474279  -0.000000
     9  C    0.237438  -0.000000
    10  C   -0.383924  -0.000000
    11  O   -0.198028   0.000000
    12  C   -0.253391   0.000000
    13  C   -0.086596  -0.000000
    14  C   -0.405735   0.000000
    15  O   -0.460965  -0.000000
    16  C    0.595490  -0.000000
    17  C   -0.336479  -0.000000
    18  O   -0.712603  -0.000000
    19  C    0.430259   0.000000
    20  H    0.430668   0.000000
    21  H    0.083508  -0.000000
    22  H    0.079754  -0.000000
    23  H    0.119213  -0.000000
    24  H    0.202947  -0.000000
    25  H    0.028299   0.000000
    26  H    0.087893   0.000000
    27  H    0.426341  -0.000000
 Sum of Mulliken charges =  -2.00000   0.00000

 Dipole moment (field-independent basis, Debye):
    X=              1.8550    Y=             -0.6013    Z=              0.1541  Tot=              1.9561
 Quadrupole moment (field-independent basis, Debye-Ang):
   XX=           -167.7776   YY=           -175.9154   ZZ=           -123.5023
   XY=             -2.3912   XZ=              0.2909   YZ=              9.3051

  Exact polarizability: 401.482   1.653 241.702   1.873 -21.839 122.641
 Approx polarizability: 685.013   9.280 454.503   1.449 -47.979 188.714

                      1                      2                      3
                      A                      A                      A
 Frequencies --     16.8155                56.5564                64.7459
 Red. masses --      1.6783                 5.8606                 2.6332
 Frc consts  --      0.0003                 0.0110                 0.0065
 IR Inten    --     39.3314                 3.8421                 6.3023

                      4                      5                      6
                      A                      A                      A
 Frequencies --     97.7076               118.8912               169.3063
 Red. masses --      8.5280                 7.3547                 7.6371
 Frc consts  --      0.0480                 0.0613                 0.1290
 IR Inten    --      0.1613                 1.8258                 1.1655

                      7                      8                      9
                      A                      A                      A
 Frequencies --    219.2154               230.4238               274.5212
 Red. masses --      6.5162                 5.0631                 5.6100
 Frc consts  --      0.1845                 0.1584                 0.2491
 IR Inten    --      6.4934                 0.0820                 0.3271

                     10                     11                     12
                      A                      A                      A
 Frequencies --    300.9397               346.6626               354.5095
 Red. masses --      7.7756                 6.8154                12.1578
 Frc consts  --      0.4149                 0.4826                 0.9002
 IR Inten    --      4.1659                 5.3959                 0.2482

                     13                     14                     15
                      A                      A                      A
 Frequencies --    359.7346               374.7325               415.4993
 Red. masses --      6.6653                 9.0327                 6.8471
 Frc consts  --      0.5082                 0.7473                 0.6965
 IR Inten    --      2.0933                 0.0229                16.1266

                     16                     17                     18
                      A                      A                      A
 Frequencies --    453.2564               458.3689               473.5276
 Red. masses --      8.3618                 9.3956                 9.1468
 Frc consts  --      1.0121                 1.1631                 1.2084
 IR Inten    --     16.7534                51.6321                 1.5821

                     19                     20                     21
                      A                      A                      A
 Frequencies --    478.6632               502.9975               523.6794
 Red. masses --      4.3496                 8.2442                 6.6744
 Frc consts  --      0.5872                 1.2289                 1.0784
 IR Inten    --      0.1664                 1.5986                 5.3018

                     22                     23                     24
                      A                      A                      A
 Frequencies --    533.9673               583.3123               592.1157
 Red. masses --      3.6320                 7.9544                 3.7145
 Frc consts  --      0.6101                 1.5946                 0.7673
 IR Inten    --     24.0580                22.7861                13.4152

                     25                     26                     27
                      A                      A                      A
 Frequencies --    606.8931               609.3470               665.7339
 Red. masses --      4.6725                 2.5579                 2.1178
 Frc consts  --      1.0140                 0.5596                 0.5530
 IR Inten    --      8.0764                13.3233                15.2897

                     28                     29                     30
                      A                      A                      A
 Frequencies --    697.5105               713.2942               731.2381
 Red. masses --      1.7855                 6.4076                 2.1425
 Frc consts  --      0.5118                 1.9208                 0.6750
 IR Inten    --     35.9935                32.0180                35.4088

                     31                     32                     33
                      A                      A                      A
 Frequencies --    742.0217               753.8030               762.3946
 Red. masses --      3.3438                 7.4164                 2.1317
 Frc consts  --      1.0847                 2.4829                 0.7300
 IR Inten    --      4.3450                69.0940                21.8116

                     34                     35                     36
                      A                      A                      A
 Frequencies --    795.9130               802.5986               825.8597
 Red. masses --      2.0610                 3.8507                 8.8740
 Frc consts  --      0.7692                 1.4615                 3.5660
 IR Inten    --     10.0287                 0.6381                57.9454

                     37                     38                     39
                      A                      A                      A
 Frequencies --    873.8766               927.0197               947.4710
 Red. masses --      8.5116                 1.2518                 6.1897
 Frc consts  --      3.8297                 0.6338                 3.2738
 IR Inten    --     71.7455                 2.3778                92.8471

                     40                     41                     42
                      A                      A                      A
 Frequencies --    978.7316               987.8793              1026.1819
 Red. masses --      1.0591                 5.1279                 1.0402
 Frc consts  --      0.5977                 2.9484                 0.6454
 IR Inten    --    114.1164                46.2244                10.8280

                     43                     44                     45
                      A                      A                      A
 Frequencies --   1042.8461              1054.7872              1117.0142
 Red. masses --      3.0352                 1.7826                 2.2182
 Frc consts  --      1.9448                 1.1685                 1.6307
 IR Inten    --     81.4310               215.3103                81.0795

                     46                     47                     48
                      A                      A                      A
 Frequencies --   1147.2556              1161.0247              1211.3413
 Red. masses --      1.2978                 3.4731                 3.8807
 Frc consts  --      1.0064                 2.7583                 3.3550
 IR Inten    --     17.2037                36.2006               262.5367

                     49                     50                     51
                      A                      A                      A
 Frequencies --   1213.3890              1229.2694              1261.1017
 Red. masses --      1.9081                 2.1379                 3.5180
 Frc consts  --      1.6552                 1.9034                 3.2964
 IR Inten    --     21.8948                 4.5762               118.7220

                     52                     53                     54
                      A                      A                      A
 Frequencies --   1263.3290              1289.7210              1310.7588
 Red. masses --      3.0540                 5.4425                 2.4429
 Frc consts  --      2.8718                 5.3339                 2.4729
 IR Inten    --     17.4575               144.9594                11.9461

                     55                     56                     57
                      A                      A                      A
 Frequencies --   1351.0224              1382.5714              1400.4184
 Red. masses --      6.4596                 4.0714                 6.7928
 Frc consts  --      6.9468                 4.5853                 7.8490
 IR Inten    --    180.1239                 8.8170               272.5635

                     58                     59                     60
                      A                      A                      A
 Frequencies --   1432.4840              1460.7682              1494.4105
 Red. masses --      2.8827                 2.9704                 4.4179
 Frc consts  --      3.4852                 3.7345                 5.8131
 IR Inten    --    125.4028                13.4797                44.3929

                     61                     62                     63
                      A                      A                      A
 Frequencies --   1511.9929              1547.6050              1567.6724
 Red. masses --      6.6340                 7.3967                 2.5739
 Frc consts  --      8.9357                10.4378                 3.7270
 IR Inten    --    908.1470               102.7786               231.5327

                     64                     65                     66
                      A                      A                      A
 Frequencies --   1570.9317              1600.7215              1634.4183
 Red. masses --      3.6387                 5.0474                 1.9765
 Frc consts  --      5.2907                 7.6198                 3.1108
 IR Inten    --    174.8736                43.2581               228.5967

                     67                     68                     69
                      A                      A                      A
 Frequencies --   1703.0871              2552.8983              2714.0520
 Red. masses --      1.5149                 1.0789                 1.0808
 Frc consts  --      2.5889                 4.1427                 4.6905
 IR Inten    --      8.1649              1105.8959                36.9495

                     70                     71                     72
                      A                      A                      A
 Frequencies --   3075.2881              3096.7662              3136.5605
 Red. masses --      1.0861                 1.0847                 1.0906
 Frc consts  --      6.0517                 6.1290                 6.3217
 IR Inten    --     95.0136                66.2019                99.1843

                     73                     74                     75
                      A                      A                      A
 Frequencies --   3143.4734              3172.3620              3787.7545
 Red. masses --      1.0902                 1.0906                 1.0648
 Frc consts  --      6.3470                 6.4664                 9.0011
 IR Inten    --     74.2148                34.1265                 2.0223

 - Thermochemistry -
 -------------------
 Temperature   298.150 Kelvin.  Pressure   1.00000 Atm.
 Atom     1 has atomic number  8 and mass  15.99491

 Molecular mass:   256.03717 amu.
 Principal axes and moments of inertia in atomic units:
                           1         2         3
     Eigenvalues --  2946.210185184.661828130.86421
           X            0.98522   0.17120  -0.00487
           Y           -0.16783   0.97069   0.17200
           Z            0.03417  -0.16864   0.98508
 This molecule is an asymmetric top.
 Rotational symmetry number  1.
 Warning -- assumption of classical behavior for rotation
           may cause significant error
 Rotational temperatures (Kelvin)      0.02940     0.01671     0.01065
 Rotational constants (GHZ):           0.61256     0.34809     0.22196
 Zero-point vibrational energy     485008.1 (Joules/Mol)
                                  115.91971 (Kcal/Mol)
 Warning -- explicit consideration of  26 degrees of freedom as
           vibrations may cause significant error
 Vibrational temperatures:     24.19    81.37    93.15   140.58   171.06
          (Kelvin)            243.59   315.40   331.53   394.97   432.99
                              498.77   510.06   517.58   539.16   597.81
                              652.13   659.49   681.30   688.69   723.70
                              753.46   768.26   839.26   851.92   873.18
                              876.71   957.84  1003.56  1026.27  1052.09
                             1067.60  1084.55  1096.92  1145.14  1154.76
                             1188.23  1257.31  1333.77  1363.20  1408.18
                             1421.34  1476.45  1500.42  1517.60  1607.13
                             1650.64  1670.46  1742.85  1745.80  1768.64
                             1814.44  1817.65  1855.62  1885.89  1943.82
                             1989.21  2014.89  2061.03  2101.72  2150.12
                             2175.42  2226.66  2255.53  2260.22  2303.08
                             2351.56  2450.36  3673.05  3904.92  4424.65
                             4455.56  4512.81  4522.76  4564.32  5449.73

 Zero-point correction=                           0.184730 (Hartree/Particle)
 Thermal correction to Energy=                    0.199547
 Thermal correction to Enthalpy=                  0.200491
 Thermal correction to Gibbs Free Energy=         0.141829
 Sum of electronic and zero-point Energies=           -914.520549
 Sum of electronic and thermal Energies=              -914.505732
 Sum of electronic and thermal Enthalpies=            -914.504788
 Sum of electronic and thermal Free Energies=         -914.563449

                     E (Thermal)             CV                S
                      KCal/Mol        Cal/Mol-Kelvin    Cal/Mol-Kelvin
 Total                  125.218             58.973            123.464
 Electronic               0.000              0.000              0.000
 Translational            0.889              2.981             42.520
 Rotational               0.889              2.981             33.185
 Vibrational            123.440             53.011             47.759
 Vibration     1          0.593              1.986              6.979
 Vibration     2          0.596              1.975              4.574
 Vibration     3          0.597              1.971              4.307
 Vibration     4          0.603              1.951              3.500
 Vibration     5          0.609              1.934              3.118
 Vibration     6          0.625              1.880              2.443
 Vibration     7          0.647              1.812              1.966
 Vibration     8          0.652              1.795              1.876
 Vibration     9          0.677              1.720              1.568
 Vibration    10          0.693              1.672              1.412
 Vibration    11          0.725              1.582              1.181
 Vibration    12          0.730              1.566              1.146
 Vibration    13          0.734              1.555              1.123
 Vibration    14          0.746              1.524              1.060
 Vibration    15          0.779              1.437              0.907
 Vibration    16          0.812              1.354              0.786
 Vibration    17          0.816              1.342              0.771
 Vibration    18          0.830              1.309              0.728
 Vibration    19          0.835              1.297              0.714
 Vibration    20          0.858              1.243              0.651
 Vibration    21          0.879              1.198              0.601
 Vibration    22          0.889              1.175              0.578
 Vibration    23          0.940              1.067              0.479
 Vibration    24          0.950              1.049              0.463
 Vibration    25          0.966              1.017              0.438
 Vibration    26          0.968              1.012              0.434

                           ! Non-Optimized Parameters !
 Normal termination of Gaussian 16 at Fri Dec 22 09:23:54 2023.
