 Q-Chem 5.4, Q-Chem, Inc., Pleasanton, CA (2021)
 Q-Chem 5.4.0 for Intel X86 EM64T Linux

User input:
--------------------------------------------------------------
$molecule
-1 2
C                 -1.4480260000      2.3154420000     -3.9428910000
C                 -1.4099550000      0.9415690000     -4.0714330000
C                 -1.1111480000      0.1377780000     -2.9492710000
C                 -1.1924990000      2.9386110000     -2.7008550000
C                 -0.8917540000      2.1331000000     -1.5765060000
C                 -0.8580630000      0.7287220000     -1.7276970000
C                 -1.2519150000      4.3926870000     -2.6012240000
C                 -0.6087380000      2.7220360000     -0.2723350000
C                 -0.9903110000      4.9963790000     -1.3016690000
C                 -0.6457200000      4.1737830000     -0.1594490000
C                 -1.0662930000      6.4277310000     -1.1489490000
C                 -0.7730190000      6.9834960000      0.0973100000
C                 -0.4252690000      6.1920800000      1.1938310000
C                 -0.3443470000      4.8016420000      1.1026930000
O                 -1.5262350000      5.0670920000     -3.6470350000
O                 -0.3449750000      1.9475480000      0.7046230000
H                 -1.6759380000      2.9576910000     -4.7850330000
H                 -1.6096280000      0.4782740000     -5.0333000000
H                 -1.0804630000     -0.9433700000     -3.0486560000
H                 -0.6243970000      0.1385380000     -0.8497920000
H                 -0.2037460000      6.6848960000      2.1325940000
H                 -0.8240400000      8.0566780000      0.2347450000
N                 -1.4672420000      7.2204670000     -2.2133760000
N                  0.0596050000      4.0326280000      2.1830070000
H                 -1.5427470000      6.6785210000     -3.0812260000
H                 -0.0331590000      3.0293480000      1.9896720000
C                  0.0537770000      4.4846460000      3.5586630000
C                  0.8412800000      3.4784860000      4.4055890000
C                 -1.3667030000      4.6895430000      4.1246110000
C                 -1.2487920000      8.6495850000     -2.2979230000
C                  0.2380790000      9.0282440000     -2.4583510000
C                 -2.0835310000      9.2022250000     -3.4587710000
H                  0.5825390000      5.4459700000      3.6174830000
H                  0.8706560000      3.7895100000      5.4544510000
H                  1.8658380000      3.3839180000      4.0376620000
H                  0.3735590000      2.4894470000      4.3581850000
H                 -1.9415320000      5.3675670000      3.4900280000
H                 -1.3334850000      5.1086210000      5.1374290000
H                 -1.8973800000      3.7328820000      4.1630330000
H                 -1.6192600000      9.1193330000     -1.3763950000
H                  0.8370850000      8.5900500000     -1.6570740000
H                  0.3748730000     10.1160690000     -2.4370470000
H                  0.6214270000      8.6497300000     -3.4112790000
H                 -1.7759930000      8.7427470000     -4.4040230000
H                 -1.9553830000     10.2851880000     -3.5509300000
H                 -3.1437900000      8.9847420000     -3.3084600000
$end
$rem
MAX_SCF_CYCLES=200
BASIS  =  6-311++G(d,p)
GUI  =  2
JOB_TYPE  =  SP
METHOD  =  B3LYP
SOLVENT_METHOD = COSMO
$end
$solvent
dielectric 37.219
opticaldielectric 1.43
$end

--------------------------------------------------------------

             Standard Nuclear Orientation (Angstroms)
    I     Atom           X                Y                Z
 ----------------------------------------------------------------
    1      C       1.4003253305    -3.7542167047    -0.0778270343
    2      C       0.7162795602    -4.9525739165    -0.0388290359
    3      C      -0.6938132367    -4.9557355095     0.0401738598
    4      C       0.7123025958    -2.5207167775    -0.0405480621
    5      C      -0.7008385373    -2.5238888971     0.0399396732
    6      C      -1.3832744835    -3.7604511721     0.0782318139
    7      C       1.4686762867    -1.2745915195    -0.0940671421
    8      C      -1.4628111487    -1.2811343238     0.0925179561
    9      C       0.7221884604    -0.0242243253    -0.0614836128
   10      C      -0.7219840258    -0.0274567145     0.0586373545
   11      C       1.4253801091     1.2315737399    -0.1412202753
   12      C       0.6896649966     2.4154238177    -0.0686383498
   13      C      -0.7003734134     2.4124201835     0.0633156116
   14      C      -1.4307647469     1.2253211997     0.1374562865
   15      O       2.7396676486    -1.3326828602    -0.1647818393
   16      O      -2.7335230396    -1.3449794869     0.1636839702
   17      H       2.4813371673    -3.7200830475    -0.1401095201
   18      H       1.2603691597    -5.8921199442    -0.0691516241
   19      H      -1.2336543255    -5.8977043776     0.0712575505
   20      H      -2.4644279841    -3.7311589375     0.1405472664
   21      H      -1.2124454778     3.3652122547     0.1197557520
   22      H       1.1974531592     3.3704057912    -0.1267050271
   23      N       2.7986170575     1.2489237418    -0.3312586018
   24      N      -2.8037972449     1.2366747068     0.3279581147
   25      H       3.2025669475     0.3087241812    -0.2576422511
   26      H      -3.2041111686     0.2948179062     0.2557856134
   27      C      -3.6560352881     2.3810932166     0.0814215856
   28      C      -5.0358561876     2.1007461326     0.6874763421
   29      C      -3.7732262316     2.7400511803    -1.4143921771
   30      C       3.6458236110     2.3959636315    -0.0786969207
   31      C       3.7573507579     2.7506987530     1.4185104267
   32      C       5.0283651533     2.1227383628    -0.6817682958
   33      H      -3.2394751946     3.2520171752     0.6059804716
   34      H      -5.7100796677     2.9487050472     0.5322386180
   35      H      -4.9535546569     1.9082341184     1.7599492144
   36      H      -5.4869862491     1.2189389942     0.2204580824
   37      H      -2.7849226414     2.8891020494    -1.8547106525
   38      H      -4.3574697441     3.6569290938    -1.5576559777
   39      H      -4.2653223997     1.9274529684    -1.9582856454
   40      H       3.2274813917     3.2669067114    -0.6017375658
   41      H       2.7671806275     2.8947010530     1.8563385332
   42      H       4.3377206609     3.6693135207     1.5663189984
   43      H       4.2509337892     1.9382689846     1.9613123915
   44      H       5.4815811655     1.2412475615    -0.2161824166
   45      H       5.6989090320     2.9727962191    -0.5220917530
   46      H       4.9497434788     1.9331601704    -1.7550437219
 ----------------------------------------------------------------

    9   -1035.7080581684      8.57e-06  Convergence criterion met
 Total energy in the final basis set =    -1035.7080581684
    4   -1035.7885689685      5.32e-06  Convergence criterion met
 Total energy in the final basis set =    -1035.7885689685

                    Orbital Energies (a.u.)
 --------------------------------------------------------------

 Alpha MOs
 -- Occupied --
-19.0739 -19.0739 -14.2981 -14.2980 -10.2226 -10.2226 -10.2042 -10.2041
-10.2000 -10.2000 -10.1700 -10.1698 -10.1695 -10.1695 -10.1683 -10.1679
-10.1666 -10.1666 -10.1597 -10.1591 -10.1535 -10.1535 -10.1504 -10.1504
 -1.0023  -0.9997  -0.9241  -0.9188  -0.8559  -0.8323  -0.7807  -0.7790
 -0.7566  -0.7477  -0.7333  -0.7027  -0.6819  -0.6819  -0.6606  -0.6343
 -0.6273  -0.5963  -0.5837  -0.5728  -0.5618  -0.5231  -0.5222  -0.5004
 -0.4843  -0.4779  -0.4649  -0.4586  -0.4521  -0.4404  -0.4370  -0.4343
 -0.4256  -0.4199  -0.4134  -0.4104  -0.4069  -0.4015  -0.3957  -0.3897
 -0.3819  -0.3813  -0.3785  -0.3775  -0.3697  -0.3621  -0.3562  -0.3487
 -0.3466  -0.3432  -0.3382  -0.3357  -0.3333  -0.3304  -0.3057  -0.2676
 -0.2545  -0.2486  -0.2441  -0.2411  -0.2318  -0.1814  -0.1316

 Beta MOs
 -- Occupied --
-19.0696 -19.0696 -14.2972 -14.2971 -10.2209 -10.2209 -10.2037 -10.2036
-10.2001 -10.2000 -10.1700 -10.1696 -10.1696 -10.1691 -10.1676 -10.1672
-10.1666 -10.1665 -10.1583 -10.1578 -10.1535 -10.1535 -10.1504 -10.1503
 -0.9949  -0.9921  -0.9222  -0.9170  -0.8539  -0.8306  -0.7783  -0.7771
 -0.7554  -0.7459  -0.7319  -0.7001  -0.6818  -0.6814  -0.6545  -0.6327
 -0.6251  -0.5960  -0.5828  -0.5717  -0.5601  -0.5211  -0.5211  -0.4992
 -0.4836  -0.4755  -0.4639  -0.4576  -0.4510  -0.4396  -0.4358  -0.4336
 -0.4220  -0.4177  -0.4091  -0.4073  -0.4057  -0.3977  -0.3948  -0.3882
 -0.3815  -0.3794  -0.3777  -0.3670  -0.3632  -0.3608  -0.3558  -0.3456
 -0.3449  -0.3411  -0.3354  -0.3328  -0.3322  -0.3260  -0.3001  -0.2527
 -0.2485  -0.2407  -0.2403  -0.2370  -0.2277  -0.1684

          Ground-State Mulliken Net Atomic Charges

     Atom                 Charge (a.u.)    Spin (a.u.)
  --------------------------------------------------------
      1 C                    -0.155156       0.024173
      2 C                    -0.393718       0.034008
      3 C                    -0.394093       0.034091
      4 C                     0.319938       0.032731
      5 C                     0.320294       0.032778
      6 C                    -0.154965       0.024106
      7 C                    -0.294844       0.099489
      8 C                    -0.293633       0.099447
      9 C                     0.061302      -0.015422
     10 C                     0.062708      -0.015532
     11 C                    -0.418056       0.042433
     12 C                    -0.037097       0.088300
     13 C                    -0.036427       0.088580
     14 C                    -0.417923       0.042264
     15 O                    -0.501274       0.154758
     16 O                    -0.501694       0.154664
     17 H                     0.169734      -0.000784
     18 H                     0.201411      -0.002809
     19 H                     0.201414      -0.002814
     20 H                     0.169797      -0.000780
     21 H                     0.219333      -0.007006
     22 H                     0.219322      -0.007021
     23 N                    -0.095505       0.044885
     24 N                    -0.095986       0.044907
     25 H                     0.413106      -0.001531
     26 H                     0.413254      -0.001529
     27 C                     0.066253       0.002720
     28 C                    -0.563084      -0.000951
     29 C                    -0.555654       0.002042
     30 C                     0.065485       0.002937
     31 C                    -0.556314       0.001986
     32 C                    -0.562927      -0.000970
     33 H                     0.131372       0.002183
     34 H                     0.164219      -0.000078
     35 H                     0.161204      -0.000035
     36 H                     0.149001      -0.000064
     37 H                     0.142707       0.001408
     38 H                     0.150096      -0.000220
     39 H                     0.164003      -0.000267
     40 H                     0.131255       0.002152
     41 H                     0.142674       0.001426
     42 H                     0.150093      -0.000219
     43 H                     0.164019      -0.000264
     44 H                     0.148984      -0.000062
     45 H                     0.164072      -0.000078
     46 H                     0.161300      -0.000034
  --------------------------------------------------------
  Sum of atomic charges =    -1.000001

                    Cartesian Multipole Moments
 -----------------------------------------------------------------
    Charge (ESU x 10^10)
                -4.8032
    Dipole Moment (Debye)
         X      -0.0258      Y       7.6625      Z       0.0138
       Tot       7.6625
    Quadrupole Moments (Debye-Ang)
        XX    -168.1734     XY      -0.0609     YY    -147.4442
        XZ       3.7832     YZ       0.0145     ZZ    -155.4866

 Total job time:  234.81s(wall), 1709.88s(cpu)
        *  Thank you very much for using Q-Chem.  Have a nice day.  *
