 Gaussian 16, Revision A.03,
 Gaussian 16:  ES64L-G16RevA.03 25-Dec-2016

 ----------------------------------------------------------------------
 #P UB3LYP/6-311++G(d,p) nosym opt freq SCRF=(PCM,Solvent=n,n-DiMethylF
 ormamide)
 ----------------------------------------------------------------------

 -------
 Radical
 -------
 Symbolic Z-matrix:
 Charge = -2 Multiplicity = 2

 SCF Done:  E(UB3LYP) =  -1312.54077343     A.U. after   20 cycles
 SCF Done:  E(UB3LYP) =  -1312.54179519     A.U. after   18 cycles
 SCF Done:  E(UB3LYP) =  -1312.54147676     A.U. after   18 cycles
 SCF Done:  E(UB3LYP) =  -1312.53903075     A.U. after   19 cycles
 SCF Done:  E(UB3LYP) =  -1312.53896481     A.U. after   17 cycles
 SCF Done:  E(UB3LYP) =  -1312.54197210     A.U. after   14 cycles
 SCF Done:  E(UB3LYP) =  -1312.54232358     A.U. after   17 cycles
 SCF Done:  E(UB3LYP) =  -1312.54234068     A.U. after   14 cycles
 SCF Done:  E(UB3LYP) =  -1312.54235298     A.U. after   15 cycles
 SCF Done:  E(UB3LYP) =  -1312.54235231     A.U. after   11 cycles
 SCF Done:  E(UB3LYP) =  -1312.54235348     A.U. after   11 cycles
 SCF Done:  E(UB3LYP) =  -1312.54235407     A.U. after   11 cycles
 Optimization completed.
    -- Stationary point found.
 Normal termination of Gaussian 16 at Sat Feb 10 23:55:42 2024.

 ----------------------------------------------------------------------
 #P Geom=AllCheck Guess=TCheck SCRF=Check GenChk UB3LYP/6-311++G(d,p) F
 req
 ----------------------------------------------------------------------

 Structure from the checkpoint file:  "222-rad.chk"
 -------
 Radical
 -------
 Charge = -2 Multiplicity = 2

                          Input orientation:
 ---------------------------------------------------------------------
 Center     Atomic      Atomic             Coordinates (Angstroms)
 Number     Number       Type             X           Y           Z
 ---------------------------------------------------------------------
      1          8           0       -2.516806   -2.815096   -1.635837
      2         16           0       -2.968587   -2.323634   -0.303900
      3          8           0       -2.505489   -3.130614    0.859795
      4          8           0       -4.459597   -2.167786   -0.279009
      5          6           0       -2.332797   -0.597963   -0.076299
      6          6           0       -3.350692    0.333105    0.038196
      7          6           0       -3.080730    1.698322    0.239547
      8          6           0       -1.777552    2.122085    0.330497
      9          6           0       -0.704071    1.212458    0.218173
     10          6           0        0.644343    1.773508    0.332364
     11          8           0        0.829535    3.009615    0.526628
     12          6           0        1.758603    0.847744    0.213065
     13          6           0        3.087837    1.320782    0.314378
     14          6           0        4.160873    0.460708    0.201223
     15          6           0        3.936148   -0.915239   -0.019973
     16          6           0        2.645453   -1.395761   -0.121214
     17          6           0        1.529666   -0.535121   -0.007749
     18          6           0        0.180059   -1.105621   -0.123815
     19          8           0        0.041034   -2.334968   -0.325835
     20          6           0       -0.957163   -0.188149    0.003300
     21          1           0       -4.373129   -0.010272   -0.025517
     22          1           0       -3.902101    2.401127    0.325302
     23          1           0       -1.534976    3.164771    0.491364
     24          1           0        3.239318    2.379906    0.482928
     25          1           0        5.174527    0.838483    0.281247
     26          1           0        4.777847   -1.593520   -0.110054
     27          1           0        2.458449   -2.448873   -0.290943
 ---------------------------------------------------------------------

 SCF Done:  E(UB3LYP) =  -1312.54235407     A.U. after    1 cycles

 Alpha  occ. eigenvalues --  -89.03221 -19.07441 -19.07439 -19.07232 -19.07221
 Alpha  occ. eigenvalues --  -19.06826 -10.22198 -10.22125 -10.19758 -10.18480
 Alpha  occ. eigenvalues --  -10.17474 -10.17117 -10.17109 -10.17097 -10.17067
 Alpha  occ. eigenvalues --  -10.17047 -10.16992 -10.16917 -10.16855 -10.16748
 Alpha  occ. eigenvalues --   -8.09066  -6.05339  -6.05326  -6.05250  -1.09100
 Alpha  occ. eigenvalues --   -0.99907  -0.99552  -0.95626  -0.95024  -0.86092
 Alpha  occ. eigenvalues --   -0.85084  -0.78438  -0.75812  -0.74781  -0.73834
 Alpha  occ. eigenvalues --   -0.66782  -0.64311  -0.61807  -0.61056  -0.57103
 Alpha  occ. eigenvalues --   -0.54080  -0.53131  -0.51969  -0.47762  -0.46424
 Alpha  occ. eigenvalues --   -0.46242  -0.45532  -0.44964  -0.43770  -0.43291
 Alpha  occ. eigenvalues --   -0.42172  -0.42025  -0.40965  -0.40627  -0.39970
 Alpha  occ. eigenvalues --   -0.37750  -0.37371  -0.36763  -0.36248  -0.34475
 Alpha  occ. eigenvalues --   -0.33889  -0.33515  -0.32029  -0.31469  -0.29244
 Alpha  occ. eigenvalues --   -0.28321  -0.27401  -0.26621  -0.25450  -0.25066
 Alpha  occ. eigenvalues --   -0.24829  -0.24035  -0.23739  -0.22883  -0.13991
 Alpha virt. eigenvalues --   -0.05558  -0.02130  -0.00792   0.00009   0.00760
 Alpha virt. eigenvalues --    0.01663   0.02461   0.02700   0.04249   0.04367
 Alpha virt. eigenvalues --    0.04687   0.04886   0.05242   0.05750   0.06378

  Beta  occ. eigenvalues --  -89.03221 -19.07437 -19.07436 -19.07214 -19.06676
  Beta  occ. eigenvalues --  -19.06221 -10.22070 -10.21936 -10.19749 -10.18367
  Beta  occ. eigenvalues --  -10.17390 -10.17083 -10.17070 -10.17020 -10.17012
  Beta  occ. eigenvalues --  -10.16999 -10.16936 -10.16919 -10.16840 -10.16759
  Beta  occ. eigenvalues --   -8.09066  -6.05339  -6.05325  -6.05251  -1.09093
  Beta  occ. eigenvalues --   -0.98887  -0.98544  -0.95619  -0.95009  -0.85824
  Beta  occ. eigenvalues --   -0.84970  -0.78036  -0.75621  -0.74600  -0.73646
  Beta  occ. eigenvalues --   -0.66047  -0.64161  -0.61597  -0.60910  -0.56978
  Beta  occ. eigenvalues --   -0.53894  -0.52938  -0.51835  -0.47510  -0.46342
  Beta  occ. eigenvalues --   -0.46093  -0.45395  -0.44909  -0.43742  -0.43254
  Beta  occ. eigenvalues --   -0.42138  -0.40767  -0.40750  -0.40113  -0.39699
  Beta  occ. eigenvalues --   -0.37242  -0.36461  -0.36167  -0.35417  -0.34342
  Beta  occ. eigenvalues --   -0.33384  -0.32782  -0.31919  -0.31447  -0.29025
  Beta  occ. eigenvalues --   -0.28285  -0.27345  -0.25065  -0.24582  -0.24318
  Beta  occ. eigenvalues --   -0.24233  -0.23534  -0.23521  -0.22359
  Beta virt. eigenvalues --   -0.08014  -0.04674  -0.01092  -0.00543   0.00023
  Beta virt. eigenvalues --    0.00760   0.01669   0.02476   0.02700   0.04274
  Beta virt. eigenvalues --    0.04474   0.04688   0.04891   0.05751   0.05968

 Mulliken charges and spin densities:
               1          2
     1  O   -0.424725   0.000191
     2  S    0.677531   0.004749
     3  O   -0.433109   0.000036
     4  O   -0.433717   0.000874
     5  C   -0.945464   0.020138
     6  C    0.617119   0.026606
     7  C   -0.315625   0.045836
     8  C   -0.460253   0.016473
     9  C    0.727566   0.042671
    10  C   -0.474428   0.108441
    11  O   -0.461031   0.206707
    12  C    0.045314   0.001849
    13  C    0.047404   0.036189
    14  C   -0.480321   0.021295
    15  C   -0.480904   0.042377
    16  C    0.130824   0.018895
    17  C    0.337765   0.038762
    18  C   -0.834004   0.062687
    19  O   -0.367322   0.228019
    20  C    0.247675   0.092351
    21  H    0.240746  -0.002371
    22  H    0.196493  -0.003265
    23  H    0.152974  -0.000999
    24  H    0.164507  -0.002055
    25  H    0.179579  -0.001968
    26  H    0.181513  -0.003409
    27  H    0.163893  -0.001076
 Sum of Mulliken charges =  -2.00000   1.00000

 Dipole moment (field-independent basis, Debye):
    X=             14.7740    Y=             13.8232    Z=              1.5320  Tot=             20.2904
 Quadrupole moment (field-independent basis, Debye-Ang):
   XX=           -185.2002   YY=           -203.9904   ZZ=           -141.1423
   XY=            -56.2490   XZ=             -7.4495   YZ=             -9.3832

  Exact polarizability: 493.294   3.681 399.622   6.626  35.339 172.793
 Approx polarizability: 506.309  -4.007 465.983   5.623  41.607 201.370

                      1                      2                      3
                      A                      A                      A
 Frequencies --     33.6455                46.8831                96.5411
 Red. masses --     10.6803                 7.1989                 7.9476
 Frc consts  --      0.0071                 0.0093                 0.0436
 IR Inten    --      0.5007                16.3668                 0.6797

                      4                      5                      6
                      A                      A                      A
 Frequencies --    114.9644               133.3370               157.6408
 Red. masses --      4.8814                 9.9736                 6.7402
 Frc consts  --      0.0380                 0.1045                 0.0987
 IR Inten    --      0.2433                 7.2760                 2.0561

                      7                      8                      9
                      A                      A                      A
 Frequencies --    183.5281               212.1862               225.6539
 Red. masses --      8.1173                10.6593                 5.4594
 Frc consts  --      0.1611                 0.2828                 0.1638
 IR Inten    --      1.4711                 1.1188                 0.1513

                     10                     11                     12
                      A                      A                      A
 Frequencies --    278.8822               294.8232               311.6304
 Red. masses --      9.3205                 9.2230                 6.9333
 Frc consts  --      0.4271                 0.4723                 0.3967
 IR Inten    --      2.9948                 2.8977                 0.0545

                     13                     14                     15
                      A                      A                      A
 Frequencies --    345.1206               382.6230               396.2561
 Red. masses --      6.1667                10.8704                 9.3074
 Frc consts  --      0.4328                 0.9376                 0.8611
 IR Inten    --      6.8071                26.8887                12.7314

                     16                     17                     18
                      A                      A                      A
 Frequencies --    416.6576               434.4851               451.5297
 Red. masses --      6.0967                 3.3705                 8.6359
 Frc consts  --      0.6236                 0.3749                 1.0374
 IR Inten    --      0.0685                 3.5520                 4.6601

                     19                     20                     21
                      A                      A                      A
 Frequencies --    493.1746               495.0479               499.7773
 Red. masses --     10.0177                12.3348                 3.8996
 Frc consts  --      1.4355                 1.7811                 0.5739
 IR Inten    --     19.9549                 4.1825                 0.5725

                     22                     23                     24
                      A                      A                      A
 Frequencies --    513.7223               566.6312               588.7842
 Red. masses --     13.2539                 6.0499                15.8307
 Frc consts  --      2.0609                 1.1445                 3.2334
 IR Inten    --     36.0732                41.6900               417.5532

                     25                     26                     27
                      A                      A                      A
 Frequencies --    616.8946               645.0321               654.4453
 Red. masses --      6.5591                 4.6860                 7.2679
 Frc consts  --      1.4707                 1.1487                 1.8340
 IR Inten    --     25.4437                17.7821                20.6755

                     28                     29                     30
                      A                      A                      A
 Frequencies --    691.2305               702.7408               732.8931
 Red. masses --      7.1499                 2.4817                 3.9350
 Frc consts  --      2.0128                 0.7221                 1.2453
 IR Inten    --      0.7823               109.3314                 0.1020

                     31                     32                     33
                      A                      A                      A
 Frequencies --    745.8129               780.2758               789.9448
 Red. masses --      7.6152                 1.7271                 2.4958
 Frc consts  --      2.4957                 0.6195                 0.9176
 IR Inten    --     10.0817                 0.2243                48.6750

                     34                     35                     36
                      A                      A                      A
 Frequencies --    817.3991               819.6672               881.8708
 Red. masses --      6.7988                 2.1833                 1.4833
 Frc consts  --      2.6764                 0.8642                 0.6796
 IR Inten    --      0.5085                36.6833                 0.0399

                     37                     38                     39
                      A                      A                      A
 Frequencies --    929.3797               943.1025               948.2034
 Red. masses --      6.9513                 8.6500                 1.3608
 Frc consts  --      3.5376                 4.5330                 0.7208
 IR Inten    --     36.5918                46.4476                 0.4480

                     40                     41                     42
                      A                      A                      A
 Frequencies --    971.9702               986.2437               999.3836
 Red. masses --     11.9727                 1.3687                 1.2918
 Frc consts  --      6.6642                 0.7844                 0.7602
 IR Inten    --    436.0169                 1.9107                 0.0595

                     43                     44                     45
                      A                      A                      A
 Frequencies --   1003.2268              1037.3435              1076.3187
 Red. masses --      1.3207                 2.0140                 4.7090
 Frc consts  --      0.7832                 1.2769                 3.2141
 IR Inten    --      1.5722                20.9908               409.8764

                     46                     47                     48
                      A                      A                      A
 Frequencies --   1100.5812              1112.9823              1122.5582
 Red. masses --      3.3200                 2.0852                20.3695
 Frc consts  --      2.3694                 1.5219                15.1233
 IR Inten    --     91.5121                22.0433               597.4226

                     49                     50                     51
                      A                      A                      A
 Frequencies --   1127.4061              1146.0352              1170.0443
 Red. masses --      3.0401                 1.4883                 1.7970
 Frc consts  --      2.2766                 1.1517                 1.4494
 IR Inten    --    117.2953                39.8449                 7.7858

                     52                     53                     54
                      A                      A                      A
 Frequencies --   1192.6466              1199.5234              1229.9996
 Red. masses --      1.7726                 2.0211                 2.5337
 Frc consts  --      1.4855                 1.7134                 2.2584
 IR Inten    --     33.4045                 4.8481                45.5099

                     55                     56                     57
                      A                      A                      A
 Frequencies --   1245.5654              1319.5391              1348.7859
 Red. masses --      2.1763                 5.8177                 2.8591
 Frc consts  --      1.9893                 5.9683                 3.0646
 IR Inten    --    314.7742                19.4685               107.8701

                     58                     59                     60
                      A                      A                      A
 Frequencies --   1366.8883              1382.2825              1431.2642
 Red. masses --     10.6536                 3.3562                 2.4860
 Frc consts  --     11.7276                 3.7782                 3.0004
 IR Inten    --      5.7030               824.1244               475.6180

                     61                     62                     63
                      A                      A                      A
 Frequencies --   1478.3110              1481.3511              1503.5730
 Red. masses --      2.7826                 3.0836                 4.4225
 Frc consts  --      3.5829                 3.9868                 5.8907
 IR Inten    --     39.6306                39.4769               987.0375

                     64                     65                     66
                      A                      A                      A
 Frequencies --   1536.4076              1557.3678              1606.9129
 Red. masses --      7.1786                 5.5094                 8.1770
 Frc consts  --      9.9840                 7.8730                12.4402
 IR Inten    --    195.2551                87.7885                 9.2739

                     67                     68                     69
                      A                      A                      A
 Frequencies --   1611.4135              1629.4945              3158.6106
 Red. masses --      5.5251                 6.1175                 1.0861
 Frc consts  --      8.4528                 9.5704                 6.3845
 IR Inten    --      4.5086                10.1408                15.0763

                     70                     71                     72
                      A                      A                      A
 Frequencies --   3168.4382              3173.0145              3190.7810
 Red. masses --      1.0885                 1.0908                 1.0926
 Frc consts  --      6.4381                 6.4707                 6.5541
 IR Inten    --     24.4817                26.3938                23.2174

                     73                     74                     75
                      A                      A                      A
 Frequencies --   3196.2422              3197.4594              3216.8465
 Red. masses --      1.0927                 1.0925                 1.0904
 Frc consts  --      6.5770                 6.5810                 6.6478
 IR Inten    --     44.3157                13.6700                 5.4035

 - Thermochemistry -
 -------------------
 Temperature   298.150 Kelvin.  Pressure   1.00000 Atm.
 Atom     1 has atomic number  8 and mass  15.99491

 Molecular mass:   287.00142 amu.
 Principal axes and moments of inertia in atomic units:
                           1         2         3
     Eigenvalues --  3001.752587549.31065**********
           X            0.91711  -0.39840  -0.01355
           Y            0.39252   0.90846  -0.14362
           Z            0.06953   0.12640   0.98954
 This molecule is an asymmetric top.
 Rotational symmetry number  1.
 Warning -- assumption of classical behavior for rotation
           may cause significant error
 Rotational temperatures (Kelvin)      0.02885     0.01147     0.00850
 Rotational constants (GHZ):           0.60123     0.23906     0.17713
 Zero-point vibrational energy     470426.9 (Joules/Mol)
                                  112.43472 (Kcal/Mol)
 Warning -- explicit consideration of  25 degrees of freedom as
           vibrations may cause significant error
 Vibrational temperatures:     48.41    67.45   138.90   165.41   191.84
          (Kelvin)            226.81   264.06   305.29   324.67   401.25
                              424.18   448.37   496.55   550.51   570.12
                              599.48   625.13   649.65   709.57   712.26
                              719.07   739.13   815.26   847.13   887.57
                              928.06   941.60   994.53  1011.09  1054.47
                             1073.06  1122.64  1136.55  1176.06  1179.32
                             1268.82  1337.17  1356.91  1364.25  1398.45
                             1418.98  1437.89  1443.42  1492.51  1548.58
                             1583.49  1601.33  1615.11  1622.09  1648.89
                             1683.43  1715.95  1725.85  1769.70  1792.09
                             1898.52  1940.60  1966.65  1988.80  2059.27
                             2126.96  2131.33  2163.31  2210.55  2240.70
                             2311.99  2318.46  2344.48  4544.54  4558.68
                             4565.26  4590.82  4598.68  4600.43  4628.32

 Zero-point correction=                           0.179176 (Hartree/Particle)
 Thermal correction to Energy=                    0.194318
 Thermal correction to Enthalpy=                  0.195262
 Thermal correction to Gibbs Free Energy=         0.135619
 Sum of electronic and zero-point Energies=          -1312.363178
 Sum of electronic and thermal Energies=             -1312.348036
 Sum of electronic and thermal Enthalpies=           -1312.347092
 Sum of electronic and thermal Free Energies=        -1312.406735

                     E (Thermal)             CV                S
                      KCal/Mol        Cal/Mol-Kelvin    Cal/Mol-Kelvin
 Total                  121.936             60.175            125.529
 Electronic               0.000              0.000              1.377
 Translational            0.889              2.981             42.861
 Rotational               0.889              2.981             33.801
 Vibrational            120.159             54.213             47.490
 Vibration     1          0.594              1.983              5.602
 Vibration     2          0.595              1.979              4.945
 Vibration     3          0.603              1.952              3.523
 Vibration     4          0.608              1.937              3.183
 Vibration     5          0.613              1.920              2.897
 Vibration     6          0.621              1.894              2.578
 Vibration     7          0.631              1.862              2.292
 Vibration     8          0.643              1.822              2.025
 Vibration     9          0.650              1.802              1.913
 Vibration    10          0.679              1.713              1.541
 Vibration    11          0.689              1.683              1.446
 Vibration    12          0.700              1.652              1.354
 Vibration    13          0.723              1.585              1.188
 Vibration    14          0.752              1.507              1.029
 Vibration    15          0.763              1.478              0.977
 Vibration    16          0.780              1.434              0.903
 Vibration    17          0.795              1.395              0.844
 Vibration    18          0.810              1.358              0.791
 Vibration    19          0.849              1.265              0.675
 Vibration    20          0.851              1.261              0.671
 Vibration    21          0.855              1.251              0.659
 Vibration    22          0.869              1.220              0.625
 Vibration    23          0.923              1.103              0.511
 Vibration    24          0.946              1.056              0.469
 Vibration    25          0.977              0.996              0.421

                           ! Non-Optimized Parameters !
 Normal termination of Gaussian 16 at Sun Feb 11 00:41:48 2024.
