 Q-Chem 5.4, Q-Chem, Inc., Pleasanton, CA (2021)
 Q-Chem 5.4.0 for Intel X86 EM64T Linux

User input:
--------------------------------------------------------------
$molecule
-2 1
C                 -4.8221630000      0.2338890000     -3.9804780000
C                 -4.2201210000      1.2450870000     -4.6932230000
C                 -3.0891770000      1.9179660000     -4.1875860000
C                 -4.3202360000     -0.1619320000     -2.7121060000
C                 -3.1681240000      0.5166480000     -2.1826480000
C                 -2.5899300000      1.5415290000     -2.9483710000
C                 -4.9471420000     -1.2149950000     -1.9742370000
C                 -4.3568920000     -1.5300560000     -0.7081550000
C                 -3.2419310000     -0.9061070000     -0.1598400000
C                 -2.5918020000      0.1623390000     -0.8754850000
O                 -5.9851970000     -1.8951650000     -2.3527040000
O                 -1.5726580000      0.7660710000     -0.4126450000
O                 -5.0072500000     -2.5491680000     -0.0553580000
O                 -4.6968880000      1.6510640000     -5.9436240000
C                 -2.6873500000     -1.3261090000      1.1776310000
C                 -3.2142170000     -0.4919120000      2.3630570000
C                 -2.6167880000     -0.9143790000      3.7113510000
C                 -3.1304930000     -0.1043000000      4.9086530000
C                 -2.5399250000     -0.5419560000      6.2557920000
C                 -3.0505020000      0.2645170000      7.4566690000
C                 -2.4608850000     -0.1797110000      8.8017020000
C                 -2.9745130000      0.6244210000     10.0029260000
C                 -2.3865430000      0.1767510000     11.3472370000
C                 -2.9031710000      0.9808570000     12.5474520000
C                 -2.3153930000      0.5318850000     13.8885430000
H                 -5.6949750000     -0.2912180000     -4.3626680000
H                 -2.6345280000      2.7121730000     -4.7703960000
H                 -1.7220590000      2.0381720000     -2.5268010000
H                 -5.7166220000     -2.7524200000     -0.7121890000
H                 -5.4638530000      1.1036760000     -6.1394320000
H                 -1.5975310000     -1.2143360000      1.1423400000
H                 -2.9207400000     -2.3818770000      1.3581900000
H                 -4.3068970000     -0.5799170000      2.4035250000
H                 -2.9837550000      0.5615380000      2.1705970000
H                 -1.5227710000     -0.8269820000      3.6614190000
H                 -2.8290300000     -1.9793940000      3.8825590000
H                 -4.2251770000     -0.1820530000      4.9532190000
H                 -2.9094420000      0.9587350000      4.7450870000
H                 -1.4451670000     -0.4656400000      6.2104870000
H                 -2.7613970000     -1.6057290000      6.4169490000
H                 -4.1453330000      0.1904210000      7.5014090000
H                 -2.8265250000      1.3278700000      7.2983650000
H                 -1.3661750000     -0.1039620000      8.7587200000
H                 -2.6831020000     -1.2436180000      8.9591990000
H                 -4.0693240000      0.5494350000     10.0454690000
H                 -2.7505190000      1.6882060000      9.8474820000
H                 -1.2919710000      0.2527580000     11.3083970000
H                 -2.6093240000     -0.8866810000     11.5050370000
H                 -3.9974260000      0.9053060000     12.5872100000
H                 -2.6807430000      2.0442250000     12.3911810000
H                 -2.5533340000     -0.5170680000     14.0994970000
H                 -2.7055910000      1.1266260000     14.7215920000
H                 -1.2239610000      0.6319430000     13.9017170000
$end
$rem
MAX_SCF_CYCLES=200
SCF_Guess=core
BASIS  =  6-311++G(d,p)
GUI  =  2
JOB_TYPE  =  SP
METHOD  =  B3LYP
THRESH = 14
SCF_CONVERGENCE = 8
SOLVENT_METHOD = COSMO
$end
$solvent
dielectric 37.219
opticaldielectric 1.43
$end

--------------------------------------------------------------

             Standard Nuclear Orientation (Angstroms)
    I     Atom           X                Y                Z
 ----------------------------------------------------------------
    1      C       6.4591433748    -0.1537398102    -0.8211892146
    2      C       7.1012427073     1.0628692412    -0.7976889344
    3      C       6.4774045255     2.2043148130    -0.2541843943
    4      C       5.1465238644    -0.2947700713    -0.2972493379
    5      C       4.4967558667     0.8613747126     0.2588886291
    6      C       5.1939938122     2.0799311518     0.2596169721
    7      C       4.4821947102    -1.5614555997    -0.3212914456
    8      C       3.1623039779    -1.5870722610     0.2335548110
    9      C       2.4978722892    -0.4979604036     0.7862442524
   10      C       3.1376101525     0.7927822197     0.8195801852
   11      O       4.9698478711    -2.6669896363    -0.7939600086
   12      O       2.5683027607     1.8187458467     1.3101466087
   13      O       2.5849172639    -2.8326014455     0.1789622030
   14      O       8.3933156872     1.2248347647    -1.3075333632
   15      C       1.1110977628    -0.6353656394     1.3613674180
   16      C      -0.0154588145    -0.2834619637     0.3685218343
   17      C      -1.4174821436    -0.4007070463     0.9799796513
   18      C      -2.5571447086    -0.0628202483     0.0101061328
   19      C      -3.9572462647    -0.1964710164     0.6240686129
   20      C      -5.1007794741     0.1398328212    -0.3415527775
   21      C      -6.4986637574     0.0002563054     0.2753251849
   22      C      -7.6422137887     0.3329359176    -0.6916281208
   23      C      -9.0391951815     0.1896197395    -0.0742200906
   24      C     -10.1814270282     0.5207352523    -1.0435889168
   25      C     -11.5751814770     0.3764094178    -0.4253636387
   26      H       6.9326206144    -1.0400325576    -1.2382165691
   27      H       7.0065106739     3.1514989702    -0.2490051802
   28      H       4.6819725728     2.9372432653     0.6843825516
   29      H       3.3132419980    -3.3438754947    -0.2500936218
   30      H       8.6704165570     0.3652187928    -1.6399264968
   31      H       1.0314908180     0.0429652974     2.2186736558
   32      H       0.9597353156    -1.6611391744     1.7171715480
   33      H       0.0592160672    -0.9435818378    -0.5044028676
   34      H       0.1480541922     0.7394988527     0.0125370702
   35      H      -1.4828833813     0.2601753136     1.8551720993
   36      H      -1.5617308291    -1.4224317474     1.3593037187
   37      H      -2.4863711195    -0.7156067973    -0.8703627978
   38      H      -2.4214128076     0.9614853272    -0.3614254694
   39      H      -4.0272876338     0.4551869152     1.5054356762
   40      H      -4.0905357108    -1.2214809588     0.9958521017
   41      H      -5.0301763895    -0.5099582379    -1.2241249204
   42      H      -4.9705885386     1.1656570076    -0.7112560565
   43      H      -6.5710082661     0.6512726211     1.1567554862
   44      H      -6.6282348009    -1.0250474123     0.6468725385
   45      H      -7.5694247987    -0.3174647826    -1.5735150892
   46      H      -7.5148703648     1.3589639043    -1.0617968638
   47      H      -9.1156452515     0.8405342984     0.8065971985
   48      H      -9.1690100682    -0.8356025134     0.2965726546
   49      H     -10.1059247450    -0.1296798837    -1.9244647386
   50      H     -10.0530954469     1.5456243394    -1.4147758084
   51      H     -11.7563177392    -0.6478493325    -0.0796707508
   52      H     -12.3647983136     0.6202375543    -1.1443873266
   53      H     -11.7031136985     1.0428468421     0.4353938617
 ----------------------------------------------------------------

   53   -1118.3483355718      7.48e-09  Convergence criterion met
 Total energy in the final basis set =    -1118.3483355718
   12   -1118.6019224970      7.18e-09  Convergence criterion met
 Total energy in the final basis set =    -1118.6019224970

                    Orbital Energies (a.u.)
 --------------------------------------------------------------

 Alpha MOs
 -- Occupied --
-19.1394 -19.1143 -19.0291 -19.0230 -10.2112 -10.1780 -10.1763 -10.1613
-10.1571 -10.1546 -10.1543 -10.1539 -10.1534 -10.1526 -10.1512 -10.1508
-10.1507 -10.1484 -10.1454 -10.1434 -10.1422 -10.1395 -10.1392 -10.1321
-10.1220  -1.0422  -1.0290  -0.9474  -0.9361  -0.8268  -0.8055  -0.7924
 -0.7773  -0.7612  -0.7398  -0.7247  -0.7151  -0.6904  -0.6609  -0.6352
 -0.6167  -0.6023  -0.5842  -0.5710  -0.5677  -0.5637  -0.5585  -0.5400
 -0.5239  -0.4898  -0.4785  -0.4668  -0.4590  -0.4504  -0.4441  -0.4368
 -0.4274  -0.4184  -0.4172  -0.4104  -0.4049  -0.4021  -0.3950  -0.3927
 -0.3866  -0.3814  -0.3753  -0.3721  -0.3662  -0.3629  -0.3592  -0.3540
 -0.3457  -0.3427  -0.3356  -0.3320  -0.3284  -0.3219  -0.3192  -0.3163
 -0.3149  -0.3138  -0.3120  -0.3118  -0.3067  -0.3052  -0.2910  -0.2874
 -0.2325  -0.2190  -0.2162  -0.2004  -0.1900  -0.1090

          Ground-State Mulliken Net Atomic Charges

     Atom                 Charge (a.u.)
  ----------------------------------------
      1 C                     0.171340
      2 C                    -0.705797
      3 C                    -0.227874
      4 C                     0.583019
      5 C                    -0.355089
      6 C                    -0.031185
      7 C                    -0.860368
      8 C                    -0.750229
      9 C                     1.928328
     10 C                    -0.671959
     11 O                    -0.776768
     12 O                    -0.669716
     13 O                    -0.352774
     14 O                    -0.346215
     15 C                    -0.211275
     16 C                    -0.884989
     17 C                    -0.356729
     18 C                    -0.038838
     19 C                     0.018909
     20 C                     0.031976
     21 C                    -0.062134
     22 C                    -0.296820
     23 C                    -0.496445
     24 C                    -0.295545
     25 C                    -0.716245
     26 H                     0.149318
     27 H                     0.199109
     28 H                     0.162012
     29 H                     0.294788
     30 H                     0.312924
     31 H                     0.174995
     32 H                     0.202209
     33 H                     0.161145
     34 H                     0.183910
     35 H                     0.116105
     36 H                     0.112243
     37 H                     0.128832
     38 H                     0.127959
     39 H                     0.136549
     40 H                     0.135359
     41 H                     0.134076
     42 H                     0.133944
     43 H                     0.133496
     44 H                     0.133080
     45 H                     0.131530
     46 H                     0.132291
     47 H                     0.129278
     48 H                     0.129338
     49 H                     0.136270
     50 H                     0.136432
     51 H                     0.145820
     52 H                     0.154652
     53 H                     0.145759
  ----------------------------------------
  Sum of atomic charges =    -2.000000

                    Cartesian Multipole Moments
 -----------------------------------------------------------------
    Charge (ESU x 10^10)
                -9.6064
    Dipole Moment (Debye)
         X     -37.6934      Y       1.9099      Z      -2.3904
       Tot      37.8174
    Quadrupole Moments (Debye-Ang)
        XX    -342.5505     XY       8.4361     YY    -206.4401
        XZ       1.5532     YZ      -9.3061     ZZ    -174.5261

 Total job time:  1258.21s(wall), 9852.60s(cpu)
        *  Thank you very much for using Q-Chem.  Have a nice day.  *
