 Q-Chem 5.4, Q-Chem, Inc., Pleasanton, CA (2021)
 Q-Chem 5.4.0 for Intel X86 EM64T Linux

User input:
--------------------------------------------------------------
$molecule
-2 1
C                  1.6782440000      0.9249320000     -0.6743680000
C                  0.6226150000      1.5665640000      0.0464740000
C                 -0.5309910000      0.9137550000      0.4756560000
C                 -0.7764790000     -0.4766100000      0.2432490000
C                  0.2851340000     -1.1590550000     -0.4567230000
C                  1.4382700000     -0.4836150000     -0.8832860000
O                  2.7310050000      1.5497260000     -1.1074940000
O                 -1.8573360000     -1.0815540000      0.6364230000
C                  0.1086000000     -2.6346710000     -0.7119780000
O                  2.3647550000     -1.2222900000     -1.6380100000
C                  3.6768620000     -1.2582470000     -1.0926170000
H                  0.7500360000      2.6338950000      0.2316010000
H                 -1.3028550000      1.4640080000      1.0152570000
H                 -0.4743460000     -3.0709940000      0.1068800000
H                  1.0704850000     -3.1470860000     -0.8161610000
H                 -0.4635340000     -2.8318790000     -1.6332460000
H                  4.3014840000     -1.8300140000     -1.7907600000
H                  3.6828860000     -1.7806420000     -0.1198330000
H                  4.0652750000     -0.2429120000     -0.9732560000
$end
$rem
MAX_SCF_CYCLES=200
BASIS  =  6-311++G(d,p)
GUI  =  2
JOB_TYPE  =  SP
METHOD  =  B3LYP
SOLVENT_METHOD = COSMO
$end
$solvent
dielectric 37.219
opticaldielectric 1.43
$end

--------------------------------------------------------------

             Standard Nuclear Orientation (Angstroms)
    I     Atom           X                Y                Z
 ----------------------------------------------------------------
    1      C       0.8777033467    -1.2147823981     0.1178420893
    2      C      -0.2856630746    -2.0264138314    -0.0651616928
    3      C      -1.5799701770    -1.5176776349    -0.1495429093
    4      C      -1.8792697861    -0.1208547003    -0.0677038083
    5      C      -0.7219411386     0.7272122639     0.0874959542
    6      C       0.5734752243     0.1957556962     0.1732175059
    7      O       2.0763108771    -1.6998313252     0.2375873349
    8      O      -3.0881455584     0.3508930820    -0.1374769339
    9      C      -0.9583014380     2.2150690364     0.1521332569
   10      O       1.6176064189     1.1031265305     0.4183536816
   11      C       2.6490052370     1.0958755918    -0.5596724488
   12      H      -0.1151225813    -3.1027036211    -0.1122765491
   13      H      -2.4261494703    -2.1930627042    -0.2820466807
   14      H      -1.8314815335     2.4644164020    -0.4611485997
   15      H      -0.0810168811     2.7807255547    -0.1780946834
   16      H      -1.1953829909     2.5545489605     1.1736560200
   17      H       3.4102460486     1.8152912938    -0.2319114566
   18      H       2.2625641457     1.4275417974    -1.5394185109
   19      H       3.0799401996     0.0946318759    -0.6481198827
 ----------------------------------------------------------------

   13    -535.4148301724      5.22e-06  Convergence criterion met
 Total energy in the final basis set =     -535.4148301724
    5    -535.7187811009      9.86e-06  Convergence criterion met
 Total energy in the final basis set =     -535.7187811009

                    Orbital Energies (a.u.)
 --------------------------------------------------------------

 Alpha MOs
 -- Occupied --
-19.1118 -19.0181 -19.0178 -10.1880 -10.1745 -10.1688 -10.1670 -10.1351
-10.1290 -10.1204 -10.1182  -1.0203  -0.9298  -0.9273  -0.7805  -0.7251
 -0.6851  -0.6350  -0.6285  -0.5444  -0.5250  -0.4653  -0.4491  -0.4340
 -0.4173  -0.4058  -0.3872  -0.3766  -0.3664  -0.3572  -0.3441  -0.3319
 -0.3234  -0.3138  -0.3085  -0.2631  -0.2268  -0.2016  -0.1975  -0.1937
 -0.1192

          Ground-State Mulliken Net Atomic Charges

     Atom                 Charge (a.u.)
  ----------------------------------------
      1 C                     0.059261
      2 C                    -0.196797
      3 C                     0.078623
      4 C                    -1.116073
      5 C                     1.714481
      6 C                    -1.313008
      7 O                    -0.780089
      8 O                    -0.775202
      9 C                    -0.306505
     10 O                    -0.252811
     11 C                    -0.286238
     12 H                     0.146666
     13 H                     0.138965
     14 H                     0.142270
     15 H                     0.150272
     16 H                     0.156193
     17 H                     0.146376
     18 H                     0.119868
     19 H                     0.173748
  ----------------------------------------
  Sum of atomic charges =    -2.000000

                    Cartesian Multipole Moments
 -----------------------------------------------------------------
    Charge (ESU x 10^10)
                -9.6064
    Dipole Moment (Debye)
         X       5.0537      Y       5.7383      Z      -1.7733
       Tot       7.8493
    Quadrupole Moments (Debye-Ang)
        XX    -129.6267     XY      17.4089     YY     -89.4683
        XZ      -6.8580     YZ       0.1761     ZZ     -75.3370

 Total job time:  26.26s(wall), 193.47s(cpu)
        *  Thank you very much for using Q-Chem.  Have a nice day.  *
