 Q-Chem 5.4, Q-Chem, Inc., Pleasanton, CA (2021)
 Q-Chem 5.4.0 for Intel X86 EM64T Linux

User input:
--------------------------------------------------------------
$molecule
0 1
O                  0.0959190000      2.9134330000      0.8807940000
C                  0.0577340000      1.7533670000      0.5300940000
C                  1.2162720000      0.8256960000      0.3147210000
C                  2.5726860000      1.0655720000      0.4611840000
C                  3.4633710000      0.0196830000      0.1956910000
C                  2.9843400000     -1.2284580000     -0.2056790000
C                  1.6116430000     -1.4673730000     -0.3527670000
C                  0.7271970000     -0.4302490000     -0.0895670000
C                 -0.7533810000     -0.3631120000     -0.1505200000
C                 -1.7030690000     -1.3170030000     -0.4893060000
C                 -3.0562880000     -0.9543770000     -0.4543160000
C                 -3.4518490000      0.3330520000     -0.0888540000
C                 -2.4949980000      1.2953610000      0.2527730000
C                 -1.1584870000      0.9334370000      0.2170630000
H                  2.9249480000      2.0420840000      0.7739770000
H                  4.5306370000      0.1761350000      0.3012420000
H                  3.6876360000     -2.0287830000     -0.4076140000
H                  1.2595770000     -2.4439870000     -0.6655570000
H                 -1.4167550000     -2.3226590000     -0.7759910000
H                 -3.8098350000     -1.6888460000     -0.7163640000
H                 -4.5055650000      0.5861090000     -0.0703920000
H                 -2.7817330000      2.3009160000      0.5393900000
$end

$rem
BASIS  =  6-311++G(d,p)
GUI  =  2
JOB_TYPE  =  SP
METHOD  =  B3LYP
SCF_CONVERGENCE  = 8
SOLVENT_METHOD = sm12
$end

$smx
solvent dimethylformamide
charges CM5
$end

--------------------------------------------------------------

             Standard Nuclear Orientation (Angstroms)
    I     Atom           X                Y                Z
 ----------------------------------------------------------------
    1      O       0.0959190000     2.9134330000     0.8807940000
    2      C       0.0577340000     1.7533670000     0.5300940000
    3      C       1.2162720000     0.8256960000     0.3147210000
    4      C       2.5726860000     1.0655720000     0.4611840000
    5      C       3.4633710000     0.0196830000     0.1956910000
    6      C       2.9843400000    -1.2284580000    -0.2056790000
    7      C       1.6116430000    -1.4673730000    -0.3527670000
    8      C       0.7271970000    -0.4302490000    -0.0895670000
    9      C      -0.7533810000    -0.3631120000    -0.1505200000
   10      C      -1.7030690000    -1.3170030000    -0.4893060000
   11      C      -3.0562880000    -0.9543770000    -0.4543160000
   12      C      -3.4518490000     0.3330520000    -0.0888540000
   13      C      -2.4949980000     1.2953610000     0.2527730000
   14      C      -1.1584870000     0.9334370000     0.2170630000
   15      H       2.9249480000     2.0420840000     0.7739770000
   16      H       4.5306370000     0.1761350000     0.3012420000
   17      H       3.6876360000    -2.0287830000    -0.4076140000
   18      H       1.2595770000    -2.4439870000    -0.6655570000
   19      H      -1.4167550000    -2.3226590000    -0.7759910000
   20      H      -3.8098350000    -1.6888460000    -0.7163640000
   21      H      -4.5055650000     0.5861090000    -0.0703920000
   22      H      -2.7817330000     2.3009160000     0.5393900000
 ----------------------------------------------------------------

   14    -575.5791679383      3.73e-09  Convergence criterion met
 Total energy in the final basis set =     -575.5996143176

                    Orbital Energies (a.u.)
 --------------------------------------------------------------

 Alpha MOs
 -- Occupied --
-19.1308 -10.2756 -10.2048 -10.2046 -10.1966 -10.1966 -10.1950 -10.1949
-10.1936 -10.1935 -10.1923 -10.1923 -10.1900 -10.1900  -1.0614  -0.9060
 -0.8678  -0.8149  -0.7800  -0.7645  -0.7373  -0.6801  -0.6465  -0.6084
 -0.5961  -0.5751  -0.5237  -0.5187  -0.4940  -0.4654  -0.4652  -0.4527
 -0.4456  -0.4453  -0.4424  -0.4331  -0.3858  -0.3857  -0.3800  -0.3773
 -0.3646  -0.3560  -0.3061  -0.2799  -0.2727  -0.2719  -0.2417

          Ground-State Mulliken Net Atomic Charges

     Atom                 Charge (a.u.)
  ----------------------------------------
      1 O                    -0.321937
      2 C                    -1.038721
      3 C                    -0.554162
      4 C                    -0.143031
      5 C                     0.140125
      6 C                     0.336598
      7 C                     0.124163
      8 C                    -0.304100
      9 C                    -0.302165
     10 C                     0.125821
     11 C                     0.340503
     12 C                     0.140052
     13 C                    -0.144007
     14 C                    -0.546471
     15 H                     0.203934
     16 H                     0.296966
     17 H                     0.322879
     18 H                     0.249557
     19 H                     0.249859
     20 H                     0.323064
     21 H                     0.297142
     22 H                     0.203932
  ----------------------------------------
  Sum of atomic charges =     0.000000

                    Cartesian Multipole Moments
 -----------------------------------------------------------------
    Charge (ESU x 10^10)
                 0.0000
    Dipole Moment (Debye)
         X      -0.1488      Y      -4.4035      Z      -1.3313
       Tot       4.6028
    Quadrupole Moments (Debye-Ang)
        XX     -60.8325     XY      -1.0874     YY     -84.5734
        XZ       1.0145     YZ       0.1635     ZZ     -85.1982

 Total job time:  350.63s(wall), 2407.70s(cpu)
        *  Thank you very much for using Q-Chem.  Have a nice day.  *
