 Q-Chem 5.4, Q-Chem, Inc., Pleasanton, CA (2021)
 Q-Chem 5.4.0 for Intel X86 EM64T Linux

User input:
--------------------------------------------------------------
$molecule
-1 2
C                 -4.0962640000      3.6185530000      1.5406020000
C                 -4.5738490000      3.8342000000      0.2593170000
C                 -3.9805760000      3.1857550000     -0.8413480000
C                 -2.9097360000      2.3271780000     -0.6224070000
C                 -2.4027800000      2.0871050000      0.6582430000
C                 -3.0119950000      2.7496350000      1.7654290000
C                 -2.5161670000      2.5277040000      3.1102000000
C                 -1.4006070000      1.6196940000      3.2437410000
C                 -0.8028910000      0.9739560000      2.1874480000
C                 -1.2574150000      1.1610900000      0.8377290000
O                 -2.9868920000      3.0678110000      4.1655630000
O                 -0.7291590000      0.5833600000     -0.1448130000
O                 -0.9785550000      1.4502910000      4.5274560000
O                 -5.6434650000      4.7066220000      0.1449990000
C                 -6.1655030000      4.9583750000     -1.1417930000
H                 -4.5544160000      4.1184590000      2.3852300000
H                 -4.3420620000      3.3434830000     -1.8494360000
H                 -2.4340670000      1.8148560000     -1.4513800000
H                  0.0327000000      0.3034750000      2.3553760000
H                 -1.5942860000      2.0320650000      5.0245200000
H                 -6.9880700000      5.6614630000     -1.0023170000
H                 -6.5513500000      4.0455590000     -1.6136910000
H                 -5.4178460000      5.4099030000     -1.8065690000
$end

$rem
BASIS  =  6-311++G(d,p)
GUI  =  2
JOB_TYPE  =  SP
METHOD  =  B3LYP
SCF_CONVERGENCE  = 8
SOLVENT_METHOD = sm12
$end

$smx
solvent dimethylformamide
charges CM5
$end

--------------------------------------------------------------

             Standard Nuclear Orientation (Angstroms)
    I     Atom           X                Y                Z
 ----------------------------------------------------------------
    1      C      -4.0962640000     3.6185530000     1.5406020000
    2      C      -4.5738490000     3.8342000000     0.2593170000
    3      C      -3.9805760000     3.1857550000    -0.8413480000
    4      C      -2.9097360000     2.3271780000    -0.6224070000
    5      C      -2.4027800000     2.0871050000     0.6582430000
    6      C      -3.0119950000     2.7496350000     1.7654290000
    7      C      -2.5161670000     2.5277040000     3.1102000000
    8      C      -1.4006070000     1.6196940000     3.2437410000
    9      C      -0.8028910000     0.9739560000     2.1874480000
   10      C      -1.2574150000     1.1610900000     0.8377290000
   11      O      -2.9868920000     3.0678110000     4.1655630000
   12      O      -0.7291590000     0.5833600000    -0.1448130000
   13      O      -0.9785550000     1.4502910000     4.5274560000
   14      O      -5.6434650000     4.7066220000     0.1449990000
   15      C      -6.1655030000     4.9583750000    -1.1417930000
   16      H      -4.5544160000     4.1184590000     2.3852300000
   17      H      -4.3420620000     3.3434830000    -1.8494360000
   18      H      -2.4340670000     1.8148560000    -1.4513800000
   19      H       0.0327000000     0.3034750000     2.3553760000
   20      H      -1.5942860000     2.0320650000     5.0245200000
   21      H      -6.9880700000     5.6614630000    -1.0023170000
   22      H      -6.5513500000     4.0455590000    -1.6136910000
   23      H      -5.4178460000     5.4099030000    -1.8065690000
 ----------------------------------------------------------------

   18    -725.1441400284      6.53e-09  Convergence criterion met
 Total energy in the final basis set =     -725.2338642611

                    Orbital Energies (a.u.)
 --------------------------------------------------------------

 Alpha MOs
 -- Occupied --
-19.1558 -19.1478 -19.0874 -19.0739 -10.2407 -10.2294 -10.2283 -10.2217
-10.2189 -10.1843 -10.1819 -10.1811 -10.1749 -10.1731 -10.1594  -1.0679
 -1.0672  -0.9990  -0.9967  -0.8647  -0.8059  -0.7657  -0.7467  -0.7029
 -0.6739  -0.6312  -0.6059  -0.5796  -0.5467  -0.5270  -0.4919  -0.4858
 -0.4824  -0.4677  -0.4418  -0.4358  -0.4332  -0.4209  -0.4138  -0.4064
 -0.3913  -0.3904  -0.3754  -0.3652  -0.3555  -0.3551  -0.3329  -0.3170
 -0.2713  -0.2599  -0.2494  -0.2391  -0.2307  -0.1535

 Beta MOs
 -- Occupied --
-19.1556 -19.1473 -19.0802 -19.0688 -10.2408 -10.2282 -10.2275 -10.2189
-10.2188 -10.1842 -10.1822 -10.1805 -10.1740 -10.1722 -10.1584  -1.0677
 -1.0650  -0.9902  -0.9846  -0.8626  -0.8013  -0.7640  -0.7449  -0.7008
 -0.6653  -0.6297  -0.6033  -0.5773  -0.5455  -0.5253  -0.4894  -0.4840
 -0.4809  -0.4672  -0.4403  -0.4327  -0.4221  -0.4197  -0.4098  -0.4024
 -0.3886  -0.3853  -0.3637  -0.3604  -0.3530  -0.3387  -0.3325  -0.3089
 -0.2560  -0.2534  -0.2341  -0.2333  -0.2256

          Ground-State Mulliken Net Atomic Charges

     Atom                 Charge (a.u.)    Spin (a.u.)
  --------------------------------------------------------
      1 C                     0.231896       0.100602
      2 C                     0.936966      -0.012440
      3 C                     2.255920       0.056478
      4 C                     0.067117      -0.016377
      5 C                    -1.759111       0.055818
      6 C                    -0.592383       0.008493
      7 C                    -1.307542       0.150697
      8 C                    -0.347837       0.092795
      9 C                    -0.050494       0.087465
     10 C                    -1.474298       0.025632
     11 O                    -0.361892       0.266667
     12 O                    -0.362793       0.185189
     13 O                    -0.172482       0.017812
     14 O                    -0.120967       0.002884
     15 C                     0.171154       0.001017
     16 H                     0.173736      -0.006962
     17 H                     0.420926      -0.003634
     18 H                     0.166589      -0.000314
     19 H                     0.140521      -0.008071
     20 H                     0.291417      -0.003692
     21 H                     0.306966       0.000040
     22 H                     0.193390      -0.000047
     23 H                     0.193202      -0.000054
  --------------------------------------------------------
  Sum of atomic charges =    -1.000000

                    Cartesian Multipole Moments
 -----------------------------------------------------------------
    Charge (ESU x 10^10)
                -4.8032
    Dipole Moment (Debye)
         X       7.4261      Y      -7.7420      Z     -11.1981
       Tot      15.5075
    Quadrupole Moments (Debye-Ang)
        XX    -106.8178     XY      16.7315     YY    -110.8830
        XZ      33.4466     YZ     -32.8629     ZZ    -128.4134

 Total job time:  444.74s(wall), 3235.73s(cpu)
        *  Thank you very much for using Q-Chem.  Have a nice day.  *
