 Q-Chem 5.4, Q-Chem, Inc., Pleasanton, CA (2021)
 Q-Chem 5.4.0 for Intel X86 EM64T Linux

User input:
--------------------------------------------------------------
$molecule
-3 1
O                  1.5213360000     -2.9245250000     -0.3632300000
C                  1.4724790000     -1.5579420000     -0.1847640000
C                  2.7065900000     -0.9273480000     -0.0478720000
O                  3.8169660000     -1.7503210000     -0.1107020000
C                  2.7877200000      0.4670810000      0.1787800000
C                  1.6158680000      1.1940260000      0.2534290000
C                  0.3482570000      0.5883100000      0.1059850000
C                 -0.8276380000      1.4583250000      0.2068220000
O                 -0.7264850000      2.7075860000      0.4116050000
C                 -2.1152410000      0.8045770000      0.0437500000
C                 -3.3049410000      1.5723770000      0.0990000000
C                 -4.5552510000      0.9989710000     -0.0297700000
C                 -4.6631890000     -0.4027970000     -0.2224970000
C                 -3.5170260000     -1.1710600000     -0.2987260000
C                 -2.2210130000     -0.6084670000     -0.1894860000
C                 -1.0573180000     -1.4877810000     -0.3041130000
O                 -1.2005650000     -2.7283880000     -0.5257750000
C                  0.2436860000     -0.8376620000     -0.1313940000
S                  4.4147200000      1.2759780000      0.2875670000
O                  4.7917930000      1.7339830000     -1.0773390000
O                  4.3191490000      2.3719410000      1.2813800000
O                  5.3266330000      0.1502280000      0.7597130000
H                  2.4662900000     -3.1306400000     -0.3076820000
H                  4.5817660000     -1.2011370000      0.2195840000
H                  1.6383240000      2.2609500000      0.4354960000
H                 -3.1898700000      2.6404900000      0.2522760000
H                 -5.4560950000      1.6100360000      0.0204120000
H                 -5.6472750000     -0.8626880000     -0.3119160000
H                 -3.5696700000     -2.2441020000     -0.4505350000
$end
$rem
MAX_SCF_CYCLES=200
BASIS  =  6-311++G(d,p)
GUI  =  2
JOB_TYPE  =  SP
METHOD  =  B3LYP
SOLVENT_METHOD = PCM
$end
$pcm
theory = CPCM
$end
$solvent
dielectric 37.219
opticaldielectric 1.43
$end

--------------------------------------------------------------

             Standard Nuclear Orientation (Angstroms)
    I     Atom           X                Y                Z
 ----------------------------------------------------------------
    1      O       1.5213360000    -2.9245250000    -0.3632300000
    2      C       1.4724790000    -1.5579420000    -0.1847640000
    3      C       2.7065900000    -0.9273480000    -0.0478720000
    4      O       3.8169660000    -1.7503210000    -0.1107020000
    5      C       2.7877200000     0.4670810000     0.1787800000
    6      C       1.6158680000     1.1940260000     0.2534290000
    7      C       0.3482570000     0.5883100000     0.1059850000
    8      C      -0.8276380000     1.4583250000     0.2068220000
    9      O      -0.7264850000     2.7075860000     0.4116050000
   10      C      -2.1152410000     0.8045770000     0.0437500000
   11      C      -3.3049410000     1.5723770000     0.0990000000
   12      C      -4.5552510000     0.9989710000    -0.0297700000
   13      C      -4.6631890000    -0.4027970000    -0.2224970000
   14      C      -3.5170260000    -1.1710600000    -0.2987260000
   15      C      -2.2210130000    -0.6084670000    -0.1894860000
   16      C      -1.0573180000    -1.4877810000    -0.3041130000
   17      O      -1.2005650000    -2.7283880000    -0.5257750000
   18      C       0.2436860000    -0.8376620000    -0.1313940000
   19      S       4.4147200000     1.2759780000     0.2875670000
   20      O       4.7917930000     1.7339830000    -1.0773390000
   21      O       4.3191490000     2.3719410000     1.2813800000
   22      O       5.3266330000     0.1502280000     0.7597130000
   23      H       2.4662900000    -3.1306400000    -0.3076820000
   24      H       4.5817660000    -1.2011370000     0.2195840000
   25      H       1.6383240000     2.2609500000     0.4354960000
   26      H      -3.1898700000     2.6404900000     0.2522760000
   27      H      -5.4560950000     1.6100360000     0.0204120000
   28      H      -5.6472750000    -0.8626880000    -0.3119160000
   29      H      -3.5696700000    -2.2441020000    -0.4505350000
 ----------------------------------------------------------------

    9   -1463.1606728178      6.97e-06  Convergence criterion met
 Total energy in the final basis set =    -1463.1606728178

                    Orbital Energies (a.u.)
 --------------------------------------------------------------

 Alpha MOs
 -- Occupied --
-89.0477 -19.1294 -19.1276 -19.0942 -19.0936 -19.0911 -19.0248 -19.0163
-10.2102 -10.2091 -10.1794 -10.1782 -10.1777 -10.1543 -10.1479 -10.1473
-10.1461 -10.1455 -10.1447 -10.1417 -10.1348 -10.1344  -8.1065  -6.0695
 -6.0691  -6.0678  -1.1085  -1.0552  -1.0217  -0.9749  -0.9681  -0.9505
 -0.9438  -0.8315  -0.8227  -0.7568  -0.7254  -0.7210  -0.7104  -0.6516
 -0.6242  -0.6062  -0.5829  -0.5687  -0.5479  -0.5310  -0.5088  -0.4954
 -0.4752  -0.4636  -0.4547  -0.4540  -0.4466  -0.4306  -0.4177  -0.4053
 -0.3998  -0.3945  -0.3875  -0.3755  -0.3706  -0.3641  -0.3606  -0.3516
 -0.3412  -0.3375  -0.3351  -0.3297  -0.3249  -0.3213  -0.3090  -0.3047
 -0.2988  -0.2877  -0.2839  -0.2590  -0.2303  -0.2263  -0.2176  -0.2051
 -0.1990  -0.1928  -0.0999

          Ground-State Mulliken Net Atomic Charges

     Atom                 Charge (a.u.)
  ----------------------------------------
      1 O                    -0.311364
      2 C                    -0.367410
      3 C                    -0.755696
      4 O                    -0.450987
      5 C                    -0.348805
      6 C                    -0.188884
      7 C                     0.683628
      8 C                    -0.506647
      9 O                    -0.642451
     10 C                     0.329488
     11 C                    -0.059534
     12 C                    -0.550148
     13 C                    -0.606825
     14 C                    -0.006609
     15 C                     0.049544
     16 C                    -0.356582
     17 O                    -0.666275
     18 C                     0.571037
     19 S                     0.890267
     20 O                    -0.319605
     21 O                    -0.373337
     22 O                    -0.504390
     23 H                     0.316578
     24 H                     0.384546
     25 H                     0.161756
     26 H                     0.140724
     27 H                     0.173056
     28 H                     0.171126
     29 H                     0.143798
  ----------------------------------------
  Sum of atomic charges =    -3.000001

                    Cartesian Multipole Moments
 -----------------------------------------------------------------
    Charge (ESU x 10^10)
               -14.4096
    Dipole Moment (Debye)
         X     -15.1265      Y      -4.8198      Z      -0.3136
       Tot      15.8790
    Quadrupole Moments (Debye-Ang)
        XX    -289.3121     XY     -36.8131     YY    -219.6508
        XZ      -7.0043     YZ     -12.4001     ZZ    -157.2838

 Total job time:  76.80s(wall), 484.86s(cpu)
        *  Thank you very much for using Q-Chem.  Have a nice day.  *
