 Gaussian 16, Revision A.03,
 Gaussian 16:  ES64L-G16RevA.03 25-Dec-2016

 --------------------------------------
 #P UB3LYP/6-311++G(d,p) nosym opt freq
 --------------------------------------

 -------
 Reduced
 -------
 Symbolic Z-matrix:
 Charge = -3 Multiplicity = 1

 SCF Done:  E(UB3LYP) =  -1462.65742503     A.U. after   37 cycles
 SCF Done:  E(UB3LYP) =  -1462.65799890     A.U. after   26 cycles
 SCF Done:  E(UB3LYP) =  -1462.65695198     A.U. after   26 cycles
 SCF Done:  E(UB3LYP) =  -1462.65806110     A.U. after   25 cycles
 SCF Done:  E(UB3LYP) =  -1462.65818692     A.U. after   24 cycles
 SCF Done:  E(UB3LYP) =  -1462.65818768     A.U. after   24 cycles
 SCF Done:  E(UB3LYP) =  -1462.65819850     A.U. after   25 cycles
 SCF Done:  E(UB3LYP) =  -1462.65819962     A.U. after   27 cycles
 Optimization completed.
    -- Stationary point found.
 Normal termination of Gaussian 16 at Sun Jan  7 06:05:48 2024.

 ----------------------------------------------------------------------
 #P Geom=AllCheck Guess=TCheck SCRF=Check GenChk UB3LYP/6-311++G(d,p) F
 req
 ----------------------------------------------------------------------

 Structure from the checkpoint file:  "190-an.chk"
 -------
 Reduced
 -------
 Charge = -3 Multiplicity = 1

                          Input orientation:
 ---------------------------------------------------------------------
 Center     Atomic      Atomic             Coordinates (Angstroms)
 Number     Number       Type             X           Y           Z
 ---------------------------------------------------------------------
      1          8           0        1.521336   -2.924525   -0.363230
      2          6           0        1.472479   -1.557942   -0.184764
      3          6           0        2.706590   -0.927348   -0.047872
      4          8           0        3.816966   -1.750321   -0.110702
      5          6           0        2.787720    0.467081    0.178780
      6          6           0        1.615868    1.194026    0.253429
      7          6           0        0.348257    0.588310    0.105985
      8          6           0       -0.827638    1.458325    0.206822
      9          8           0       -0.726485    2.707586    0.411605
     10          6           0       -2.115241    0.804577    0.043750
     11          6           0       -3.304941    1.572377    0.099000
     12          6           0       -4.555251    0.998971   -0.029770
     13          6           0       -4.663189   -0.402797   -0.222497
     14          6           0       -3.517026   -1.171060   -0.298726
     15          6           0       -2.221013   -0.608467   -0.189486
     16          6           0       -1.057318   -1.487781   -0.304113
     17          8           0       -1.200565   -2.728388   -0.525775
     18          6           0        0.243686   -0.837662   -0.131394
     19         16           0        4.414720    1.275978    0.287567
     20          8           0        4.791793    1.733983   -1.077339
     21          8           0        4.319149    2.371941    1.281380
     22          8           0        5.326633    0.150228    0.759713
     23          1           0        2.466290   -3.130640   -0.307682
     24          1           0        4.581766   -1.201137    0.219584
     25          1           0        1.638324    2.260950    0.435496
     26          1           0       -3.189870    2.640490    0.252276
     27          1           0       -5.456095    1.610036    0.020412
     28          1           0       -5.647275   -0.862688   -0.311916
     29          1           0       -3.569670   -2.244102   -0.450535
 ---------------------------------------------------------------------

 SCF Done:  E(UB3LYP) =  -1462.65819962     A.U. after    2 cycles

 Alpha  occ. eigenvalues --  -88.74767 -18.84915 -18.84713 -18.79649 -18.79033
 Alpha  occ. eigenvalues --  -18.78819 -18.74464 -18.73955  -9.92959  -9.92816
 Alpha  occ. eigenvalues --   -9.90258  -9.90169  -9.89148  -9.86926  -9.86881
 Alpha  occ. eigenvalues --   -9.86706  -9.86574  -9.86520  -9.86440  -9.86052
 Alpha  occ. eigenvalues --   -9.85574  -9.85520  -7.80624  -5.76925  -5.76873
 Alpha  occ. eigenvalues --   -5.76786  -0.80676  -0.77382  -0.74017  -0.67130
 Alpha  occ. eigenvalues --   -0.66741  -0.66554  -0.66065  -0.54695  -0.54002
 Alpha  occ. eigenvalues --   -0.47392  -0.44157  -0.43942  -0.42719  -0.36619
 Alpha  occ. eigenvalues --   -0.34000  -0.32543  -0.29288  -0.28558  -0.26623
 Alpha  occ. eigenvalues --   -0.24783  -0.22695  -0.20263  -0.19154  -0.17858
 Alpha  occ. eigenvalues --   -0.16492  -0.15563  -0.14931  -0.14787  -0.13304
 Alpha  occ. eigenvalues --   -0.12210  -0.11643  -0.11302  -0.10347  -0.09026
 Alpha  occ. eigenvalues --   -0.08492  -0.07711  -0.07452  -0.06632  -0.05577
 Alpha  occ. eigenvalues --   -0.04645  -0.04405  -0.03477  -0.03330  -0.03102
 Alpha  occ. eigenvalues --   -0.02226  -0.01521   0.00174   0.00877   0.01246
 Alpha  occ. eigenvalues --    0.04478   0.05481   0.06235   0.06870   0.08316
 Alpha  occ. eigenvalues --    0.08758   0.09331   0.19302
 Alpha virt. eigenvalues --    0.20892   0.22494   0.24073   0.25807   0.25990
 Alpha virt. eigenvalues --    0.26772   0.27413   0.28573   0.28710   0.30618
 Alpha virt. eigenvalues --    0.30812   0.31010   0.31824   0.31929   0.32888

  Beta  occ. eigenvalues --  -88.74767 -18.84915 -18.84713 -18.79649 -18.79033
  Beta  occ. eigenvalues --  -18.78819 -18.74464 -18.73955  -9.92959  -9.92816
  Beta  occ. eigenvalues --   -9.90258  -9.90169  -9.89148  -9.86926  -9.86881
  Beta  occ. eigenvalues --   -9.86706  -9.86574  -9.86520  -9.86440  -9.86052
  Beta  occ. eigenvalues --   -9.85574  -9.85520  -7.80624  -5.76925  -5.76873
  Beta  occ. eigenvalues --   -5.76786  -0.80676  -0.77382  -0.74017  -0.67130
  Beta  occ. eigenvalues --   -0.66741  -0.66554  -0.66065  -0.54695  -0.54002
  Beta  occ. eigenvalues --   -0.47392  -0.44157  -0.43942  -0.42719  -0.36619
  Beta  occ. eigenvalues --   -0.34000  -0.32543  -0.29288  -0.28558  -0.26623
  Beta  occ. eigenvalues --   -0.24783  -0.22695  -0.20263  -0.19154  -0.17858
  Beta  occ. eigenvalues --   -0.16492  -0.15563  -0.14931  -0.14787  -0.13304
  Beta  occ. eigenvalues --   -0.12210  -0.11643  -0.11302  -0.10347  -0.09026
  Beta  occ. eigenvalues --   -0.08492  -0.07711  -0.07452  -0.06632  -0.05577
  Beta  occ. eigenvalues --   -0.04645  -0.04405  -0.03477  -0.03330  -0.03102
  Beta  occ. eigenvalues --   -0.02226  -0.01521   0.00174   0.00877   0.01246
  Beta  occ. eigenvalues --    0.04478   0.05481   0.06235   0.06870   0.08316
  Beta  occ. eigenvalues --    0.08758   0.09331   0.19302
  Beta virt. eigenvalues --    0.20892   0.22494   0.24073   0.25807   0.25990
  Beta virt. eigenvalues --    0.26772   0.27413   0.28573   0.28710   0.30618
  Beta virt. eigenvalues --    0.30812   0.31010   0.31824   0.31929   0.32888

 Mulliken charges and spin densities:
               1          2
     1  O   -0.239520   0.000000
     2  C   -0.397451   0.000000
     3  C   -0.867520  -0.000000
     4  O   -0.428239   0.000000
     5  C   -0.261395   0.000000
     6  C   -0.145381  -0.000000
     7  C    0.948431   0.000000
     8  C   -0.834099  -0.000000
     9  O   -0.425958   0.000000
    10  C    0.766228  -0.000000
    11  C   -1.303570  -0.000000
    12  C    1.709406   0.000000
    13  C    1.554368  -0.000000
    14  C   -0.907074  -0.000000
    15  C    0.718971   0.000000
    16  C   -0.506090   0.000000
    17  O   -0.432678   0.000000
    18  C    0.870411  -0.000000
    19  S    0.815751  -0.000000
    20  O   -0.257576  -0.000000
    21  O   -0.313316   0.000000
    22  O   -0.470337   0.000000
    23  H    0.256679   0.000000
    24  H    0.342303   0.000000
    25  H    0.171241  -0.000000
    26  H    0.248712  -0.000000
    27  H   -1.865974  -0.000000
    28  H   -1.980146  -0.000000
    29  H    0.233823  -0.000000
 Sum of Mulliken charges =  -3.00000   0.00000

 Dipole moment (field-independent basis, Debye):
    X=              6.5102    Y=             -5.5441    Z=              0.0999  Tot=              8.5515
 Quadrupole moment (field-independent basis, Debye-Ang):
   XX=           -457.3083   YY=           -223.2094   ZZ=           -166.4840
   XY=            -21.9274   XZ=            -10.5319   YZ=             -8.0288

  Exact polarizability:1811.911 -25.2401369.689  42.335  79.261 201.739
 Approx polarizability:9162.059-703.4721382.323 176.367  69.526 289.325

                      1                      2                      3
                      A                      A                      A
 Frequencies --     34.2946                37.5047                54.7743
 Red. masses --     10.2795                 9.6408                10.6111
 Frc consts  --      0.0071                 0.0080                 0.0188
 IR Inten    --      3.1787                 7.2268                 0.1838

                      4                      5                      6
                      A                      A                      A
 Frequencies --    106.5856               122.6184               130.6305
 Red. masses --      9.4977                10.0294                 5.3685
 Frc consts  --      0.0636                 0.0888                 0.0540
 IR Inten    --      0.4054                 6.9357                 2.0291

                      7                      8                      9
                      A                      A                      A
 Frequencies --    139.9643               195.4817               206.1532
 Red. masses --      8.7632                 8.1375                 8.9180
 Frc consts  --      0.1011                 0.1832                 0.2233
 IR Inten    --      5.3652                33.4359                 1.1471

                     10                     11                     12
                      A                      A                      A
 Frequencies --    249.2811               272.9095               291.2383
 Red. masses --      8.3883                 8.7302                10.8915
 Frc consts  --      0.3071                 0.3831                 0.5443
 IR Inten    --     18.0366                15.2789                23.6031

                     13                     14                     15
                      A                      A                      A
 Frequencies --    294.6118               302.2348               351.2067
 Red. masses --      6.8473                 6.3156                10.8179
 Frc consts  --      0.3502                 0.3399                 0.7862
 IR Inten    --      3.6410                 8.9062                17.6139

                     16                     17                     18
                      A                      A                      A
 Frequencies --    373.9821               382.0821               408.7583
 Red. masses --     11.6277                 7.7049                 6.7280
 Frc consts  --      0.9582                 0.6627                 0.6623
 IR Inten    --     59.3749                18.3303                24.6558

                     19                     20                     21
                      A                      A                      A
 Frequencies --    422.5506               427.6890               445.9358
 Red. masses --      6.6550                 9.3390                 3.9597
 Frc consts  --      0.7001                 1.0065                 0.4639
 IR Inten    --      3.5121               122.0059                 9.6017

                     22                     23                     24
                      A                      A                      A
 Frequencies --    474.8352               487.2150               503.5181
 Red. masses --     12.3338                 9.6939                 6.3175
 Frc consts  --      1.6385                 1.3558                 0.9437
 IR Inten    --    332.5420                28.7732                54.3431

                     25                     26                     27
                      A                      A                      A
 Frequencies --    514.2028               523.8622               559.2211
 Red. masses --      7.9639                 1.3141                 5.4867
 Frc consts  --      1.2406                 0.2125                 1.0109
 IR Inten    --     81.1130                54.9868                 1.9587

                     28                     29                     30
                      A                      A                      A
 Frequencies --    581.7706               585.9082               625.5523
 Red. masses --      9.0795                 5.0914                11.9636
 Frc consts  --      1.8106                 1.0298                 2.7583
 IR Inten    --    185.0623                35.8928               441.3072

                     31                     32                     33
                      A                      A                      A
 Frequencies --    651.9261               670.0327               673.2435
 Red. masses --      7.2631                 6.8094                 6.6331
 Frc consts  --      1.8187                 1.8012                 1.7714
 IR Inten    --      8.5670                39.1968                30.5634

                     34                     35                     36
                      A                      A                      A
 Frequencies --    722.2273               723.6508               742.0021
 Red. masses --      5.5008                 6.5462                 6.7160
 Frc consts  --      1.6905                 2.0197                 2.1786
 IR Inten    --      6.3831                45.2237                 2.0700

                     37                     38                     39
                      A                      A                      A
 Frequencies --    767.7566               807.2977               843.9122
 Red. masses --      7.7345                 5.9404                 1.0989
 Frc consts  --      2.6862                 2.2810                 0.4611
 IR Inten    --    244.1199                 4.2638               117.4657

                     40                     41                     42
                      A                      A                      A
 Frequencies --    859.5232               878.7955               896.4750
 Red. masses --      7.1634                 1.4295                 1.5069
 Frc consts  --      3.1181                 0.6504                 0.7135
 IR Inten    --    170.0244                18.5041                96.2661

                     43                     44                     45
                      A                      A                      A
 Frequencies --    901.8817               922.0587               939.6367
 Red. masses --      6.9085                 1.4140                13.2376
 Frc consts  --      3.3108                 0.7083                 6.8862
 IR Inten    --    144.8780                10.4843               522.7487

                     46                     47                     48
                      A                      A                      A
 Frequencies --   1008.0294              1011.9265              1030.4509
 Red. masses --      4.2156                 1.2517                 2.4475
 Frc consts  --      2.5238                 0.7552                 1.5312
 IR Inten    --    671.1308                 6.1874               234.9446

                     49                     50                     51
                      A                      A                      A
 Frequencies --   1047.9575              1080.4000              1101.6102
 Red. masses --      7.3995                16.9362                 1.9501
 Frc consts  --      4.7878                11.6476                 1.3944
 IR Inten    --    208.3097               437.3645               108.8168

                     52                     53                     54
                      A                      A                      A
 Frequencies --   1121.2547              1130.5017              1163.1500
 Red. masses --      1.2380                 1.5453                 2.7761
 Frc consts  --      0.9170                 1.1636                 2.2129
 IR Inten    --   1634.3301                19.2915               236.3215

                     55                     56                     57
                      A                      A                      A
 Frequencies --   1170.5533              1199.4880              1209.1202
 Red. masses --      4.8477                 2.2826                 2.2743
 Frc consts  --      3.9135                 1.9349                 1.9590
 IR Inten    --    325.1885                45.2414                10.2366

                     58                     59                     60
                      A                      A                      A
 Frequencies --   1227.6119              1249.8466              1293.5048
 Red. masses --      3.0276                 3.5100                 3.4756
 Frc consts  --      2.6883                 3.2305                 3.4263
 IR Inten    --    103.1833               337.1331               511.0125

                     61                     62                     63
                      A                      A                      A
 Frequencies --   1314.8272              1352.6191              1365.7588
 Red. masses --      5.7223                10.3020                 2.7112
 Frc consts  --      5.8285                11.1051                 2.9796
 IR Inten    --    465.0473               369.6255                60.4197

                     64                     65                     66
                      A                      A                      A
 Frequencies --   1394.1582              1423.6662              1459.7252
 Red. masses --      3.1952                 2.5141                 2.6450
 Frc consts  --      3.6591                 3.0022                 3.3206
 IR Inten    --    114.8779               347.2020               211.1738

                     67                     68                     69
                      A                      A                      A
 Frequencies --   1463.9302              1484.9017              1498.9309
 Red. masses --      3.2152                 4.1198                 3.6316
 Frc consts  --      4.0597                 5.3520                 4.8074
 IR Inten    --    768.2405               449.4330              1628.8720

                     70                     71                     72
                      A                      A                      A
 Frequencies --   1508.0119              1551.1372              1570.9817
 Red. masses --      4.9085                 4.0352                 3.4657
 Frc consts  --      6.5767                 5.7202                 5.0394
 IR Inten    --   1038.4871               846.6911               673.5114

                     73                     74                     75
                      A                      A                      A
 Frequencies --   1596.5459              1615.3676              3094.3013
 Red. masses --      5.3264                 3.8828                 1.0858
 Frc consts  --      7.9993                 5.9695                 6.1255
 IR Inten    --    226.5711              1096.7212              1096.8498

                     76                     77                     78
                      A                      A                      A
 Frequencies --   3115.9788              3140.8551              3160.8768
 Red. masses --      1.0918                 1.0705                 1.0903
 Frc consts  --      6.2456                 6.2222                 6.4179
 IR Inten    --    121.4941              2171.0812                 5.0176

                     79                     80                     81
                      A                      A                      A
 Frequencies --   3162.9760              3199.7663              3716.4123
 Red. masses --      1.0903                 1.0888                 1.0641
 Frc consts  --      6.4268                 6.5678                 8.6596
 IR Inten    --     29.8884                 5.5049               121.7502

 - Thermochemistry -
 -------------------
 Temperature   298.150 Kelvin.  Pressure   1.00000 Atm.
 Atom     1 has atomic number  8 and mass  15.99491

 Molecular mass:   318.99125 amu.
 Principal axes and moments of inertia in atomic units:
                           1         2         3
     Eigenvalues --  3143.44748********************
           X            0.99383  -0.10629  -0.03168
           Y            0.10056   0.98403  -0.14686
           Z            0.04678   0.14277   0.98865
 This molecule is an asymmetric top.
 Rotational symmetry number  1.
 Warning -- assumption of classical behavior for rotation
           may cause significant error
 Rotational temperatures (Kelvin)      0.02755     0.00760     0.00611
 Rotational constants (GHZ):           0.57413     0.15840     0.12726
 Zero-point vibrational energy     492527.3 (Joules/Mol)
                                  117.71684 (Kcal/Mol)
 Warning -- explicit consideration of  29 degrees of freedom as
           vibrations may cause significant error
 Vibrational temperatures:     49.34    53.96    78.81   153.35   176.42
          (Kelvin)            187.95   201.38   281.25   296.61   358.66
                              392.66   419.03   423.88   434.85   505.31
                              538.08   549.73   588.11   607.96   615.35
                              641.60   683.18   700.99   724.45   739.82
                              753.72   804.59   837.04   842.99   900.03
                              937.98   964.03   968.65  1039.12  1041.17
                             1067.58  1104.63  1161.52  1214.20  1236.66
                             1264.39  1289.83  1297.61  1326.64  1351.93
                             1450.33  1455.94  1482.59  1507.78  1554.45
                             1584.97  1613.24  1626.54  1673.51  1684.17
                             1725.80  1739.65  1766.26  1798.25  1861.06
                             1891.74  1946.12  1965.02  2005.88  2048.34
                             2100.22  2106.27  2136.44  2156.63  2169.69
                             2231.74  2260.29  2297.07  2324.15  4452.01
                             4483.20  4518.99  4547.80  4550.82  4603.75
                             5347.09

 Zero-point correction=                           0.187594 (Hartree/Particle)
 Thermal correction to Energy=                    0.204690
 Thermal correction to Enthalpy=                  0.205635
 Thermal correction to Gibbs Free Energy=         0.142126
 Sum of electronic and zero-point Energies=          -1462.470606
 Sum of electronic and thermal Energies=             -1462.453509
 Sum of electronic and thermal Enthalpies=           -1462.452565
 Sum of electronic and thermal Free Energies=        -1462.516074

                     E (Thermal)             CV                S
                      KCal/Mol        Cal/Mol-Kelvin    Cal/Mol-Kelvin
 Total                  128.445             67.584            133.666
 Electronic               0.000              0.000              0.000
 Translational            0.889              2.981             43.176
 Rotational               0.889              2.981             34.584
 Vibrational            126.668             61.622             55.906
 Vibration     1          0.594              1.983              5.564
 Vibration     2          0.594              1.982              5.387
 Vibration     3          0.596              1.976              4.637
 Vibration     4          0.605              1.944              3.330
 Vibration     5          0.610              1.930              3.059
 Vibration     6          0.612              1.923              2.937
 Vibration     7          0.615              1.913              2.804
 Vibration     8          0.636              1.846              2.175
 Vibration     9          0.641              1.831              2.077
 Vibration    10          0.662              1.764              1.736
 Vibration    11          0.676              1.723              1.578
 Vibration    12          0.687              1.690              1.467
 Vibration    13          0.689              1.684              1.447
 Vibration    14          0.694              1.669              1.404
 Vibration    15          0.728              1.573              1.161
 Vibration    16          0.745              1.525              1.063
 Vibration    17          0.752              1.508              1.031
 Vibration    18          0.773              1.451              0.931
 Vibration    19          0.785              1.421              0.883
 Vibration    20          0.789              1.410              0.866
 Vibration    21          0.805              1.370              0.808
 Vibration    22          0.832              1.306              0.724
 Vibration    23          0.843              1.278              0.691
 Vibration    24          0.859              1.242              0.649
 Vibration    25          0.869              1.219              0.624
 Vibration    26          0.879              1.197              0.601
 Vibration    27          0.915              1.120              0.525
 Vibration    28          0.939              1.071              0.482
 Vibration    29          0.943              1.062              0.475

                           ! Non-Optimized Parameters !
 Normal termination of Gaussian 16 at Sun Jan  7 06:55:46 2024.
