 Gaussian 16, Revision A.03,
 Gaussian 16:  ES64L-G16RevA.03 25-Dec-2016

 ----------------------------------------------------------------
 #P UB3LYP/6-311++G(d,p) SCRF=(PCM,Solvent=n,n-DiMethylFormamide)
 ----------------------------------------------------------------

 ------------------
 Radical PCM in DMF
 ------------------
 Symbolic Z-matrix:
 Charge = -1 Multiplicity = 2

                         Standard orientation:
 ---------------------------------------------------------------------
 Center     Atomic      Atomic             Coordinates (Angstroms)
 Number     Number       Type             X           Y           Z
 ---------------------------------------------------------------------
      1          6           0        2.706975   -1.669555    0.574291
      2          8           0        2.450287   -0.588980   -0.319497
      3          6           0        1.224305    0.039733   -0.177577
      4          6           0        1.222532    1.400164   -0.019000
      5          6           0       -0.001745    2.167948    0.057931
      6          8           0       -0.002786    3.422491    0.205436
      7          6           0       -1.224902    1.398192   -0.019284
      8          6           0       -1.224272    0.037890   -0.177934
      9          8           0       -2.449049   -0.593193   -0.320268
     10          6           0       -2.704453   -1.672891    0.574981
     11          6           0        0.000723   -0.742628   -0.311732
     12          8           0        0.001520   -1.987180   -0.551819
     13          1           0        3.708275   -2.033331    0.331215
     14          1           0        2.698786   -1.316883    1.615361
     15          1           0        1.972841   -2.466518    0.445838
     16          1           0        2.164471    1.934116    0.045950
     17          1           0       -2.167707    1.930632    0.045389
     18          1           0       -2.698590   -1.318416    1.615451
     19          1           0       -3.704548   -2.039479    0.331143
     20          1           0       -1.968271   -2.468340    0.448792
 ---------------------------------------------------------------------

 SCF Done:  E(UB3LYP) =  -610.831534873     A.U. after   18 cycles

 The electronic state is 2-A.
 Alpha  occ. eigenvalues --  -19.13976 -19.13973 -19.08206 -19.07716 -10.22584
 Alpha  occ. eigenvalues --  -10.22394 -10.22314 -10.22311 -10.20601 -10.20600
 Alpha  occ. eigenvalues --  -10.15827 -10.15826  -1.05604  -1.05025  -0.99827
 Alpha  occ. eigenvalues --   -0.99645  -0.82308  -0.75457  -0.70455  -0.67436
 Alpha  occ. eigenvalues --   -0.67298  -0.59082  -0.57020  -0.50565  -0.50340
 Alpha  occ. eigenvalues --   -0.47530  -0.46707  -0.46264  -0.45316  -0.44354
 Alpha  occ. eigenvalues --   -0.41886  -0.41170  -0.40104  -0.38255  -0.38174
 Alpha  occ. eigenvalues --   -0.37340  -0.35233  -0.35028  -0.30516  -0.29479
 Alpha  occ. eigenvalues --   -0.26782  -0.24454  -0.24288  -0.22936  -0.16424
 Alpha virt. eigenvalues --   -0.00345  -0.00242   0.01263   0.01267   0.02322
 Alpha virt. eigenvalues --    0.03055   0.03373   0.03806   0.03870   0.04413
 Alpha virt. eigenvalues --    0.06106   0.06131   0.06565   0.07341   0.08339

  Beta  occ. eigenvalues --  -19.13958 -19.13956 -19.07481 -19.07070 -10.22376
  Beta  occ. eigenvalues --  -10.22284 -10.22222 -10.22218 -10.20598 -10.20598
  Beta  occ. eigenvalues --  -10.15719 -10.15718  -1.05443  -1.04964  -0.98701
  Beta  occ. eigenvalues --   -0.98418  -0.81738  -0.75280  -0.70089  -0.67301
  Beta  occ. eigenvalues --   -0.66444  -0.58750  -0.56693  -0.50385  -0.50125
  Beta  occ. eigenvalues --   -0.47448  -0.46285  -0.45820  -0.45202  -0.44224
  Beta  occ. eigenvalues --   -0.41810  -0.40450  -0.38742  -0.38010  -0.37421
  Beta  occ. eigenvalues --   -0.34920  -0.34883  -0.34675  -0.30283  -0.28562
  Beta  occ. eigenvalues --   -0.24246  -0.23807  -0.23657  -0.22388
  Beta virt. eigenvalues --   -0.09183  -0.00176   0.00614   0.01340   0.01617
  Beta virt. eigenvalues --    0.02772   0.03075   0.03784   0.03889   0.04436
  Beta virt. eigenvalues --    0.05209   0.06141   0.06163   0.06780   0.07345

 Mulliken charges and spin densities:
               1          2
     1  C   -0.307362   0.005181
     2  O   -0.214069   0.000385
     3  C   -0.644755   0.145931
     4  C    0.771146   0.037890
     5  C   -0.720249   0.144328
     6  O   -0.511707   0.224208
     7  C    0.772448   0.037905
     8  C   -0.646507   0.145832
     9  O   -0.213958   0.000358
    10  C   -0.307375   0.005197
    11  C    0.180008  -0.002746
    12  O   -0.494513   0.271421
    13  H    0.149249   0.000380
    14  H    0.136832   0.000425
    15  H    0.176521  -0.001050
    16  H    0.205868  -0.007699
    17  H    0.205881  -0.007693
    18  H    0.136836   0.000414
    19  H    0.149289   0.000385
    20  H    0.176418  -0.001051
 Sum of Mulliken charges =  -1.00000   1.00000

 Dipole moment (field-independent basis, Debye):
    X=              0.0050    Y=             -5.9042    Z=              3.2038  Tot=              6.7174
 Quadrupole moment (field-independent basis, Debye-Ang):
   XX=            -76.1464   YY=           -110.4340   ZZ=            -75.3204
   XY=              0.0214   XZ=              0.0003   YZ=             -7.7389

 Normal termination of Gaussian 16 at Wed Jan 24 22:49:52 2024.
