 Gaussian 16, Revision A.03,
 Gaussian 16:  ES64L-G16RevA.03 25-Dec-2016

 ----------------------------------------------------------------
 #P UB3LYP/6-311++G(d,p) SCRF=(PCM,Solvent=n,n-DiMethylFormamide)
 ----------------------------------------------------------------

 ------------------
 Quinone PCM in DMF
 ------------------
 Symbolic Z-matrix:
 Charge =  0 Multiplicity = 1

                         Standard orientation:
 ---------------------------------------------------------------------
 Center     Atomic      Atomic             Coordinates (Angstroms)
 Number     Number       Type             X           Y           Z
 ---------------------------------------------------------------------
      1         17           0        3.906517    1.329640   -0.194903
      2          6           0        2.880180   -0.082201   -0.091631
      3          6           0        3.522115   -1.313397   -0.213083
      4          6           0        2.791496   -2.494979   -0.157622
      5          6           0        1.413238   -2.452827    0.004078
      6          6           0        0.760803   -1.224529    0.104827
      7          6           0       -0.734332   -1.265347    0.252966
      8          8           0       -1.284232   -2.320834    0.502761
      9          6           0       -1.482746    0.011861    0.072828
     10          6           0       -2.880137    0.082194   -0.091753
     11         17           0       -3.906462   -1.329682   -0.194769
     12          6           0       -3.522127    1.313344   -0.213199
     13          6           0       -2.791561    2.494958   -0.157683
     14          6           0       -1.413301    2.452856    0.004095
     15          6           0       -0.760808    1.224577    0.104781
     16          6           0        0.734338    1.265383    0.253100
     17          8           0        1.284183    2.320891    0.502927
     18          6           0        1.482786   -0.011834    0.072927
     19          1           0        4.595817   -1.332573   -0.348819
     20          1           0        3.303494   -3.446042   -0.246436
     21          1           0        0.820731   -3.356993    0.050804
     22          1           0       -4.595824    1.332475   -0.348906
     23          1           0       -3.303600    3.446002   -0.246480
     24          1           0       -0.820836    3.357042    0.050978
 ---------------------------------------------------------------------

 SCF Done:  E(UB3LYP) =  -1608.18582535     A.U. after   15 cycles

 The electronic state is 1-A.
 Alpha  occ. eigenvalues -- -101.56832-101.56832 -19.13782 -19.13781 -10.29393
 Alpha  occ. eigenvalues --  -10.29391 -10.26825 -10.26824 -10.22735 -10.22734
 Alpha  occ. eigenvalues --  -10.22107 -10.22107 -10.21026 -10.21025 -10.20823
 Alpha  occ. eigenvalues --  -10.20823 -10.20386 -10.20386  -9.48319  -9.48318
 Alpha  occ. eigenvalues --   -7.24792  -7.24792  -7.23828  -7.23827  -7.23716
 Alpha  occ. eigenvalues --   -7.23715  -1.07717  -1.07529  -0.92169  -0.91767
 Alpha  occ. eigenvalues --   -0.87278  -0.86102  -0.82238  -0.78487  -0.77136
 Alpha  occ. eigenvalues --   -0.76450  -0.69767  -0.67759  -0.65929  -0.61611
 Alpha  occ. eigenvalues --   -0.58584  -0.57862  -0.56314  -0.51734  -0.50475
 Alpha  occ. eigenvalues --   -0.50207  -0.50025  -0.46923  -0.46910  -0.46232
 Alpha  occ. eigenvalues --   -0.46155  -0.45891  -0.45203  -0.43127  -0.41836
 Alpha  occ. eigenvalues --   -0.40926  -0.39853  -0.39523  -0.39102  -0.38528
 Alpha  occ. eigenvalues --   -0.35543  -0.35311  -0.34009  -0.33479  -0.30001
 Alpha  occ. eigenvalues --   -0.29108  -0.28607  -0.27414  -0.27321  -0.27117
 Alpha virt. eigenvalues --   -0.12344  -0.08367  -0.04729  -0.03852  -0.00633
 Alpha virt. eigenvalues --   -0.00101  -0.00063   0.00407   0.01779   0.01783
 Alpha virt. eigenvalues --    0.02135   0.02294   0.02753   0.03956   0.04239

  Beta  occ. eigenvalues -- -101.56832-101.56832 -19.13782 -19.13781 -10.29393
  Beta  occ. eigenvalues --  -10.29391 -10.26825 -10.26824 -10.22735 -10.22734
  Beta  occ. eigenvalues --  -10.22107 -10.22107 -10.21026 -10.21025 -10.20823
  Beta  occ. eigenvalues --  -10.20823 -10.20386 -10.20386  -9.48319  -9.48318
  Beta  occ. eigenvalues --   -7.24792  -7.24792  -7.23828  -7.23827  -7.23716
  Beta  occ. eigenvalues --   -7.23715  -1.07717  -1.07529  -0.92169  -0.91767
  Beta  occ. eigenvalues --   -0.87278  -0.86102  -0.82238  -0.78487  -0.77136
  Beta  occ. eigenvalues --   -0.76450  -0.69767  -0.67759  -0.65929  -0.61611
  Beta  occ. eigenvalues --   -0.58584  -0.57862  -0.56314  -0.51734  -0.50475
  Beta  occ. eigenvalues --   -0.50207  -0.50025  -0.46923  -0.46910  -0.46232
  Beta  occ. eigenvalues --   -0.46155  -0.45891  -0.45203  -0.43127  -0.41836
  Beta  occ. eigenvalues --   -0.40926  -0.39853  -0.39523  -0.39102  -0.38528
  Beta  occ. eigenvalues --   -0.35543  -0.35311  -0.34009  -0.33479  -0.30001
  Beta  occ. eigenvalues --   -0.29108  -0.28607  -0.27414  -0.27321  -0.27117
  Beta virt. eigenvalues --   -0.12344  -0.08367  -0.04729  -0.03852  -0.00633
  Beta virt. eigenvalues --   -0.00101  -0.00063   0.00407   0.01779   0.01783
  Beta virt. eigenvalues --    0.02135   0.02294   0.02753   0.03956   0.04239

 Mulliken charges and spin densities:
               1          2
     1  Cl   0.443756  -0.000000
     2  C    0.900355  -0.000000
     3  C   -0.307908   0.000000
     4  C   -0.896263  -0.000000
     5  C    0.579269   0.000000
     6  C    0.425962  -0.000000
     7  C   -2.026049   0.000000
     8  O   -0.174964  -0.000000
     9  C    0.404096  -0.000000
    10  C    0.900496   0.000000
    11  Cl   0.443729  -0.000000
    12  C   -0.307647  -0.000000
    13  C   -0.896226   0.000000
    14  C    0.579114  -0.000000
    15  C    0.426518  -0.000000
    16  C   -2.025707   0.000000
    17  O   -0.175017  -0.000000
    18  C    0.404340  -0.000000
    19  H    0.232661  -0.000000
    20  H    0.214828  -0.000000
    21  H    0.203586   0.000000
    22  H    0.232665  -0.000000
    23  H    0.214828   0.000000
    24  H    0.203581  -0.000000
 Sum of Mulliken charges =  -0.00000  -0.00000

 Dipole moment (field-independent basis, Debye):
    X=              0.0002    Y=             -0.0001    Z=             -1.5580  Tot=              1.5580
 Quadrupole moment (field-independent basis, Debye-Ang):
   XX=           -105.9938   YY=           -113.4832   ZZ=           -118.5604
   XY=            -27.6720   XZ=             -0.0003   YZ=             -0.0003

 Normal termination of Gaussian 16 at Sun Jan 14 01:02:11 2024.
