 Gaussian 16, Revision A.03,
 Gaussian 16:  ES64L-G16RevA.03 25-Dec-2016

 --------------------------------------
 #P UB3LYP/6-311++G(d,p) nosym opt freq
 --------------------------------------

 --------
 Oxidized
 --------
 Symbolic Z-matrix:
 Charge =  0 Multiplicity = 1

 SCF Done:  E(UB3LYP) =  -1608.17492002     A.U. after   16 cycles
 SCF Done:  E(UB3LYP) =  -1608.17491606     A.U. after   12 cycles
 SCF Done:  E(UB3LYP) =  -1608.17492801     A.U. after   12 cycles
 SCF Done:  E(UB3LYP) =  -1608.17494727     A.U. after   11 cycles
 SCF Done:  E(UB3LYP) =  -1608.17495783     A.U. after   13 cycles
 SCF Done:  E(UB3LYP) =  -1608.17516595     A.U. after   17 cycles
 SCF Done:  E(UB3LYP) =  -1608.17521907     A.U. after   13 cycles
 SCF Done:  E(UB3LYP) =  -1608.17339838     A.U. after   18 cycles
 SCF Done:  E(UB3LYP) =  -1608.17525977     A.U. after   17 cycles
 SCF Done:  E(UB3LYP) =  -1608.17497092     A.U. after   16 cycles
 SCF Done:  E(UB3LYP) =  -1608.16175066     A.U. after   15 cycles
 SCF Done:  E(UB3LYP) =  -1608.17521204     A.U. after   13 cycles
 SCF Done:  E(UB3LYP) =  -1608.17527279     A.U. after    9 cycles
 SCF Done:  E(UB3LYP) =  -1608.17528574     A.U. after   13 cycles
 SCF Done:  E(UB3LYP) =  -1608.17528696     A.U. after   12 cycles
 SCF Done:  E(UB3LYP) =  -1608.17528701     A.U. after   11 cycles
 SCF Done:  E(UB3LYP) =  -1608.17528710     A.U. after   11 cycles
 Optimization completed.
    -- Stationary point found.
 Normal termination of Gaussian 16 at Sat Jan 13 20:21:39 2024.

 ----------------------------------------------------------------------
 #P Geom=AllCheck Guess=TCheck SCRF=Check GenChk UB3LYP/6-311++G(d,p) F
 req
 ----------------------------------------------------------------------

 Structure from the checkpoint file:  "121.chk"
 --------
 Oxidized
 --------
 Charge =  0 Multiplicity = 1

                          Input orientation:
 ---------------------------------------------------------------------
 Center     Atomic      Atomic             Coordinates (Angstroms)
 Number     Number       Type             X           Y           Z
 ---------------------------------------------------------------------
      1         17           0        2.593085    3.139556   -0.692940
      2          6           0        2.478741    1.443499   -0.283495
      3          6           0        3.681955    0.740615   -0.253413
      4          6           0        3.695337   -0.616391    0.048861
      5          6           0        2.505004   -1.282432    0.307736
      6          6           0        1.294915   -0.591197    0.258568
      7          6           0        0.050503   -1.390356    0.526569
      8          8           0        0.144948   -2.512484    0.985643
      9          6           0       -1.260774   -0.759390    0.200579
     10          6           0       -2.475317   -1.470284    0.135384
     11         17           0       -2.585192   -3.203094    0.341891
     12          6           0       -3.673325   -0.810717   -0.133645
     13          6           0       -3.689157    0.566049   -0.326744
     14          6           0       -2.505810    1.289729   -0.267394
     15          6           0       -1.300018    0.634408   -0.020065
     16          6           0       -0.061969    1.486348    0.003586
     17          8           0       -0.167223    2.697426    0.036034
     18          6           0        1.257094    0.791237   -0.024894
     19          1           0        4.602163    1.269071   -0.466904
     20          1           0        4.638296   -1.149922    0.075774
     21          1           0        2.486915   -2.337772    0.545844
     22          1           0       -4.587664   -1.387540   -0.187190
     23          1           0       -4.628319    1.067916   -0.528381
     24          1           0       -2.489782    2.361731   -0.413411
 ---------------------------------------------------------------------

 SCF Done:  E(UB3LYP) =  -1608.17528710     A.U. after    2 cycles

 Alpha  occ. eigenvalues -- -101.56450-101.56449 -19.13470 -19.13469 -10.29108
 Alpha  occ. eigenvalues --  -10.29107 -10.26989 -10.26989 -10.22885 -10.22884
 Alpha  occ. eigenvalues --  -10.22331 -10.22331 -10.21505 -10.21504 -10.21426
 Alpha  occ. eigenvalues --  -10.21426 -10.20738 -10.20738  -9.47923  -9.47923
 Alpha  occ. eigenvalues --   -7.24410  -7.24410  -7.23428  -7.23427  -7.23312
 Alpha  occ. eigenvalues --   -7.23311  -1.07334  -1.07131  -0.92278  -0.91855
 Alpha  occ. eigenvalues --   -0.87185  -0.86110  -0.82594  -0.78879  -0.77231
 Alpha  occ. eigenvalues --   -0.76596  -0.69959  -0.68090  -0.66251  -0.61941
 Alpha  occ. eigenvalues --   -0.58650  -0.58147  -0.56507  -0.51792  -0.50882
 Alpha  occ. eigenvalues --   -0.50581  -0.50390  -0.46915  -0.46528  -0.46456
 Alpha  occ. eigenvalues --   -0.46164  -0.45723  -0.45084  -0.42915  -0.41991
 Alpha  occ. eigenvalues --   -0.41474  -0.39936  -0.39863  -0.39346  -0.38691
 Alpha  occ. eigenvalues --   -0.35426  -0.35135  -0.33547  -0.33025  -0.30167
 Alpha  occ. eigenvalues --   -0.29296  -0.28476  -0.27349  -0.27291  -0.26900
 Alpha virt. eigenvalues --   -0.12314  -0.08549  -0.05162  -0.04158  -0.01324
 Alpha virt. eigenvalues --   -0.00939   0.00120   0.00591   0.01412   0.01512
 Alpha virt. eigenvalues --    0.01827   0.01921   0.02461   0.03804   0.03984

  Beta  occ. eigenvalues -- -101.56450-101.56449 -19.13470 -19.13469 -10.29108
  Beta  occ. eigenvalues --  -10.29107 -10.26989 -10.26989 -10.22885 -10.22884
  Beta  occ. eigenvalues --  -10.22331 -10.22331 -10.21505 -10.21504 -10.21426
  Beta  occ. eigenvalues --  -10.21426 -10.20738 -10.20738  -9.47923  -9.47923
  Beta  occ. eigenvalues --   -7.24410  -7.24410  -7.23428  -7.23427  -7.23312
  Beta  occ. eigenvalues --   -7.23311  -1.07334  -1.07131  -0.92278  -0.91855
  Beta  occ. eigenvalues --   -0.87185  -0.86110  -0.82594  -0.78879  -0.77231
  Beta  occ. eigenvalues --   -0.76596  -0.69959  -0.68090  -0.66251  -0.61941
  Beta  occ. eigenvalues --   -0.58650  -0.58147  -0.56507  -0.51792  -0.50882
  Beta  occ. eigenvalues --   -0.50581  -0.50390  -0.46915  -0.46528  -0.46456
  Beta  occ. eigenvalues --   -0.46164  -0.45723  -0.45084  -0.42915  -0.41991
  Beta  occ. eigenvalues --   -0.41474  -0.39936  -0.39863  -0.39346  -0.38691
  Beta  occ. eigenvalues --   -0.35426  -0.35135  -0.33547  -0.33025  -0.30167
  Beta  occ. eigenvalues --   -0.29296  -0.28476  -0.27349  -0.27291  -0.26900
  Beta virt. eigenvalues --   -0.12314  -0.08549  -0.05162  -0.04158  -0.01324
  Beta virt. eigenvalues --   -0.00939   0.00120   0.00591   0.01412   0.01512
  Beta virt. eigenvalues --    0.01827   0.01921   0.02461   0.03804   0.03984

 Mulliken charges and spin densities:
               1          2
     1  Cl   0.483942   0.000000
     2  C    0.863076   0.000000
     3  C   -0.316519   0.000000
     4  C   -0.840516  -0.000000
     5  C    0.550064   0.000000
     6  C    0.433645  -0.000000
     7  C   -2.043551  -0.000000
     8  O   -0.112130   0.000000
     9  C    0.392527  -0.000000
    10  C    0.863170   0.000000
    11  Cl   0.483929   0.000000
    12  C   -0.316300   0.000000
    13  C   -0.840455  -0.000000
    14  C    0.549942   0.000000
    15  C    0.434247   0.000000
    16  C   -2.043250  -0.000000
    17  O   -0.112184   0.000000
    18  C    0.392870  -0.000000
    19  H    0.206620   0.000000
    20  H    0.181358  -0.000000
    21  H    0.200770   0.000000
    22  H    0.206625   0.000000
    23  H    0.181359  -0.000000
    24  H    0.200761   0.000000
 Sum of Mulliken charges =   0.00000   0.00000

 Dipole moment (field-independent basis, Debye):
    X=              0.0249    Y=             -0.2048    Z=             -1.1318  Tot=              1.1504
 Quadrupole moment (field-independent basis, Debye-Ang):
   XX=            -90.2216   YY=           -130.9357   ZZ=           -118.8776
   XY=             -6.4617   XZ=              1.7887   YZ=              2.1025

  Exact polarizability: 261.280  18.314 231.565   0.331 -24.382  99.057
 Approx polarizability: 381.252   5.451 426.961   3.945 -48.946 164.803

                      1                      2                      3
                      A                      A                      A
 Frequencies --     27.8839                44.2368                58.7285
 Red. masses --     13.1853                 7.7650                13.4467
 Frc consts  --      0.0060                 0.0090                 0.0273
 IR Inten    --      2.3737                 4.1140                 0.1256

                      4                      5                      6
                      A                      A                      A
 Frequencies --    148.8423               163.1505               184.8077
 Red. masses --      6.8258                11.6904                 4.6498
 Frc consts  --      0.0891                 0.1833                 0.0936
 IR Inten    --      0.5869                 1.1632                 0.0373

                      7                      8                      9
                      A                      A                      A
 Frequencies --    195.1945               207.0008               246.2105
 Red. masses --      9.6225                 7.3868                 6.6946
 Frc consts  --      0.2160                 0.1865                 0.2391
 IR Inten    --      0.0201                 0.2549                 0.0360

                     10                     11                     12
                      A                      A                      A
 Frequencies --    332.3391               333.8224               347.5327
 Red. masses --     10.5563                14.9240                 6.4651
 Frc consts  --      0.6869                 0.9799                 0.4601
 IR Inten    --      0.3414                 0.0139                 0.0743

                     13                     14                     15
                      A                      A                      A
 Frequencies --    401.4547               404.7853               415.8932
 Red. masses --      9.8747                 7.9349                 8.8804
 Frc consts  --      0.9377                 0.7660                 0.9050
 IR Inten    --     23.9928                 0.0363                 4.8660

                     16                     17                     18
                      A                      A                      A
 Frequencies --    433.7208               471.3249               479.4118
 Red. masses --      5.9660                 7.1650                 5.3620
 Frc consts  --      0.6612                 0.9378                 0.7261
 IR Inten    --      3.8848                 0.9584                 2.0201

                     19                     20                     21
                      A                      A                      A
 Frequencies --    505.3869               515.3238               534.1002
 Red. masses --      6.1596                 7.3060                 4.9315
 Frc consts  --      0.9269                 1.1431                 0.8289
 IR Inten    --      0.4425                 2.0938                 1.0265

                     22                     23                     24
                      A                      A                      A
 Frequencies --    621.3860               671.1040               696.3115
 Red. masses --      5.9905                 5.2486                 6.3793
 Frc consts  --      1.3628                 1.3928                 1.8223
 IR Inten    --      1.4781                 0.9104                 2.6949

                     25                     26                     27
                      A                      A                      A
 Frequencies --    723.6911               724.6593               766.9539
 Red. masses --      3.3030                 8.1766                 6.0426
 Frc consts  --      1.0192                 2.5298                 2.0942
 IR Inten    --     33.6505                86.1428                23.2909

                     28                     29                     30
                      A                      A                      A
 Frequencies --    792.3730               810.6923               820.9557
 Red. masses --      1.4728                 7.1531                 6.7625
 Frc consts  --      0.5448                 2.7699                 2.6853
 IR Inten    --      1.5431                 1.3113                35.8245

                     31                     32                     33
                      A                      A                      A
 Frequencies --    825.1706               845.2181               926.9003
 Red. masses --      1.7030                 4.3803                 6.5690
 Frc consts  --      0.6832                 1.8437                 3.3252
 IR Inten    --     44.5331                 1.2295                 0.0194

                     34                     35                     36
                      A                      A                      A
 Frequencies --    949.6773               949.7005               996.5894
 Red. masses --      1.3823                 1.3826                 8.0057
 Frc consts  --      0.7345                 0.7347                 4.6847
 IR Inten    --      0.5004                 0.1227                73.8197

                     37                     38                     39
                      A                      A                      A
 Frequencies --   1011.9218              1012.3906              1090.1398
 Red. masses --      1.3484                 1.3407                 2.5025
 Frc consts  --      0.8135                 0.8096                 1.7522
 IR Inten    --      1.9859                 1.1193                 0.0686

                     40                     41                     42
                      A                      A                      A
 Frequencies --   1104.6030              1148.8754              1149.1281
 Red. masses --      1.9854                 4.4146                 3.2103
 Frc consts  --      1.4273                 3.4331                 2.4976
 IR Inten    --      7.0236               117.3531                 1.4203

                     43                     44                     45
                      A                      A                      A
 Frequencies --   1184.7908              1195.2251              1202.6540
 Red. masses --      1.4084                 1.7206                 1.5100
 Frc consts  --      1.1648                 1.4482                 1.2868
 IR Inten    --     12.6129                 0.9651                 0.0040

                     46                     47                     48
                      A                      A                      A
 Frequencies --   1226.1785              1275.4887              1291.6275
 Red. masses --      1.8193                 4.0809                 3.1543
 Frc consts  --      1.6116                 3.9116                 3.1004
 IR Inten    --     65.5097               511.0813                 0.0101

                     49                     50                     51
                      A                      A                      A
 Frequencies --   1335.3262              1341.9718              1448.6041
 Red. masses --      8.9778                 8.1651                 3.4222
 Frc consts  --      9.4318                 8.6636                 4.2311
 IR Inten    --    127.2024                 0.0495                47.8554

                     52                     53                     54
                      A                      A                      A
 Frequencies --   1457.0522              1468.3577              1477.6288
 Red. masses --      3.5540                 2.2751                 2.4079
 Frc consts  --      4.4455                 2.8901                 3.0976
 IR Inten    --      0.2593                16.6848                 0.3023

                     55                     56                     57
                      A                      A                      A
 Frequencies --   1594.4249              1604.7366              1612.2399
 Red. masses --      6.1256                 6.5460                 5.9961
 Frc consts  --      9.1750                 9.9319                 9.1829
 IR Inten    --     16.6891                 0.7573               136.0627

                     58                     59                     60
                      A                      A                      A
 Frequencies --   1616.3124              1729.0813              1738.0077
 Red. masses --      6.0940                12.7496                12.6118
 Frc consts  --      9.3800                22.4584                22.4456
 IR Inten    --      0.1680                21.1075               303.8662

                     61                     62                     63
                      A                      A                      A
 Frequencies --   3180.8923              3180.8986              3202.6673
 Red. masses --      1.0887                 1.0887                 1.0932
 Frc consts  --      6.4900                 6.4901                 6.6068
 IR Inten    --      7.9651                 1.8250                 0.7898

                     64                     65                     66
                      A                      A                      A
 Frequencies --   3202.7068              3210.8575              3210.9789
 Red. masses --      1.0932                 1.0940                 1.0940
 Frc consts  --      6.6070                 6.6451                 6.6457
 IR Inten    --      1.4588                 8.1385                 0.1618

 - Thermochemistry -
 -------------------
 Temperature   298.150 Kelvin.  Pressure   1.00000 Atm.
 Atom     1 has atomic number 17 and mass  34.96885

 Molecular mass:   275.97448 amu.
 Principal axes and moments of inertia in atomic units:
                           1         2         3
     Eigenvalues --  2745.659657193.262739832.27977
           X            0.82250  -0.56836  -0.02152
           Y            0.56256   0.80735   0.17806
           Z           -0.08383  -0.15856   0.98378
 This molecule is an asymmetric top.
 Rotational symmetry number  1.
 Warning -- assumption of classical behavior for rotation
           may cause significant error
 Rotational temperatures (Kelvin)      0.03155     0.01204     0.00881
 Rotational constants (GHZ):           0.65731     0.25089     0.18355
 Zero-point vibrational energy     419161.3 (Joules/Mol)
                                  100.18196 (Kcal/Mol)
 Warning -- explicit consideration of  21 degrees of freedom as
           vibrations may cause significant error
 Vibrational temperatures:     40.12    63.65    84.50   214.15   234.74
          (Kelvin)            265.90   280.84   297.83   354.24   478.16
                              480.30   500.02   577.60   582.40   598.38
                              624.03   678.13   689.77   727.14   741.44
                              768.45   894.04   965.57  1001.84  1041.23
                             1042.62  1103.48  1140.05  1166.41  1181.17
                             1187.24  1216.08  1333.60  1366.37  1366.41
                             1433.87  1455.93  1456.60  1568.47  1589.28
                             1652.98  1653.34  1704.65  1719.66  1730.35
                             1764.20  1835.14  1858.36  1921.24  1930.80
                             2084.22  2096.37  2112.64  2125.98  2294.02
                             2308.86  2319.65  2325.51  2487.76  2500.61
                             4576.59  4576.60  4607.92  4607.98  4619.71
                             4619.88

 Zero-point correction=                           0.159650 (Hartree/Particle)
 Thermal correction to Energy=                    0.173453
 Thermal correction to Enthalpy=                  0.174398
 Thermal correction to Gibbs Free Energy=         0.117360
 Sum of electronic and zero-point Energies=          -1608.015637
 Sum of electronic and thermal Energies=             -1608.001834
 Sum of electronic and thermal Enthalpies=           -1608.000889
 Sum of electronic and thermal Free Energies=        -1608.057927

                     E (Thermal)             CV                S
                      KCal/Mol        Cal/Mol-Kelvin    Cal/Mol-Kelvin
 Total                  108.844             53.369            120.046
 Electronic               0.000              0.000              0.000
 Translational            0.889              2.981             42.744
 Rotational               0.889              2.981             33.629
 Vibrational            107.066             47.407             43.674
 Vibration     1          0.593              1.984              5.975
 Vibration     2          0.595              1.980              5.060
 Vibration     3          0.596              1.974              4.499
 Vibration     4          0.618              1.904              2.687
 Vibration     5          0.623              1.888              2.513
 Vibration     6          0.631              1.861              2.279
 Vibration     7          0.636              1.847              2.178
 Vibration     8          0.641              1.830              2.070
 Vibration     9          0.661              1.769              1.758
 Vibration    10          0.714              1.611              1.249
 Vibration    11          0.715              1.608              1.242
 Vibration    12          0.725              1.580              1.177
 Vibration    13          0.767              1.467              0.957
 Vibration    14          0.770              1.460              0.945
 Vibration    15          0.779              1.436              0.906
 Vibration    16          0.794              1.397              0.847
 Vibration    17          0.828              1.314              0.734
 Vibration    18          0.836              1.296              0.712
 Vibration    19          0.861              1.238              0.645
 Vibration    20          0.870              1.216              0.621
 Vibration    21          0.889              1.175              0.578

 Optimization completed.
    -- Stationary point found.
 Normal termination of Gaussian 16 at Sat Jan 13 21:20:05 2024.
