 Q-Chem 5.4, Q-Chem, Inc., Pleasanton, CA (2021)
 Q-Chem 5.4.0 for Intel X86 EM64T Linux

User input:
--------------------------------------------------------------
$molecule
-2 1
C                 -3.9310510000      0.9424630000      0.9507710000
C                 -3.2754590000     -0.0774980000     -0.0115700000
C                 -3.4785900000     -1.4861640000      0.5763000000
C                 -4.0159300000     -0.0265640000     -1.3717900000
C                 -1.7880220000      0.2690260000     -0.2086280000
C                 -1.4298070000      1.5362180000     -0.7672240000
C                 -0.1098580000      1.8844980000     -0.9504900000
C                  0.9565880000      1.0218100000     -0.6003000000
C                  2.3262590000      1.4474090000     -0.8226000000
O                  2.6232780000      2.5818990000     -1.3316610000
C                  3.3343820000      0.4848480000     -0.4160390000
C                  4.7047220000      0.8028860000     -0.5855730000
C                  5.7117660000     -0.0673360000     -0.2202710000
C                  5.3788860000     -1.3288480000      0.3457950000
C                  4.0530450000     -1.6675990000      0.5251740000
C                  2.9956240000     -0.7967930000      0.1619120000
C                  1.6231430000     -1.2178610000      0.3826900000
O                  1.3271850000     -2.3511320000      0.8945640000
C                  0.6164770000     -0.2537450000     -0.0249750000
C                 -0.7555760000     -0.5813290000      0.1409460000
H                 -4.9995700000      0.7349420000      1.0803280000
H                 -3.4499610000      0.9019560000      1.9333740000
H                 -3.8307560000      1.9652210000      0.5767400000
H                 -3.0443700000     -2.2536200000     -0.0706190000
H                 -4.5490710000     -1.6971740000      0.6819770000
H                 -3.0137900000     -1.5811480000      1.5616880000
H                 -3.9488620000      0.9642470000     -1.8296570000
H                 -5.0803680000     -0.2695620000     -1.2503140000
H                 -3.5772470000     -0.7456060000     -2.0707780000
H                 -2.2052510000      2.2392080000     -1.0602770000
H                  0.1598870000      2.8464380000     -1.3752430000
H                  4.9256900000      1.7726620000     -1.0205850000
H                  6.7547830000      0.2081450000     -0.3644670000
H                  6.1664820000     -2.0219120000      0.6353850000
H                  3.7666670000     -2.6223390000      0.9551350000
H                 -0.9413220000     -1.5576480000      0.5717700000
$end

$rem
BASIS  =  6-311++G(d,p)
GUI  =  2
JOB_TYPE  =  SP
METHOD  =  B3LYP
SCF_CONVERGENCE  = 8
SOLVENT_METHOD = sm12
$end

$smx
solvent dimethylformamide
charges CM5
$end

--------------------------------------------------------------

             Standard Nuclear Orientation (Angstroms)
    I     Atom           X                Y                Z
 ----------------------------------------------------------------
    1      C      -3.9310510000     0.9424630000     0.9507710000
    2      C      -3.2754590000    -0.0774980000    -0.0115700000
    3      C      -3.4785900000    -1.4861640000     0.5763000000
    4      C      -4.0159300000    -0.0265640000    -1.3717900000
    5      C      -1.7880220000     0.2690260000    -0.2086280000
    6      C      -1.4298070000     1.5362180000    -0.7672240000
    7      C      -0.1098580000     1.8844980000    -0.9504900000
    8      C       0.9565880000     1.0218100000    -0.6003000000
    9      C       2.3262590000     1.4474090000    -0.8226000000
   10      O       2.6232780000     2.5818990000    -1.3316610000
   11      C       3.3343820000     0.4848480000    -0.4160390000
   12      C       4.7047220000     0.8028860000    -0.5855730000
   13      C       5.7117660000    -0.0673360000    -0.2202710000
   14      C       5.3788860000    -1.3288480000     0.3457950000
   15      C       4.0530450000    -1.6675990000     0.5251740000
   16      C       2.9956240000    -0.7967930000     0.1619120000
   17      C       1.6231430000    -1.2178610000     0.3826900000
   18      O       1.3271850000    -2.3511320000     0.8945640000
   19      C       0.6164770000    -0.2537450000    -0.0249750000
   20      C      -0.7555760000    -0.5813290000     0.1409460000
   21      H      -4.9995700000     0.7349420000     1.0803280000
   22      H      -3.4499610000     0.9019560000     1.9333740000
   23      H      -3.8307560000     1.9652210000     0.5767400000
   24      H      -3.0443700000    -2.2536200000    -0.0706190000
   25      H      -4.5490710000    -1.6971740000     0.6819770000
   26      H      -3.0137900000    -1.5811480000     1.5616880000
   27      H      -3.9488620000     0.9642470000    -1.8296570000
   28      H      -5.0803680000    -0.2695620000    -1.2503140000
   29      H      -3.5772470000    -0.7456060000    -2.0707780000
   30      H      -2.2052510000     2.2392080000    -1.0602770000
   31      H       0.1598870000     2.8464380000    -1.3752430000
   32      H       4.9256900000     1.7726620000    -1.0205850000
   33      H       6.7547830000     0.2081450000    -0.3644670000
   34      H       6.1664820000    -2.0219120000     0.6353850000
   35      H       3.7666670000    -2.6223390000     0.9551350000
   36      H      -0.9413220000    -1.5576480000     0.5717700000
 ----------------------------------------------------------------

   18    -846.2083139212      5.91e-09  Convergence criterion met
 Total energy in the final basis set =     -846.4942052766

                    Orbital Energies (a.u.)
 --------------------------------------------------------------

 Alpha MOs
 -- Occupied --
-19.0295 -19.0278 -10.1951 -10.1874 -10.1859 -10.1732 -10.1726 -10.1713
-10.1692 -10.1689 -10.1666 -10.1659 -10.1658 -10.1655 -10.1627 -10.1593
-10.1519 -10.1515 -10.1504 -10.1500  -0.9503  -0.9473  -0.8519  -0.8435
 -0.8149  -0.7646  -0.7428  -0.7378  -0.7211  -0.6918  -0.6911  -0.6491
 -0.6297  -0.6088  -0.5805  -0.5579  -0.5435  -0.5214  -0.5042  -0.4700
 -0.4590  -0.4520  -0.4453  -0.4443  -0.4299  -0.4236  -0.4199  -0.4060
 -0.4017  -0.3922  -0.3886  -0.3825  -0.3789  -0.3714  -0.3676  -0.3560
 -0.3549  -0.3435  -0.3391  -0.3348  -0.3278  -0.3209  -0.3106  -0.3105
 -0.2536  -0.2402  -0.2361  -0.2294  -0.2085  -0.2014  -0.1149

          Ground-State Mulliken Net Atomic Charges

     Atom                 Charge (a.u.)
  ----------------------------------------
      1 C                     0.034972
      2 C                     5.308002
      3 C                     0.215483
      4 C                     0.079663
      5 C                     1.491224
      6 C                     1.467391
      7 C                    -0.138736
      8 C                    -4.547794
      9 C                    -3.933059
     10 O                    -0.301789
     11 C                    -2.333758
     12 C                    -0.287821
     13 C                     1.561699
     14 C                     1.492939
     15 C                    -0.275096
     16 C                    -1.411789
     17 C                    -1.892462
     18 O                    -0.308449
     19 C                    -1.008901
     20 C                    -0.655955
     21 H                     0.402490
     22 H                     0.056061
     23 H                     0.253037
     24 H                     0.088870
     25 H                     0.480587
     26 H                     0.079187
     27 H                     0.242520
     28 H                     0.413424
     29 H                     0.056088
     30 H                     0.268279
     31 H                     0.201462
     32 H                     0.115785
     33 H                     0.395275
     34 H                     0.399245
     35 H                     0.107428
     36 H                    -0.115501
  ----------------------------------------
  Sum of atomic charges =    -2.000000

                    Cartesian Multipole Moments
 -----------------------------------------------------------------
    Charge (ESU x 10^10)
                -9.6064
    Dipole Moment (Debye)
         X     -20.1238      Y      -0.9399      Z       2.0520
       Tot      20.2500
    Quadrupole Moments (Debye-Ang)
        XX    -208.5195     XY      -5.7744     YY    -173.0677
        XZ       6.6977     YZ      17.1791     ZZ    -143.0553

 Total job time:  1419.24s(wall), 10975.34s(cpu)
        *  Thank you very much for using Q-Chem.  Have a nice day.  *
